       N       E                     dE             d eps       ncg     rms          rms(c)
DAV:   1     0.636999447333E+02    0.63700E+02   -0.53621E+03   800   0.497E+02
DAV:   2    -0.325193476661E+01   -0.66952E+02   -0.62951E+02  1110   0.112E+02
DAV:   3    -0.718324552539E+01   -0.39313E+01   -0.39231E+01  1030   0.291E+01
DAV:   4    -0.720831932537E+01   -0.25074E-01   -0.25073E-01  1060   0.283E+00
DAV:   5    -0.720853628434E+01   -0.21696E-03   -0.21696E-03  1000   0.259E-01    0.210E+00
DAV:   6    -0.688725179103E+01    0.32128E+00   -0.39930E-01  1030   0.254E+00    0.135E+00
DAV:   7    -0.684608125705E+01    0.41171E-01   -0.10992E-01  1080   0.135E+00    0.965E-01
DAV:   8    -0.684466731890E+01    0.14139E-02   -0.20193E-02   960   0.658E-01    0.324E-01
DAV:   9    -0.684398500387E+01    0.68232E-03   -0.25191E-03  1080   0.189E-01    0.108E-01
DAV:  10    -0.684417103201E+01   -0.18603E-03   -0.41626E-04   910   0.958E-02    0.220E-02
DAV:  11    -0.684416324801E+01    0.77840E-05   -0.10694E-05  1110   0.144E-02    0.992E-03
DAV:  12    -0.684416395709E+01   -0.70907E-06   -0.63196E-06   980   0.114E-02    0.236E-03
DAV:  13    -0.684416387644E+01    0.80648E-07   -0.35601E-07  1080   0.267E-03
   1 F= -.68441639E+01 E0= -.68441639E+01  d E =-.684416E+01
       N       E                     dE             d eps       ncg     rms          rms(c)
DAV:   1    -0.692246921345E+01   -0.78305E-01   -0.11726E+00   820   0.479E+00    0.140E+00
DAV:   2    -0.686282990583E+01    0.59639E-01   -0.88380E-02   900   0.118E+00    0.483E-01
DAV:   3    -0.685230365440E+01    0.10526E-01   -0.25194E-02   950   0.678E-01    0.271E-01
DAV:   4    -0.685159265314E+01    0.71100E-03   -0.12336E-03   980   0.160E-01    0.927E-02
DAV:   5    -0.685156796282E+01    0.24690E-04   -0.11888E-04   910   0.495E-02    0.335E-02
DAV:   6    -0.685157031083E+01   -0.23480E-05   -0.56850E-06  1070   0.117E-02    0.917E-03
DAV:   7    -0.685157122217E+01   -0.91134E-06   -0.70629E-07  1080   0.424E-03    0.269E-03
DAV:   8    -0.685157076937E+01    0.45280E-06   -0.50877E-08   590   0.123E-03    0.294E-04
DAV:   9    -0.685157077033E+01   -0.96361E-09   -0.57167E-09   490   0.430E-04
   2 F= -.68515708E+01 E0= -.68515708E+01  d E =-.740689E-02
       N       E                     dE             d eps       ncg     rms          rms(c)
DAV:   1    -0.690536548082E+01   -0.53795E-01   -0.85432E-01   840   0.410E+00    0.120E+00
DAV:   2    -0.686204083468E+01    0.43325E-01   -0.63584E-02   910   0.101E+00    0.415E-01
DAV:   3    -0.685427325187E+01    0.77676E-02   -0.18688E-02   960   0.586E-01    0.232E-01
DAV:   4    -0.685377321240E+01    0.50004E-03   -0.87452E-04   970   0.137E-01    0.799E-02
DAV:   5    -0.685375581695E+01    0.17395E-04   -0.93983E-05   940   0.435E-02    0.288E-02
DAV:   6    -0.685375772739E+01   -0.19104E-05   -0.44034E-06  1060   0.102E-02    0.785E-03
DAV:   7    -0.685375847160E+01   -0.74421E-06   -0.51218E-07  1070   0.367E-03    0.232E-03
DAV:   8    -0.685375809359E+01    0.37800E-06   -0.35492E-08   570   0.105E-03    0.284E-04
DAV:   9    -0.685375809304E+01    0.55172E-09   -0.48203E-09   470   0.396E-04
   3 F= -.68537581E+01 E0= -.68537581E+01  d E =-.959422E-02
