 vasp.6.5.1 10Mar25 (build May 05 2025 13:45:00) complex                        
  
 executed on             LinuxIFC date 2026.05.11  14:17:33
 running   10 mpi-ranks, on    1 nodes
 distrk:  each k-point on   10 cores,    1 groups
 distr:  one band on NCORE=   1 cores,   10 groups


--------------------------------------------------------------------------------------------------------


 INCAR:
   ALGO = Normal
   PREC = Normal
   LREAL = False
   EDIFF = 1e-07
   ENCUT = 341.214
   LASPH = True
   NELM = 100
   ISIF = 3
   IBRION = 2
   EDIFFG = -0.005
   NSW = 100
   ISMEAR = 0
   SIGMA = 0.1
   LWAVE = False
   LCHARG = False
   LORBIT = 10
   GGA = Ps
   KPAR = 1

 POTCAR:    PAW_PBE Cs_sv 08Apr2002               
 POTCAR:    PAW_PBE Cl 06Sep2000                  
 -----------------------------------------------------------------------------
|                                                                             |
|           W    W    AA    RRRRR   N    N  II  N    N   GGGG   !!!           |
|           W    W   A  A   R    R  NN   N  II  NN   N  G    G  !!!           |
|           W    W  A    A  R    R  N N  N  II  N N  N  G       !!!           |
|           W WW W  AAAAAA  RRRRR   N  N N  II  N  N N  G  GGG   !            |
|           WW  WW  A    A  R   R   N   NN  II  N   NN  G    G                |
|           W    W  A    A  R    R  N    N  II  N    N   GGGG   !!!           |
|                                                                             |
|     For optimal performance we recommend to set                             |
|       NCORE = 2 up to number-of-cores-per-socket                            |
|     NCORE specifies how many cores store one orbital (NPAR=cpu/NCORE).      |
|     This setting can greatly improve the performance of VASP for DFT.       |
|     The default, NCORE=1 might be grossly inefficient on modern             |
|     multi-core architectures or massively parallel machines. Do your        |
|     own testing! More info at https://www.vasp.at/wiki/index.php/NCORE      |
|     Unfortunately you need to use the default for GW and RPA                |
|     calculations (for HF NCORE is supported but not extensively tested      |
|     yet).                                                                   |
|                                                                             |
 -----------------------------------------------------------------------------

 POTCAR:    PAW_PBE Cs_sv 08Apr2002               
   SHA256 =  c1463496f0f6037ed62c6012a8013a89ee9ad6ffb38599dcd6c079e7ed31779b Cs_sv/POTCAR          
   COPYR  = (c) Copyright 08Apr2002 Georg Kresse                                                    
   COPYR  = This file is part of the software VASP. Any use, copying, and all other rights are regul
   COPYR  = If you do not have a valid VASP license, you may not use, copy or distribute this file. 
   VRHFIN =Cs: 5s5p6s                                                                               
   LEXCH  = PE                                                                                      
   EATOM  =   555.6835 eV,   40.8416 Ry                                                             
                                                                                                    
   TITEL  = PAW_PBE Cs_sv 08Apr2002                                                                 
   LULTRA =        F    use ultrasoft PP ?                                                          
   IUNSCR =        1    unscreen: 0-lin 1-nonlin 2-no                                               
   RPACOR =    2.200    partial core radius                                                         
   POMASS =  132.900; ZVAL   =    9.000    mass and valenz                                          
   RCORE  =    2.500    outmost cutoff radius                                                       
   RWIGS  =    2.500; RWIGS  =    1.323    wigner-seitz radius (au A)                               
   ENMAX  =  220.318; ENMIN  =  165.238 eV                                                          
   RCLOC  =    2.207    cutoff for local pot                                                        
   LCOR   =        T    correct aug charges                                                         
   LPAW   =        T    paw PP                                                                      
   EAUG   =  407.933                                                                                
   DEXC   =    0.000                                                                                
   RMAX   =    2.554    core radius for proj-oper                                                   
   RAUG   =    1.300    factor for augmentation sphere                                              
   RDEP   =    2.590    radius for radial grids                                                     
   RDEPT  =    2.117    core radius for aug-charge                                                  
                                                                                                    
   Atomic configuration                                                                             
   13 entries                                                                                       
     n  l   j            E        occ.                                                              
     1  0  0.50    -35790.1377   2.0000                                                             
     2  0  0.50     -5613.6201   2.0000                                                             
     2  1  1.50     -5035.0101   6.0000                                                             
     3  0  0.50     -1167.0767   2.0000                                                             
     3  1  1.50      -980.9754   6.0000                                                             
     3  2  2.50      -708.0703  10.0000                                                             
     4  0  0.50      -220.2386   2.0000                                                             
     4  1  1.50      -160.7596   6.0000                                                             
     4  2  2.50       -74.2354  10.0000                                                             
     5  0  0.50       -26.7287   2.0000                                                             
     6  0  0.50        -2.0862   1.0000                                                             
     5  1  1.50       -13.5159   6.0000                                                             
     5  2  2.50        -0.4136   0.0000                                                             
   Description                                                                                      
     l       E           TYP  RCUT    TYP  RCUT                                                     
     0    -26.7287425     23  1.900                                                                 
     0     -2.0862306     23  1.900                                                                 
     1    -13.5158719     23  2.500                                                                 
     1     -2.7211652     23  2.500                                                                 
     2     -0.4136171     23  2.500                                                                 
  local pseudopotential read in
  partial core-charges read in
  partial kinetic energy density read in
  atomic valenz-charges read in
  non local Contribution for L=           0  read in
    real space projection operators read in
  non local Contribution for L=           0  read in
    real space projection operators read in
  non local Contribution for L=           1  read in
    real space projection operators read in
  non local Contribution for L=           1  read in
    real space projection operators read in
  non local Contribution for L=           2  read in
    real space projection operators read in
    PAW grid and wavefunctions read in
 
   number of l-projection  operators is LMAX  =           5
   number of lm-projection operators is LMMAX =          13
 
 POTCAR:    PAW_PBE Cl 06Sep2000                  
   SHA256 =  9f1b6e6ed4247ac726a768b330d26d7667cc3c95a39ff49c1d064c2d9dcce931 Cl/POTCAR             
   COPYR  = (c) Copyright 06Sep2000 Georg Kresse                                                    
   COPYR  = This file is part of the software VASP. Any use, copying, and all other rights are regul
   COPYR  = If you do not have a valid VASP license, you may not use, copy or distribute this file. 
   VRHFIN =Cl: s2p5                                                                                 
   LEXCH  = PE                                                                                      
   EATOM  =   409.7259 eV,   30.1140 Ry                                                             
                                                                                                    
   TITEL  = PAW_PBE Cl 06Sep2000                                                                    
   LULTRA =        F    use ultrasoft PP ?                                                          
   IUNSCR =        1    unscreen: 0-lin 1-nonlin 2-no                                               
   RPACOR =    1.500    partial core radius                                                         
   POMASS =   35.453; ZVAL   =    7.000    mass and valenz                                          
   RCORE  =    1.900    outmost cutoff radius                                                       
   RWIGS  =    2.100; RWIGS  =    1.111    wigner-seitz radius (au A)                               
   ENMAX  =  262.472; ENMIN  =  196.854 eV                                                          
   ICORE  =        2    local potential                                                             
   LCOR   =        T    correct aug charges                                                         
   LPAW   =        T    paw PP                                                                      
   EAUG   =  356.192                                                                                
   DEXC   =    0.000                                                                                
   RMAX   =    1.945    core radius for proj-oper                                                   
   RAUG   =    1.300    factor for augmentation sphere                                              
   RDEP   =    2.020    radius for radial grids                                                     
   RDEPT  =    1.678    core radius for aug-charge                                                  
                                                                                                    
   Atomic configuration                                                                             
    6 entries                                                                                       
     n  l   j            E        occ.                                                              
     1  0  0.50     -2751.1850   2.0000                                                             
     2  0  0.50      -252.6861   2.0000                                                             
     2  1  1.50      -191.6157   6.0000                                                             
     3  0  0.50       -20.6916   2.0000                                                             
     3  1  0.50        -8.5949   5.0000                                                             
     3  2  1.50        -8.1635   0.0000                                                             
   Description                                                                                      
     l       E           TYP  RCUT    TYP  RCUT                                                     
     0    -20.6915656     23  1.900                                                                 
     0    -22.0521482     23  1.900                                                                 
     1     -8.5948577     23  1.900                                                                 
     1     -5.3847331     23  1.900                                                                 
     2     -8.1634956     23  1.900                                                                 
  local pseudopotential read in
  partial core-charges read in
  partial kinetic energy density read in
  atomic valenz-charges read in
  non local Contribution for L=           0  read in
    real space projection operators read in
  non local Contribution for L=           0  read in
    real space projection operators read in
  non local Contribution for L=           1  read in
    real space projection operators read in
  non local Contribution for L=           1  read in
    real space projection operators read in
    PAW grid and wavefunctions read in
 
   number of l-projection  operators is LMAX  =           4
   number of lm-projection operators is LMMAX =           8
 
 -----------------------------------------------------------------------------
|                                                                             |
|               ----> ADVICE to this user running VASP <----                  |
|                                                                             |
|     You enforced a specific xc type in the INCAR file but a different       |
|     type was found in the POTCAR file.                                      |
|     I HOPE YOU KNOW WHAT YOU ARE DOING!                                     |
|                                                                             |
 -----------------------------------------------------------------------------

  PAW_PBE Cs_sv 08Apr2002               :
 energy of atom  1       EATOM= -555.6835
 kinetic energy error for atom=    0.0045 (will be added to EATOM!!)
  PAW_PBE Cl 06Sep2000                  :
 energy of atom  2       EATOM= -409.7259
 kinetic energy error for atom=    0.0106 (will be added to EATOM!!)
 
 
 POSCAR: Cs1 Cl1
  positions in direct lattice
  No initial velocities read in


 exchange-correlation table for PS
   RHO(1)=    0.500       N(1)  =     2000
   RHO(2)=  100.500       N(2)  =     4000
 


--------------------------------------------------------------------------------------------------------


 ion  position               nearest neighbor table
   1  0.000  0.000  0.000-
   2  0.500  0.500  0.500-
 
  LATTYP: Found a simple cubic cell.
 ALAT       =     4.1436983400
  
  Lattice vectors:
  
 A1 = (   4.1436983400,   0.0000000000,   0.0000000000)
 A2 = (   0.0000000000,   4.1436983400,   0.0000000000)
 A3 = (   0.0000000000,   0.0000000000,   4.1436983400)


Analysis of symmetry for initial positions (statically):
=====================================================================
 Subroutine PRICEL returns:
 Original cell was already a primitive cell.
 

 Routine SETGRP: Setting up the symmetry group for a 
 simple cubic supercell.


 Subroutine GETGRP returns: Found 48 space group operations
 (whereof 48 operations were pure point group operations)
 out of a pool of 48 trial point group operations.


The static configuration has the point symmetry O_h .


Analysis of symmetry for dynamics (positions and initial velocities):
=====================================================================
 Subroutine PRICEL returns:
 Original cell was already a primitive cell.
 

 Routine SETGRP: Setting up the symmetry group for a 
 simple cubic supercell.


 Subroutine GETGRP returns: Found 48 space group operations
 (whereof 48 operations were pure point group operations)
 out of a pool of 48 trial point group operations.


The dynamic configuration has the point symmetry O_h .


 Subroutine INISYM returns: Found 48 space group operations
 (whereof 48 operations are pure point group operations),
 and found     1 'primitive' translations


----------------------------------------------------------------------------------------

                                     Primitive cell                                     

  volume of cell :      71.1483

  direct lattice vectors                    reciprocal lattice vectors
     4.143698340  0.000000000  0.000000000     0.241330309  0.000000000  0.000000000
     0.000000000  4.143698340  0.000000000     0.000000000  0.241330309  0.000000000
     0.000000000  0.000000000  4.143698340     0.000000000  0.000000000  0.241330309

  length of vectors
     4.143698340  4.143698340  4.143698340     0.241330309  0.241330309  0.241330309

  position of ions in fractional coordinates (direct lattice)
     0.000000000  0.000000000  0.000000000
     0.500000000  0.500000000  0.500000000

  ion indices of the primitive-cell ions
   primitive index   ion index
                 1           1
                 2           2

----------------------------------------------------------------------------------------

 
 
 KPOINTS: Num irrep kpoints: 20                   

Automatic generation of k-mesh.
 Grid dimensions read from file:
 generate k-points for:    8    8    8

 Generating k-lattice:

  Cartesian coordinates                     Fractional coordinates (reciprocal lattice)
     0.030166289  0.000000000  0.000000000     0.125000000  0.000000000  0.000000000
     0.000000000  0.030166289  0.000000000     0.000000000  0.125000000  0.000000000
     0.000000000  0.000000000  0.030166289     0.000000000  0.000000000  0.125000000

  Length of vectors
     0.030166289  0.030166289  0.030166289

  Shift w.r.t. Gamma in fractional coordinates (k-lattice)
     0.500000000  0.500000000  0.500000000

 
 Subroutine IBZKPT returns following result:
 ===========================================
 
 Found     20 irreducible k-points:
 
 Following reciprocal coordinates:
            Coordinates               Weight
  0.062500  0.062500  0.062500      8.000000
  0.187500  0.062500  0.062500     24.000000
  0.312500  0.062500  0.062500     24.000000
  0.437500  0.062500  0.062500     24.000000
  0.187500  0.187500  0.062500     24.000000
  0.312500  0.187500  0.062500     48.000000
  0.437500  0.187500  0.062500     48.000000
  0.312500  0.312500  0.062500     24.000000
  0.437500  0.312500  0.062500     48.000000
  0.437500  0.437500  0.062500     24.000000
  0.187500  0.187500  0.187500      8.000000
  0.312500  0.187500  0.187500     24.000000
  0.437500  0.187500  0.187500     24.000000
  0.312500  0.312500  0.187500     24.000000
  0.437500  0.312500  0.187500     48.000000
  0.437500  0.437500  0.187500     24.000000
  0.312500  0.312500  0.312500      8.000000
  0.437500  0.312500  0.312500     24.000000
  0.437500  0.437500  0.312500     24.000000
  0.437500  0.437500  0.437500      8.000000
 
 Following cartesian coordinates:
            Coordinates               Weight
  0.015083  0.015083  0.015083      8.000000
  0.045249  0.015083  0.015083     24.000000
  0.075416  0.015083  0.015083     24.000000
  0.105582  0.015083  0.015083     24.000000
  0.045249  0.045249  0.015083     24.000000
  0.075416  0.045249  0.015083     48.000000
  0.105582  0.045249  0.015083     48.000000
  0.075416  0.075416  0.015083     24.000000
  0.105582  0.075416  0.015083     48.000000
  0.105582  0.105582  0.015083     24.000000
  0.045249  0.045249  0.045249      8.000000
  0.075416  0.045249  0.045249     24.000000
  0.105582  0.045249  0.045249     24.000000
  0.075416  0.075416  0.045249     24.000000
  0.105582  0.075416  0.045249     48.000000
  0.105582  0.105582  0.045249     24.000000
  0.075416  0.075416  0.075416      8.000000
  0.105582  0.075416  0.075416     24.000000
  0.105582  0.105582  0.075416     24.000000
  0.105582  0.105582  0.105582      8.000000
 


--------------------------------------------------------------------------------------------------------




 Dimension of arrays:
   k-points           NKPTS =     20   k-points in BZ     NKDIM =     20   number of bands    NBANDS=     20
   number of dos      NEDOS =    301   number of ions     NIONS =      2
   non local maximal  LDIM  =      5   non local SUM 2l+1 LMDIM =     13
   total plane-waves  NPLWV =   8000
   max r-space proj   IRMAX =      1   max aug-charges    IRDMAX=   5820
   dimension x,y,z NGX =    20 NGY =   20 NGZ =   20
   dimension x,y,z NGXF=    40 NGYF=   40 NGZF=   40
   support grid    NGXF=    40 NGYF=   40 NGZF=   40
   ions per type =               1   1
   NGX,Y,Z   is equivalent  to a cutoff of   8.02,  8.02,  8.02 a.u.
   NGXF,Y,Z  is equivalent  to a cutoff of  16.05, 16.05, 16.05 a.u.

 SYSTEM =  unknown system                          
 POSCAR =  Cs1 Cl1                                 

 Startparameter for this run:
   NWRITE =      2    write-flag & timer
   PREC   = normal    normal or accurate (medium, high low for compatibility)
   ISTART =      0    job   : 0-new  1-cont  2-samecut
   ICHARG =      2    charge: 1-file 2-atom 10-const
   ISPIN  =      1    spin polarized calculation?
   LNONCOLLINEAR =      F non collinear calculations
   LSORBIT =      F    spin-orbit coupling
   INIWAV =      1    electr: 0-lowe 1-rand  2-diag
   LASPH  =      T    aspherical Exc in radial PAW
 Electronic Relaxation 1
   ENCUT  =  341.2 eV  25.08 Ry    5.01 a.u.   6.24  6.24  6.24*2*pi/ulx,y,z
   ENINI  =  341.2     initial cutoff
   ENAUG  =  407.9 eV  augmentation charge cutoff
   NELM   =    100;   NELMIN=  2; NELMDL= -5     # of ELM steps 
   EDIFF  = 0.1E-06   stopping-criterion for ELM
   LREAL  =      F    real-space projection
   NLSPLINE    = F    spline interpolate recip. space projectors
   LCOMPAT=      F    compatible to vasp.4.4
   GGA_COMPAT  = T    GGA compatible to vasp.4.4-vasp.4.6
   LMAXPAW     = -100 max onsite density
   LMAXMIX     =    2 max onsite mixed and CHGCAR
   VOSKOWN=      0    Vosko Wilk Nusair interpolation
   ROPT   =    0.00000   0.00000
 Ionic relaxation
   EDIFFG = -.5E-02   stopping-criterion for IOM
   NSW    =    100    number of steps for IOM
   NBLOCK =      1;   KBLOCK =    100    inner block; outer block 
   IBRION =      2    ionic relax: 0-MD 1-quasi-New 2-CG
   NFREE  =      1    steps in history (QN), initial steepest desc. (CG)
   ISIF   =      3    stress and relaxation
   IWAVPR =     11    prediction:  0-non 1-charg 2-wave 3-comb
   ISYM   =      2    0-nonsym 1-usesym 2-fastsym
   LCORR  =      T    Harris-Foulkes like correction to forces

   POTIM  = 0.5000    time-step for ionic-motion
   TEIN   =    0.0    initial temperature
   TEBEG  =    0.0;   TEEND  =   0.0 temperature during run
   SMASS  =  -3.00    Nose mass-parameter (am)
   estimated Nose-frequenzy (Omega)   =  0.10E-29 period in steps = 0.13E+47 mass=  -0.392E-27a.u.
   SCALEE = 1.0000    scale energy and forces
   NPACO  =    256;   APACO  = 10.0  distance and # of slots for P.C.
   PSTRESS=    0.0 pullay stress

  Mass of Ions in am
   POMASS = 132.90 35.45
  Ionic Valenz
   ZVAL   =   9.00  7.00
  Atomic Wigner-Seitz radii
   RWIGS  =  -1.00 -1.00
  virtual crystal weights 
   VCA    =   1.00  1.00
   NELECT =      16.0000    total number of electrons
   NUPDOWN=      -1.0000    fix difference up-down

 DOS related values:
   EMIN   =  10.00;   EMAX   =-10.00  energy-range for DOS
   EFERMI =   0.00;   METHOD = LEGACY      
   ISMEAR =     0;   SIGMA  =   0.10  broadening in eV -4-tet -1-fermi 0-gaus
   EFERMI_NEDOS =   21; number of points for ismear=-14 and -15

 Electronic relaxation 2 (details)
   IALGO  =     38    algorithm
   LDIAG  =      T    sub-space diagonalisation (order eigenvalues)
   LSUBROT=      F    optimize rotation matrix (better conditioning)
   LROBUST=      F    robust break criterion during scf (extrapolated energy error)
   ISEARCH=      0    line search for conjugate gradient (0, 1=use gradient)
   TURBO    =      0    0=normal 1=particle mesh
   IRESTART =      0    0=no restart 2=restart with 2 vectors
   NREBOOT  =      0    no. of reboots
   NMIN     =      0    reboot dimension
   EREF     =   0.00    reference energy to select bands
   IMIX   =      4    mixing-type and parameters
     AMIX     =   0.40;   BMIX     =  1.00
     AMIX_MAG =   1.60;   BMIX_MAG =  1.00
     AMIN     =   0.10
     WC   =   100.;   INIMIX=   1;  MIXPRE=   1;  MAXMIX= -45

 Intra band minimization:
   WEIMIN = 0.0010     energy-eigenvalue tresh-hold
   EBREAK =  0.13E-08  absolut break condition
   DEPER  =   0.30     relativ break condition  

   TIME   =   0.40     timestep for ELM

  volume/ion in A,a.u.               =      35.57       240.07
  Fermi-wavevector in a.u.,A,eV,Ry     =   0.995543  1.881303 13.484814  0.991106
  Thomas-Fermi vector in A             =   2.127570
 
 Write flags
   LWAVE        =      F    write WAVECAR
   LDOWNSAMPLE  =      F    k-point downsampling of WAVECAR
   LCHARG       =      F    write CHGCAR
   LVTOT        =      F    write LOCPOT, total local potential
   LVHAR        =      F    write LOCPOT, Hartree potential only
   WRT_POTENTIAL= false  ! write potential to hdf5 file
   LELF         =      F    write electronic localiz. function (ELF)
   LORBIT       =     10    0 simple, 1 ext, 2 COOP (PROOUT), +10 PAW based schemes


 Python interface
   PLUGINS active      =      F    recompile with -DPLUGINS to activate
 
 Dipole corrections
   LMONO      =      F    monopole corrections only (constant potential shift)
   LDIPOL     =      F    correct potential (dipole corrections)
   IDIPOL     =      0    1-x, 2-y, 3-z, 4-all directions 
   EPSILON    =  1.0000000 bulk dielectric constant
   LVACPOTAV  =      F  vacuum potentials using an averaging scheme for the charge density
   VACPOTFLAT =  0.1000000 required flatness to determine vacuum potential
 
Coulomb truncation method
  LTRUNCATE          =      F  Coulomb kernel truncation to be used

 
 Exchange correlation treatment:
   GGA     = PS    functional components
   XC_C    = 1    coefficients multiplying the functional components
   LIBXC   =     F    Libxc                    
   VOSKOWN =     0    Vosko Wilk Nusair interpolation
   LHFCALC =     F    Hartree Fock is set to
   LHFONE  =     F    Hartree Fock one center treatment
   AEXX    =    0.0000 exact exchange contribution

 Parameters of functionals:
   PS:
     No parameter
 
 Van der Waals corrections
   IVDW    =     0    specifies the selected vdW correction

 Linear response parameters
   LEPSILON=     F    determine dielectric tensor
   LRPA    =     F    only Hartree local field effects (RPA)
   LNABLA  =     F    use nabla operator in PAW spheres
   LVEL    =     F    velocity operator in full k-point grid
   CSHIFT  =0.1000    complex shift for real part using Kramers Kronig
   OMEGAMAX=  -1.0    maximum frequency
   DEG_THRESHOLD= 0.2000000E-02 threshold for treating states as degnerate
   RTIME   =   -0.100 relaxation time in fs
  (WPLASMAI=    0.000 imaginary part of plasma frequency in eV, 0.658/RTIME)
   DFIELD  = 0.0000000 0.0000000 0.0000000 field for delta impulse in time
 
  Optional k-point grid parameters
   LKPOINTS_OPT  =     F    use optional k-point grid
   KPOINTS_OPT_MODE=     1    mode for optional k-point grid
 
 Orbital magnetization related:
   ORBITALMAG=     F  switch on orbital magnetization
   LCHIMAG   =     F  perturbation theory with respect to B field
   DQ        =  0.001000  dq finite difference perturbation B field
   LLRAUG    =     F  two centre corrections for induced B field
   LBONE     =     F  B-component reconstruction in AE one-centre
   LVGVCALC  =     T  calculate vGv susceptibility
   LVGVAPPL  =     F  apply vGv susceptibility instead of pGv for G=0

 Random number generation:
   RANDOM_GENERATOR = DEFAULT
   PCG_SEED         = not used


--------------------------------------------------------------------------------------------------------


 conjugate gradient relaxation of ions
 charge density and potential will be updated during run
 non-spin polarized calculation
 Variant of blocked Davidson
 Davidson routine will perform the subspace rotation
 perform sub-space diagonalisation
    after iterative eigenvector-optimisation
 modified Broyden-mixing scheme, WC =      100.0
 initial mixing is a Kerker type mixing with AMIX =  0.4000 and BMIX =      1.0000
 Hartree-type preconditioning will be used
 using additional bands           12
 reciprocal scheme for non local part
 use partial core corrections
 calculate Harris-corrections to forces 
   (improved forces if not selfconsistent)
 use gradient corrections 
 use of overlap-Matrix (Vanderbilt PP)
 Gauss-broadening in eV      SIGMA  =   0.10


--------------------------------------------------------------------------------------------------------


  energy-cutoff  :      341.21
  volume of cell :       71.15
      direct lattice vectors                 reciprocal lattice vectors
     4.143698340  0.000000000  0.000000000     0.241330309  0.000000000  0.000000000
     0.000000000  4.143698340  0.000000000     0.000000000  0.241330309  0.000000000
     0.000000000  0.000000000  4.143698340     0.000000000  0.000000000  0.241330309

  length of vectors
     4.143698340  4.143698340  4.143698340     0.241330309  0.241330309  0.241330309


 
 k-points in units of 2pi/SCALE and weight: Num irrep kpoints: 20                   
   0.01508314  0.01508314  0.01508314       0.016
   0.04524943  0.01508314  0.01508314       0.047
   0.07541572  0.01508314  0.01508314       0.047
   0.10558201  0.01508314  0.01508314       0.047
   0.04524943  0.04524943  0.01508314       0.047
   0.07541572  0.04524943  0.01508314       0.094
   0.10558201  0.04524943  0.01508314       0.094
   0.07541572  0.07541572  0.01508314       0.047
   0.10558201  0.07541572  0.01508314       0.094
   0.10558201  0.10558201  0.01508314       0.047
   0.04524943  0.04524943  0.04524943       0.016
   0.07541572  0.04524943  0.04524943       0.047
   0.10558201  0.04524943  0.04524943       0.047
   0.07541572  0.07541572  0.04524943       0.047
   0.10558201  0.07541572  0.04524943       0.094
   0.10558201  0.10558201  0.04524943       0.047
   0.07541572  0.07541572  0.07541572       0.016
   0.10558201  0.07541572  0.07541572       0.047
   0.10558201  0.10558201  0.07541572       0.047
   0.10558201  0.10558201  0.10558201       0.016
 
 k-points in reciprocal lattice and weights: Num irrep kpoints: 20                   
   0.06250000  0.06250000  0.06250000       0.016
   0.18750000  0.06250000  0.06250000       0.047
   0.31250000  0.06250000  0.06250000       0.047
   0.43750000  0.06250000  0.06250000       0.047
   0.18750000  0.18750000  0.06250000       0.047
   0.31250000  0.18750000  0.06250000       0.094
   0.43750000  0.18750000  0.06250000       0.094
   0.31250000  0.31250000  0.06250000       0.047
   0.43750000  0.31250000  0.06250000       0.094
   0.43750000  0.43750000  0.06250000       0.047
   0.18750000  0.18750000  0.18750000       0.016
   0.31250000  0.18750000  0.18750000       0.047
   0.43750000  0.18750000  0.18750000       0.047
   0.31250000  0.31250000  0.18750000       0.047
   0.43750000  0.31250000  0.18750000       0.094
   0.43750000  0.43750000  0.18750000       0.047
   0.31250000  0.31250000  0.31250000       0.016
   0.43750000  0.31250000  0.31250000       0.047
   0.43750000  0.43750000  0.31250000       0.047
   0.43750000  0.43750000  0.43750000       0.016
 
 position of ions in fractional coordinates (direct lattice) 
   0.00000000  0.00000000  0.00000000
   0.50000000  0.50000000  0.50000000
 
 position of ions in cartesian coordinates  (Angst):
   0.00000000  0.00000000  0.00000000
   2.07184917  2.07184917  2.07184917
 


--------------------------------------------------------------------------------------------------------


 k-point     1 :   0.0625 0.0625 0.0625  plane waves:    1012
 k-point     2 :   0.1875 0.0625 0.0625  plane waves:    1012
 k-point     3 :   0.3125 0.0625 0.0625  plane waves:    1017
 k-point     4 :   0.4375 0.0625 0.0625  plane waves:    1027
 k-point     5 :   0.1875 0.1875 0.0625  plane waves:    1023
 k-point     6 :   0.3125 0.1875 0.0625  plane waves:    1019
 k-point     7 :   0.4375 0.1875 0.0625  plane waves:    1022
 k-point     8 :   0.3125 0.3125 0.0625  plane waves:    1025
 k-point     9 :   0.4375 0.3125 0.0625  plane waves:    1019
 k-point    10 :   0.4375 0.4375 0.0625  plane waves:    1020
 k-point    11 :   0.1875 0.1875 0.1875  plane waves:    1015
 k-point    12 :   0.3125 0.1875 0.1875  plane waves:    1020
 k-point    13 :   0.4375 0.1875 0.1875  plane waves:    1016
 k-point    14 :   0.3125 0.3125 0.1875  plane waves:    1015
 k-point    15 :   0.4375 0.3125 0.1875  plane waves:    1022
 k-point    16 :   0.4375 0.4375 0.1875  plane waves:    1018
 k-point    17 :   0.3125 0.3125 0.3125  plane waves:    1015
 k-point    18 :   0.4375 0.3125 0.3125  plane waves:    1014
 k-point    19 :   0.4375 0.4375 0.3125  plane waves:    1019
 k-point    20 :   0.4375 0.4375 0.4375  plane waves:    1028

 maximum and minimum number of plane-waves per node :      1028     1012

 maximum number of plane-waves:      1028
 maximum index in each direction: 
   IXMAX=    6   IYMAX=    6   IZMAX=    6
   IXMIN=   -6   IYMIN=   -6   IZMIN=   -6


 serial   3D FFT for wavefunctions
 parallel 3D FFT for charge:
    minimum data exchange during FFTs selected (reduces bandwidth)


 total amount of memory used by VASP MPI-rank0    35968. kBytes
=======================================================================

   base                                    :      30000. kBytes
   nonl-proj                               :       4317. kBytes
   fftplans                                :        260. kBytes
   grid                                    :        697. kBytes
   one-center                              :         16. kBytes
   wavefun                                 :        678. kBytes
 
     INWAV:  cpu time      0.0001: real time      0.0002
 Broyden mixing: mesh for mixing (old mesh)
   NGX = 13   NGY = 13   NGZ = 13
  (NGX  = 40   NGY  = 40   NGZ  = 40)
  gives a total of   2197 points

 initial charge density was supplied:
 charge density of overlapping atoms calculated
 number of electron      16.0000000 magnetization 
 keeping initial charge density in first step


--------------------------------------------------------------------------------------------------------


 Maximum index for augmentation-charges          495 (set IRDMAX)


--------------------------------------------------------------------------------------------------------


 First call to EWALD:  gamma=   0.428
 Maximum number of real-space cells   3x   3x   3
 Maximum number of reciprocal cells   3x   3x   3

    FEWALD:  cpu time      0.0019: real time      0.0019


--------------------------------------- Ionic step        1  -------------------------------------------




--------------------------------------- Iteration      1(   1)  ---------------------------------------


    POTLOK:  cpu time      0.0102: real time      0.0681
    SETDIJ:  cpu time      0.0615: real time      0.0617
     EDDAV:  cpu time      0.0956: real time      0.2906
       DOS:  cpu time      0.0007: real time      0.0007
    --------------------------------------------
      LOOP:  cpu time      0.1680: real time      0.4211

 eigenvalue-minimisations  :   800
 total energy-change (2. order) : 0.6369994E+02  (-0.5362059E+03)
 number of electron      16.0000000 magnetization 
 augmentation part       16.0000000 magnetization 

 Free energy of the ion-electron system (eV)
  ---------------------------------------------------
  alpha Z        PSCENC =        51.70241373
  Ewald energy   TEWEN  =      -816.46309400
  -Hartree energ DENC   =      -132.45706976
  -exchange      EXHF   =         0.00000000
  -V(xc)+E(xc)   XCENC  =        31.31546299
  PAW double counting   =       749.47380581     -742.20009777
  entropy T*S    EENTRO =        -0.00532777
  eigenvalues    EBANDS =       -42.10928934
  atomic energy  EATOM  =       964.44314085
  Solvation  Ediel_sol  =         0.00000000
  ---------------------------------------------------
  free energy    TOTEN  =        63.69994473 eV

  energy without entropy =       63.70527250  energy(sigma->0) =       63.70260862


--------------------------------------------------------------------------------------------------------




--------------------------------------- Iteration      1(   2)  ---------------------------------------


     EDDAV:  cpu time      0.0867: real time      0.0987
       DOS:  cpu time      0.0002: real time      0.0002
    --------------------------------------------
      LOOP:  cpu time      0.0868: real time      0.0988

 eigenvalue-minimisations  :  1110
 total energy-change (2. order) :-0.6695188E+02  (-0.6295130E+02)
 number of electron      16.0000000 magnetization 
 augmentation part       16.0000000 magnetization 

 Free energy of the ion-electron system (eV)
  ---------------------------------------------------
  alpha Z        PSCENC =        51.70241373
  Ewald energy   TEWEN  =      -816.46309400
  -Hartree energ DENC   =      -132.45706976
  -exchange      EXHF   =         0.00000000
  -V(xc)+E(xc)   XCENC  =        31.31546299
  PAW double counting   =       749.47380581     -742.20009777
  entropy T*S    EENTRO =        -0.00000000
  eigenvalues    EBANDS =      -109.06649661
  atomic energy  EATOM  =       964.44314085
  Solvation  Ediel_sol  =         0.00000000
  ---------------------------------------------------
  free energy    TOTEN  =        -3.25193477 eV

  energy without entropy =       -3.25193477  energy(sigma->0) =       -3.25193477


--------------------------------------------------------------------------------------------------------




--------------------------------------- Iteration      1(   3)  ---------------------------------------


     EDDAV:  cpu time      0.0775: real time      0.0779
       DOS:  cpu time      0.0001: real time      0.0001
    --------------------------------------------
      LOOP:  cpu time      0.0776: real time      0.0781

 eigenvalue-minimisations  :  1030
 total energy-change (2. order) :-0.3931311E+01  (-0.3923095E+01)
 number of electron      16.0000000 magnetization 
 augmentation part       16.0000000 magnetization 

 Free energy of the ion-electron system (eV)
  ---------------------------------------------------
  alpha Z        PSCENC =        51.70241373
  Ewald energy   TEWEN  =      -816.46309400
  -Hartree energ DENC   =      -132.45706976
  -exchange      EXHF   =         0.00000000
  -V(xc)+E(xc)   XCENC  =        31.31546299
  PAW double counting   =       749.47380581     -742.20009777
  entropy T*S    EENTRO =        -0.00000000
  eigenvalues    EBANDS =      -112.99780737
  atomic energy  EATOM  =       964.44314085
  Solvation  Ediel_sol  =         0.00000000
  ---------------------------------------------------
  free energy    TOTEN  =        -7.18324553 eV

  energy without entropy =       -7.18324553  energy(sigma->0) =       -7.18324553


--------------------------------------------------------------------------------------------------------




--------------------------------------- Iteration      1(   4)  ---------------------------------------


     EDDAV:  cpu time      0.0802: real time      0.0807
       DOS:  cpu time      0.0001: real time      0.0001
    --------------------------------------------
      LOOP:  cpu time      0.0804: real time      0.0808

 eigenvalue-minimisations  :  1060
 total energy-change (2. order) :-0.2507380E-01  (-0.2507264E-01)
 number of electron      16.0000000 magnetization 
 augmentation part       16.0000000 magnetization 

 Free energy of the ion-electron system (eV)
  ---------------------------------------------------
  alpha Z        PSCENC =        51.70241373
  Ewald energy   TEWEN  =      -816.46309400
  -Hartree energ DENC   =      -132.45706976
  -exchange      EXHF   =         0.00000000
  -V(xc)+E(xc)   XCENC  =        31.31546299
  PAW double counting   =       749.47380581     -742.20009777
  entropy T*S    EENTRO =        -0.00000000
  eigenvalues    EBANDS =      -113.02288117
  atomic energy  EATOM  =       964.44314085
  Solvation  Ediel_sol  =         0.00000000
  ---------------------------------------------------
  free energy    TOTEN  =        -7.20831933 eV

  energy without entropy =       -7.20831933  energy(sigma->0) =       -7.20831933


--------------------------------------------------------------------------------------------------------




--------------------------------------- Iteration      1(   5)  ---------------------------------------


     EDDAV:  cpu time      0.0762: real time      0.0766
       DOS:  cpu time      0.0001: real time      0.0001
    CHARGE:  cpu time      0.0029: real time      0.0029
    MIXING:  cpu time      0.0009: real time      0.0010
    --------------------------------------------
      LOOP:  cpu time      0.0802: real time      0.0807

 eigenvalue-minimisations  :  1000
 total energy-change (2. order) :-0.2169590E-03  (-0.2169578E-03)
 number of electron      16.0000005 magnetization 
 augmentation part       -2.9470085 magnetization 

 Broyden mixing:
  rms(total) = 0.21039E+00    rms(broyden)= 0.21032E+00
  rms(prec ) = 0.72032E+00
  weight for this iteration     100.00

 Free energy of the ion-electron system (eV)
  ---------------------------------------------------
  alpha Z        PSCENC =        51.70241373
  Ewald energy   TEWEN  =      -816.46309400
  -Hartree energ DENC   =      -132.45706976
  -exchange      EXHF   =         0.00000000
  -V(xc)+E(xc)   XCENC  =        31.31546299
  PAW double counting   =       749.47380581     -742.20009777
  entropy T*S    EENTRO =        -0.00000000
  eigenvalues    EBANDS =      -113.02309813
  atomic energy  EATOM  =       964.44314085
  Solvation  Ediel_sol  =         0.00000000
  ---------------------------------------------------
  free energy    TOTEN  =        -7.20853628 eV

  energy without entropy =       -7.20853628  energy(sigma->0) =       -7.20853628


--------------------------------------------------------------------------------------------------------




--------------------------------------- Iteration      1(   6)  ---------------------------------------


    POTLOK:  cpu time      0.0037: real time      0.0039
    SETDIJ:  cpu time      0.0430: real time      0.0430
     EDDAV:  cpu time      0.0738: real time      0.0741
       DOS:  cpu time      0.0001: real time      0.0001
    CHARGE:  cpu time      0.0019: real time      0.0019
    MIXING:  cpu time      0.0007: real time      0.0367
    --------------------------------------------
      LOOP:  cpu time      0.1232: real time      0.1597

 eigenvalue-minimisations  :  1030
 total energy-change (2. order) : 0.3212845E+00  (-0.3993000E-01)
 number of electron      16.0000005 magnetization 
 augmentation part       -2.9419444 magnetization 

 Broyden mixing:
  rms(total) = 0.13487E+00    rms(broyden)= 0.13486E+00
  rms(prec ) = 0.31278E+00
  weight for this iteration     100.00

 eigenvalues of (default mixing * dielectric matrix)
  average eigenvalue GAMMA=   0.9522
  0.9522

 Free energy of the ion-electron system (eV)
  ---------------------------------------------------
  alpha Z        PSCENC =        51.70241373
  Ewald energy   TEWEN  =      -816.46309400
  -Hartree energ DENC   =      -135.97124844
  -exchange      EXHF   =         0.00000000
  -V(xc)+E(xc)   XCENC  =        31.61701784
  PAW double counting   =       781.25851947     -774.11378249
  entropy T*S    EENTRO =        -0.00000000
  eigenvalues    EBANDS =      -109.36021874
  atomic energy  EATOM  =       964.44314085
  Solvation  Ediel_sol  =         0.00000000
  ---------------------------------------------------
  free energy    TOTEN  =        -6.88725179 eV

  energy without entropy =       -6.88725179  energy(sigma->0) =       -6.88725179


--------------------------------------------------------------------------------------------------------




--------------------------------------- Iteration      1(   7)  ---------------------------------------


    POTLOK:  cpu time      0.0061: real time      0.0066
    SETDIJ:  cpu time      0.0412: real time      0.0412
     EDDAV:  cpu time      0.0790: real time      0.0792
       DOS:  cpu time      0.0001: real time      0.0001
    CHARGE:  cpu time      0.0019: real time      0.0020
    MIXING:  cpu time      0.0004: real time      0.0121
    --------------------------------------------
      LOOP:  cpu time      0.1286: real time      0.1412

 eigenvalue-minimisations  :  1080
 total energy-change (2. order) : 0.4117053E-01  (-0.1099240E-01)
 number of electron      16.0000006 magnetization 
 augmentation part       -2.9452147 magnetization 

 Broyden mixing:
  rms(total) = 0.96463E-01    rms(broyden)= 0.96460E-01
  rms(prec ) = 0.15224E+00
  weight for this iteration     100.00

 eigenvalues of (default mixing * dielectric matrix)
  average eigenvalue GAMMA=   2.0360
  1.4292  2.6427

 Free energy of the ion-electron system (eV)
  ---------------------------------------------------
  alpha Z        PSCENC =        51.70241373
  Ewald energy   TEWEN  =      -816.46309400
  -Hartree energ DENC   =      -137.17543739
  -exchange      EXHF   =         0.00000000
  -V(xc)+E(xc)   XCENC  =        31.75255549
  PAW double counting   =       815.59324545     -808.53632300
  entropy T*S    EENTRO =        -0.00000000
  eigenvalues    EBANDS =      -108.16258238
  atomic energy  EATOM  =       964.44314085
  Solvation  Ediel_sol  =         0.00000000
  ---------------------------------------------------
  free energy    TOTEN  =        -6.84608126 eV

  energy without entropy =       -6.84608126  energy(sigma->0) =       -6.84608126


--------------------------------------------------------------------------------------------------------




--------------------------------------- Iteration      1(   8)  ---------------------------------------


    POTLOK:  cpu time      0.0038: real time      0.0040
    SETDIJ:  cpu time      0.0411: real time      0.0412
     EDDAV:  cpu time      0.0685: real time      0.0687
       DOS:  cpu time      0.0001: real time      0.0001
    CHARGE:  cpu time      0.0019: real time      0.0019
    MIXING:  cpu time      0.0002: real time      0.0002
    --------------------------------------------
      LOOP:  cpu time      0.1155: real time      0.1160

 eigenvalue-minimisations  :   960
 total energy-change (2. order) : 0.1413938E-02  (-0.2019309E-02)
 number of electron      16.0000006 magnetization 
 augmentation part       -2.9534726 magnetization 

 Broyden mixing:
  rms(total) = 0.32357E-01    rms(broyden)= 0.32357E-01
  rms(prec ) = 0.47224E-01
  weight for this iteration     100.00

 eigenvalues of (default mixing * dielectric matrix)
  average eigenvalue GAMMA=   1.5120
  2.1394  1.0957  1.3010

 Free energy of the ion-electron system (eV)
  ---------------------------------------------------
  alpha Z        PSCENC =        51.70241373
  Ewald energy   TEWEN  =      -816.46309400
  -Hartree energ DENC   =      -136.63367261
  -exchange      EXHF   =         0.00000000
  -V(xc)+E(xc)   XCENC  =        31.76047554
  PAW double counting   =       856.12462767     -849.13513814
  entropy T*S    EENTRO =        -0.00000000
  eigenvalues    EBANDS =      -108.64342036
  atomic energy  EATOM  =       964.44314085
  Solvation  Ediel_sol  =         0.00000000
  ---------------------------------------------------
  free energy    TOTEN  =        -6.84466732 eV

  energy without entropy =       -6.84466732  energy(sigma->0) =       -6.84466732


--------------------------------------------------------------------------------------------------------




--------------------------------------- Iteration      1(   9)  ---------------------------------------


    POTLOK:  cpu time      0.0036: real time      0.0038
    SETDIJ:  cpu time      0.0403: real time      0.0404
     EDDAV:  cpu time      0.0809: real time      0.0812
       DOS:  cpu time      0.0001: real time      0.0001
    CHARGE:  cpu time      0.0021: real time      0.0021
    MIXING:  cpu time      0.0003: real time      0.0160
    --------------------------------------------
      LOOP:  cpu time      0.1274: real time      0.1436

 eigenvalue-minimisations  :  1080
 total energy-change (2. order) : 0.6823150E-03  (-0.2519127E-03)
 number of electron      16.0000006 magnetization 
 augmentation part       -2.9523794 magnetization 

 Broyden mixing:
  rms(total) = 0.10846E-01    rms(broyden)= 0.10845E-01
  rms(prec ) = 0.16673E-01
  weight for this iteration     100.00

 eigenvalues of (default mixing * dielectric matrix)
  average eigenvalue GAMMA=   1.9047
  2.6834  2.6834  1.0231  1.2287

 Free energy of the ion-electron system (eV)
  ---------------------------------------------------
  alpha Z        PSCENC =        51.70241373
  Ewald energy   TEWEN  =      -816.46309400
  -Hartree energ DENC   =      -136.97965399
  -exchange      EXHF   =         0.00000000
  -V(xc)+E(xc)   XCENC  =        31.78340625
  PAW double counting   =       851.64946911     -844.67045445
  entropy T*S    EENTRO =        -0.00000000
  eigenvalues    EBANDS =      -108.30921250
  atomic energy  EATOM  =       964.44314085
  Solvation  Ediel_sol  =         0.00000000
  ---------------------------------------------------
  free energy    TOTEN  =        -6.84398500 eV

  energy without entropy =       -6.84398500  energy(sigma->0) =       -6.84398500


--------------------------------------------------------------------------------------------------------




--------------------------------------- Iteration      1(  10)  ---------------------------------------


    POTLOK:  cpu time      0.0038: real time      0.0040
    SETDIJ:  cpu time      0.0404: real time      0.0405
     EDDAV:  cpu time      0.0664: real time      0.0667
       DOS:  cpu time      0.0001: real time      0.0001
    CHARGE:  cpu time      0.0018: real time      0.0018
    MIXING:  cpu time      0.0002: real time      0.0002
    --------------------------------------------
      LOOP:  cpu time      0.1128: real time      0.1133

 eigenvalue-minimisations  :   910
 total energy-change (2. order) :-0.1860281E-03  (-0.4162637E-04)
 number of electron      16.0000006 magnetization 
 augmentation part       -2.9509122 magnetization 

 Broyden mixing:
  rms(total) = 0.22037E-02    rms(broyden)= 0.22034E-02
  rms(prec ) = 0.36907E-02
  weight for this iteration     100.00

 eigenvalues of (default mixing * dielectric matrix)
  average eigenvalue GAMMA=   1.6341
  2.7819  2.4261  1.1323  1.1323  0.6979

 Free energy of the ion-electron system (eV)
  ---------------------------------------------------
  alpha Z        PSCENC =        51.70241373
  Ewald energy   TEWEN  =      -816.46309400
  -Hartree energ DENC   =      -137.12339780
  -exchange      EXHF   =         0.00000000
  -V(xc)+E(xc)   XCENC  =        31.79462381
  PAW double counting   =       848.51852476     -841.55769214
  entropy T*S    EENTRO =        -0.00000000
  eigenvalues    EBANDS =      -108.15869024
  atomic energy  EATOM  =       964.44314085
  Solvation  Ediel_sol  =         0.00000000
  ---------------------------------------------------
  free energy    TOTEN  =        -6.84417103 eV

  energy without entropy =       -6.84417103  energy(sigma->0) =       -6.84417103


--------------------------------------------------------------------------------------------------------




--------------------------------------- Iteration      1(  11)  ---------------------------------------


    POTLOK:  cpu time      0.0037: real time      0.0039
    SETDIJ:  cpu time      0.0405: real time      0.0406
     EDDAV:  cpu time      0.0812: real time      0.0816
       DOS:  cpu time      0.0001: real time      0.0001
    CHARGE:  cpu time      0.0021: real time      0.0021
    MIXING:  cpu time      0.0002: real time      0.0002
    --------------------------------------------
      LOOP:  cpu time      0.1278: real time      0.1285

 eigenvalue-minimisations  :  1110
 total energy-change (2. order) : 0.7783994E-05  (-0.1069391E-05)
 number of electron      16.0000006 magnetization 
 augmentation part       -2.9511572 magnetization 

 Broyden mixing:
  rms(total) = 0.99158E-03    rms(broyden)= 0.99158E-03
  rms(prec ) = 0.17897E-02
  weight for this iteration     100.00

 eigenvalues of (default mixing * dielectric matrix)
  average eigenvalue GAMMA=   1.7440
  3.0098  2.4405  1.5545  0.9842  1.2376  1.2376

 Free energy of the ion-electron system (eV)
  ---------------------------------------------------
  alpha Z        PSCENC =        51.70241373
  Ewald energy   TEWEN  =      -816.46309400
  -Hartree energ DENC   =      -137.09254493
  -exchange      EXHF   =         0.00000000
  -V(xc)+E(xc)   XCENC  =        31.79293063
  PAW double counting   =       849.16433564     -842.20102549
  entropy T*S    EENTRO =        -0.00000000
  eigenvalues    EBANDS =      -108.19031968
  atomic energy  EATOM  =       964.44314085
  Solvation  Ediel_sol  =         0.00000000
  ---------------------------------------------------
  free energy    TOTEN  =        -6.84416325 eV

  energy without entropy =       -6.84416325  energy(sigma->0) =       -6.84416325


--------------------------------------------------------------------------------------------------------




--------------------------------------- Iteration      1(  12)  ---------------------------------------


    POTLOK:  cpu time      0.0037: real time      0.0038
    SETDIJ:  cpu time      0.0407: real time      0.0408
     EDDAV:  cpu time      0.0700: real time      0.0702
       DOS:  cpu time      0.0001: real time      0.0001
    CHARGE:  cpu time      0.0018: real time      0.0018
    MIXING:  cpu time      0.0002: real time      0.0002
    --------------------------------------------
      LOOP:  cpu time      0.1165: real time      0.1170

 eigenvalue-minimisations  :   980
 total energy-change (2. order) :-0.7090738E-06  (-0.6319610E-06)
 number of electron      16.0000006 magnetization 
 augmentation part       -2.9513406 magnetization 

 Broyden mixing:
  rms(total) = 0.23623E-03    rms(broyden)= 0.23622E-03
  rms(prec ) = 0.36006E-03
  weight for this iteration     100.00

 eigenvalues of (default mixing * dielectric matrix)
  average eigenvalue GAMMA=   1.6496
  2.9484  2.5105  1.7571  1.2092  1.2092  0.8618  1.0507

 Free energy of the ion-electron system (eV)
  ---------------------------------------------------
  alpha Z        PSCENC =        51.70241373
  Ewald energy   TEWEN  =      -816.46309400
  -Hartree energ DENC   =      -137.08649491
  -exchange      EXHF   =         0.00000000
  -V(xc)+E(xc)   XCENC  =        31.79296645
  PAW double counting   =       849.20612769     -842.24040992
  entropy T*S    EENTRO =        -0.00000000
  eigenvalues    EBANDS =      -108.19881385
  atomic energy  EATOM  =       964.44314085
  Solvation  Ediel_sol  =         0.00000000
  ---------------------------------------------------
  free energy    TOTEN  =        -6.84416396 eV

  energy without entropy =       -6.84416396  energy(sigma->0) =       -6.84416396


--------------------------------------------------------------------------------------------------------




--------------------------------------- Iteration      1(  13)  ---------------------------------------


    POTLOK:  cpu time      0.0036: real time      0.0039
    SETDIJ:  cpu time      0.0405: real time      0.0406
     EDDAV:  cpu time      0.0791: real time      0.0795
       DOS:  cpu time      0.0001: real time      0.0001
    --------------------------------------------
      LOOP:  cpu time      0.1234: real time      0.1241

 eigenvalue-minimisations  :  1080
 total energy-change (2. order) : 0.8064831E-07  (-0.3560124E-07)
 number of electron      16.0000006 magnetization 
 augmentation part       -2.9513406 magnetization 

 Free energy of the ion-electron system (eV)
  ---------------------------------------------------
  alpha Z        PSCENC =        51.70241373
  Ewald energy   TEWEN  =      -816.46309400
  -Hartree energ DENC   =      -137.08345780
  -exchange      EXHF   =         0.00000000
  -V(xc)+E(xc)   XCENC  =        31.79278767
  PAW double counting   =       849.22969522     -842.26365042
  entropy T*S    EENTRO =        -0.00000000
  eigenvalues    EBANDS =      -108.20199913
  atomic energy  EATOM  =       964.44314085
  Solvation  Ediel_sol  =         0.00000000
  ---------------------------------------------------
  free energy    TOTEN  =        -6.84416388 eV

  energy without entropy =       -6.84416388  energy(sigma->0) =       -6.84416388


--------------------------------------------------------------------------------------------------------




 average (electrostatic) potential at core
  the test charge radii are     1.1312  0.9406
  (the norm of the test charge is              1.0000)
       1 -49.3477       2 -93.1037
 
 
 
 E-fermi :   0.0962     XC(G=0):  -8.2723     alpha+bet : -8.4746

 val. band max:       -0.3959942410   @ k =   0.0625   0.0625   0.0625
 cond. band min:       4.9009676300   @ k =   0.0625   0.0625   0.0625
 fundamental gap:      5.2969618710
 Fermi energy:         0.0962436016

 k-point     1 :       0.0625    0.0625    0.0625
  band No.  band energies     occupation 
      1     -19.7459      2.00000
      2     -12.5010      2.00000
      3      -6.2598      2.00000
      4      -6.2598      2.00000
      5      -6.2201      2.00000
      6      -0.5039      2.00000
      7      -0.3960      2.00000
      8      -0.3960      2.00000
      9       4.9010      0.00000
     10       5.0954      0.00000
     11       5.0954      0.00000
     12       9.4088      0.00000
     13       9.4088      0.00000
     14       9.7393      0.00000
     15      12.4058      0.00000
     16      12.4058      0.00000
     17      13.6572      0.00000
     18      14.5769      0.00000
     19      14.5769      0.00000
     20      15.1708      0.00000

 k-point     2 :       0.1875    0.0625    0.0625
  band No.  band energies     occupation 
      1     -19.7252      2.00000
      2     -12.5077      2.00000
      3      -6.4200      2.00000
      4      -6.2222      2.00000
      5      -6.1972      2.00000
      6      -0.8150      2.00000
      7      -0.4598      2.00000
      8      -0.4488      2.00000
      9       5.2929      0.00000
     10       5.4956      0.00000
     11       5.8134      0.00000
     12       9.1049      0.00000
     13       9.1213      0.00000
     14       9.8824      0.00000
     15      11.2728      0.00000
     16      12.6153      0.00000
     17      12.8820      0.00000
     18      13.3655      0.00000
     19      14.4154      0.00000
     20      15.9212      0.00000

 k-point     3 :       0.3125    0.0625    0.0625
  band No.  band energies     occupation 
      1     -19.6956      2.00000
      2     -12.5189      2.00000
      3      -6.6254      2.00000
      4      -6.1675      2.00000
      5      -6.1649      2.00000
      6      -1.2043      2.00000
      7      -0.5533      2.00000
      8      -0.5118      2.00000
      9       5.6423      0.00000
     10       6.2980      0.00000
     11       6.9995      0.00000
     12       8.7819      0.00000
     13       8.9478      0.00000
     14       9.8870      0.00000
     15      10.1711      0.00000
     16      12.0587      0.00000
     17      12.3475      0.00000
     18      13.0327      0.00000
     19      14.2983      0.00000
     20      14.9671      0.00000

 k-point     4 :       0.4375    0.0625    0.0625
  band No.  band energies     occupation 
      1     -19.6744      2.00000
      2     -12.5282      2.00000
      3      -6.7574      2.00000
      4      -6.1427      2.00000
      5      -6.1276      2.00000
      6      -1.4462      2.00000
      7      -0.6218      2.00000
      8      -0.5599      2.00000
      9       5.9835      0.00000
     10       6.9459      0.00000
     11       7.7665      0.00000
     12       8.4666      0.00000
     13       9.1966      0.00000
     14       9.5931      0.00000
     15       9.8146      0.00000
     16      11.7687      0.00000
     17      12.0524      0.00000
     18      12.7692      0.00000
     19      13.9754      0.00000
     20      14.4671      0.00000

 k-point     5 :       0.1875    0.1875    0.0625
  band No.  band energies     occupation 
      1     -19.7053      2.00000
      2     -12.5034      2.00000
      3      -6.4808      2.00000
      4      -6.3336      2.00000
      5      -6.1799      2.00000
      6      -0.9197      2.00000
      7      -0.5477      2.00000
      8      -0.4902      2.00000
      9       5.6291      0.00000
     10       5.9783      0.00000
     11       6.2200      0.00000
     12       8.6750      0.00000
     13       8.7622      0.00000
     14       9.6950      0.00000
     15      11.6322      0.00000
     16      12.3268      0.00000
     17      12.3626      0.00000
     18      12.9886      0.00000
     19      14.8655      0.00000
     20      16.2157      0.00000

 k-point     6 :       0.3125    0.1875    0.0625
  band No.  band energies     occupation 
      1     -19.6768      2.00000
      2     -12.4987      2.00000
      3      -6.6716      2.00000
      4      -6.3796      2.00000
      5      -6.1404      2.00000
      6      -1.1178      2.00000
      7      -0.6369      2.00000
      8      -0.5145      2.00000
      9       5.9137      0.00000
     10       6.4612      0.00000
     11       7.1736      0.00000
     12       8.3750      0.00000
     13       8.6944      0.00000
     14       9.2143      0.00000
     15      10.9259      0.00000
     16      11.8960      0.00000
     17      13.0500      0.00000
     18      13.0947      0.00000
     19      14.7169      0.00000
     20      16.2196      0.00000

 k-point     7 :       0.4375    0.1875    0.0625
  band No.  band energies     occupation 
      1     -19.6564      2.00000
      2     -12.4964      2.00000
      3      -6.8120      2.00000
      4      -6.3980      2.00000
      5      -6.1087      2.00000
      6      -1.2528      2.00000
      7      -0.7061      2.00000
      8      -0.5207      2.00000
      9       6.1171      0.00000
     10       6.8174      0.00000
     11       7.4214      0.00000
     12       8.2869      0.00000
     13       8.8949      0.00000
     14       9.3773      0.00000
     15      10.6056      0.00000
     16      11.6828      0.00000
     17      12.8672      0.00000
     18      13.7133      0.00000
     19      14.5695      0.00000
     20      15.2559      0.00000

 k-point     8 :       0.3125    0.3125    0.0625
  band No.  band energies     occupation 
      1     -19.6499      2.00000
      2     -12.4703      2.00000
      3      -6.7690      2.00000
      4      -6.6239      2.00000
      5      -6.1016      2.00000
      6      -1.0501      2.00000
      7      -0.7129      2.00000
      8      -0.5128      2.00000
      9       5.8858      0.00000
     10       6.3806      0.00000
     11       7.9579      0.00000
     12       8.1261      0.00000
     13       8.5475      0.00000
     14       9.0470      0.00000
     15      11.0583      0.00000
     16      12.4707      0.00000
     17      12.8100      0.00000
     18      14.1706      0.00000
     19      15.2130      0.00000
     20      16.5787      0.00000

 k-point     9 :       0.4375    0.3125    0.0625
  band No.  band energies     occupation 
      1     -19.6307      2.00000
      2     -12.4504      2.00000
      3      -6.8934      2.00000
      4      -6.7272      2.00000
      5      -6.0726      2.00000
      6      -1.0179      2.00000
      7      -0.7761      2.00000
      8      -0.4890      2.00000
      9       5.8399      0.00000
     10       6.1336      0.00000
     11       7.8429      0.00000
     12       8.0711      0.00000
     13       8.7667      0.00000
     14      10.0856      0.00000
     15      11.3411      0.00000
     16      12.3033      0.00000
     17      12.9117      0.00000
     18      15.1168      0.00000
     19      15.3904      0.00000
     20      15.7063      0.00000

 k-point    10 :       0.4375    0.4375    0.0625
  band No.  band energies     occupation 
      1     -19.6123      2.00000
      2     -12.4171      2.00000
      3      -6.9581      2.00000
      4      -6.9343      2.00000
      5      -6.0466      2.00000
      6      -0.8701      2.00000
      7      -0.8094      2.00000
      8      -0.4678      2.00000
      9       5.6072      0.00000
     10       5.7155      0.00000
     11       7.5728      0.00000
     12       7.6629      0.00000
     13      10.3677      0.00000
     14      10.7366      0.00000
     15      12.0153      0.00000
     16      12.3616      0.00000
     17      13.3611      0.00000
     18      14.2095      0.00000
     19      15.2414      0.00000
     20      15.9884      0.00000

 k-point    11 :       0.1875    0.1875    0.1875
  band No.  band energies     occupation 
      1     -19.6860      2.00000
      2     -12.4922      2.00000
      3      -6.4359      2.00000
      4      -6.4359      2.00000
      5      -6.3038      2.00000
      6      -0.8627      2.00000
      7      -0.6403      2.00000
      8      -0.6403      2.00000
      9       6.3560      0.00000
     10       6.3560      0.00000
     11       6.3615      0.00000
     12       8.3917      0.00000
     13       8.3917      0.00000
     14       8.8350      0.00000
     15      12.3987      0.00000
     16      12.3987      0.00000
     17      12.9072      0.00000
     18      13.6833      0.00000
     19      13.6833      0.00000
     20      15.9728      0.00000

 k-point    12 :       0.3125    0.1875    0.1875
  band No.  band energies     occupation 
      1     -19.6584      2.00000
      2     -12.4772      2.00000
      3      -6.6711      2.00000
      4      -6.3700      2.00000
      5      -6.3649      2.00000
      6      -1.0065      2.00000
      7      -0.7752      2.00000
      8      -0.6051      2.00000
      9       6.5799      0.00000
     10       6.6839      0.00000
     11       7.2585      0.00000
     12       8.1191      0.00000
     13       8.3701      0.00000
     14       8.4263      0.00000
     15      11.8591      0.00000
     16      12.8085      0.00000
     17      13.0628      0.00000
     18      13.4141      0.00000
     19      14.2554      0.00000
     20      16.9606      0.00000

 k-point    13 :       0.4375    0.1875    0.1875
  band No.  band energies     occupation 
      1     -19.6387      2.00000
      2     -12.4673      2.00000
      3      -6.8321      2.00000
      4      -6.4000      2.00000
      5      -6.3217      2.00000
      6      -1.1485      2.00000
      7      -0.8733      2.00000
      8      -0.5257      2.00000
      9       6.7382      0.00000
     10       6.7724      0.00000
     11       7.1254      0.00000
     12       7.9759      0.00000
     13       8.5946      0.00000
     14       9.6190      0.00000
     15      11.3694      0.00000
     16      12.3222      0.00000
     17      12.4939      0.00000
     18      14.3661      0.00000
     19      14.5735      0.00000
     20      16.2112      0.00000

 k-point    14 :       0.3125    0.3125    0.1875
  band No.  band energies     occupation 
      1     -19.6322      2.00000
      2     -12.4468      2.00000
      3      -6.7150      2.00000
      4      -6.6282      2.00000
      5      -6.3355      2.00000
      6      -1.0119      2.00000
      7      -0.8527      2.00000
      8      -0.6872      2.00000
      9       6.6693      0.00000
     10       6.7883      0.00000
     11       7.8470      0.00000
     12       7.9587      0.00000
     13       8.1729      0.00000
     14       8.6378      0.00000
     15      12.2974      0.00000
     16      12.9375      0.00000
     17      12.9443      0.00000
     18      14.3112      0.00000
     19      14.9421      0.00000
     20      16.6069      0.00000

 k-point    15 :       0.4375    0.3125    0.1875
  band No.  band energies     occupation 
      1     -19.6134      2.00000
      2     -12.4253      2.00000
      3      -6.8662      2.00000
      4      -6.6849      2.00000
      5      -6.3039      2.00000
      6      -1.0637      2.00000
      7      -0.9753      2.00000
      8      -0.6269      2.00000
      9       6.4694      0.00000
     10       6.6135      0.00000
     11       7.7409      0.00000
     12       7.8554      0.00000
     13       8.7781      0.00000
     14       9.9309      0.00000
     15      12.1317      0.00000
     16      12.6658      0.00000
     17      12.8437      0.00000
     18      14.9282      0.00000
     19      15.3895      0.00000
     20      16.2115      0.00000

 k-point    16 :       0.4375    0.4375    0.1875
  band No.  band energies     occupation 
      1     -19.5953      2.00000
      2     -12.3950      2.00000
      3      -6.8986      2.00000
      4      -6.8844      2.00000
      5      -6.2678      2.00000
      6      -1.0389      2.00000
      7      -0.9843      2.00000
      8      -0.7387      2.00000
      9       6.2872      0.00000
     10       6.4432      0.00000
     11       7.6255      0.00000
     12       7.7029      0.00000
     13      10.2207      0.00000
     14      10.4293      0.00000
     15      12.3693      0.00000
     16      12.3751      0.00000
     17      13.7489      0.00000
     18      14.8281      0.00000
     19      15.7364      0.00000
     20      16.0005      0.00000

 k-point    17 :       0.3125    0.3125    0.3125
  band No.  band energies     occupation 
      1     -19.6068      2.00000
      2     -12.4133      2.00000
      3      -6.6384      2.00000
      4      -6.6353      2.00000
      5      -6.6353      2.00000
      6      -1.0525      2.00000
      7      -1.0525      2.00000
      8      -0.8302      2.00000
      9       6.8810      0.00000
     10       7.8115      0.00000
     11       7.8115      0.00000
     12       8.1860      0.00000
     13       8.1860      0.00000
     14       8.2700      0.00000
     15      13.0905      0.00000
     16      13.0905      0.00000
     17      13.8026      0.00000
     18      13.8026      0.00000
     19      15.7361      0.00000
     20      16.0457      0.00000

 k-point    18 :       0.4375    0.3125    0.3125
  band No.  band energies     occupation 
      1     -19.5887      2.00000
      2     -12.3892      2.00000
      3      -6.8320      2.00000
      4      -6.6462      2.00000
      5      -6.5761      2.00000
      6      -1.1955      2.00000
      7      -1.1447      2.00000
      8      -0.8631      2.00000
      9       6.8156      0.00000
     10       7.4661      0.00000
     11       7.8788      0.00000
     12       8.1340      0.00000
     13       8.6619      0.00000
     14       9.8077      0.00000
     15      12.5246      0.00000
     16      12.8787      0.00000
     17      13.6504      0.00000
     18      15.0212      0.00000
     19      15.8427      0.00000
     20      16.2637      0.00000

 k-point    19 :       0.4375    0.4375    0.3125
  band No.  band energies     occupation 
      1     -19.5711      2.00000
      2     -12.3633      2.00000
      3      -6.8112      2.00000
      4      -6.8102      2.00000
      5      -6.5570      2.00000
      6      -1.2724      2.00000
      7      -1.2305      2.00000
      8      -1.0776      2.00000
      9       7.0586      0.00000
     10       7.6775      0.00000
     11       7.7683      0.00000
     12       8.1178      0.00000
     13       9.9215      0.00000
     14       9.9634      0.00000
     15      12.3270      0.00000
     16      12.6278      0.00000
     17      14.6605      0.00000
     18      15.5900      0.00000
     19      15.5989      0.00000
     20      16.5077      0.00000

 k-point    20 :       0.4375    0.4375    0.4375
  band No.  band energies     occupation 
      1     -19.5538      2.00000
      2     -12.3405      2.00000
      3      -6.7610      2.00000
      4      -6.7441      2.00000
      5      -6.7441      2.00000
      6      -1.4043      2.00000
      7      -1.4043      2.00000
      8      -1.3252      2.00000
      9       7.6229      0.00000
     10       7.9395      0.00000
     11       7.9395      0.00000
     12       9.6235      0.00000
     13       9.6235      0.00000
     14       9.6906      0.00000
     15      12.3076      0.00000
     16      12.3076      0.00000
     17      14.8924      0.00000
     18      15.6535      0.00000
     19      15.8681      0.00000
     20      15.8681      0.00000


--------------------------------------------------------------------------------------------------------


 soft charge-density along one line, spin component           1
         0         1         2         3         4         5         6         7         8         9
 total charge-density along one line
 
 pseudopotential strength for first ion, spin component:           1
 17.750  -4.668  -0.000  -0.000  -0.000   0.000   0.000   0.000
 -4.668   1.231   0.000   0.000   0.000  -0.000  -0.000  -0.000
 -0.000   0.000   1.943   0.000  -0.000  -2.322  -0.000   0.000
 -0.000   0.000   0.000   1.943  -0.000  -0.000  -2.322   0.000
 -0.000   0.000  -0.000  -0.000   1.943   0.000   0.000  -2.322
  0.000  -0.000  -2.322  -0.000   0.000   2.724   0.000  -0.000
  0.000  -0.000  -0.000  -2.322   0.000   0.000   2.724  -0.000
  0.000  -0.000   0.000   0.000  -2.322  -0.000  -0.000   2.724
 -0.000   0.000  -0.000  -0.000  -0.000   0.000   0.000   0.000
  0.000  -0.000  -0.000  -0.000  -0.000   0.000   0.000   0.000
 -0.000  -0.000   0.000  -0.000   0.000  -0.000   0.000  -0.000
 -0.000   0.000  -0.000  -0.000  -0.000   0.000   0.000   0.000
  0.000   0.000   0.000   0.000   0.000  -0.000  -0.000   0.000
 total augmentation occupancy for first ion, spin component:           1
  2.274   0.547   0.000   0.000   0.000   0.000   0.000   0.000   0.000  -0.000  -0.000   0.000   0.000
  0.547   0.321   0.000   0.000   0.000   0.000   0.000   0.000   0.000   0.000   0.000   0.000   0.000
  0.000   0.000   1.993   0.000   0.000  -0.000  -0.000   0.000   0.000   0.000   0.000   0.000   0.000
  0.000   0.000   0.000   1.993   0.000   0.000  -0.000   0.000   0.000   0.000   0.000   0.000   0.000
  0.000   0.000   0.000   0.000   1.993  -0.000   0.000  -0.000   0.000   0.000   0.000   0.000   0.000
  0.000   0.000  -0.000   0.000   0.000   0.013  -0.000   0.000   0.000   0.000   0.000   0.000   0.000
  0.000   0.000   0.000  -0.000  -0.000  -0.000   0.013  -0.000   0.000   0.000   0.000   0.000   0.000
  0.000   0.000   0.000  -0.000  -0.000   0.000  -0.000   0.013   0.000   0.000   0.000   0.000   0.000
  0.000   0.000   0.000   0.000   0.000   0.000   0.000   0.000   0.012  -0.000   0.000   0.000   0.000
  0.000  -0.000   0.000   0.000   0.000   0.000   0.000   0.000  -0.000   0.012   0.000  -0.000  -0.000
 -0.000  -0.000   0.000   0.000   0.000   0.000   0.000   0.000   0.000   0.000   0.002  -0.000  -0.000
  0.000   0.000   0.000   0.000   0.000   0.000   0.000   0.000   0.000  -0.000  -0.000   0.012  -0.000
  0.000   0.000   0.000   0.000   0.000   0.000   0.000   0.000  -0.000   0.000   0.000   0.000   0.002


------------------------ aborting loop because EDIFF is reached ----------------------------------------





 total charge

# of ion       s       p       d       tot
------------------------------------------
    1        1.957   4.697   0.030   6.684
    2        1.580   3.512   0.000   5.092
--------------------------------------------------
tot          3.538   8.208   0.030  11.776
 
    CHARGE:  cpu time      0.0019: real time      0.0019
    FORLOC:  cpu time      0.0002: real time      0.0002
    FORNL :  cpu time      0.0023: real time      0.0023
    STRESS:  cpu time      0.0290: real time      0.0291
    FORCOR:  cpu time      0.0024: real time      0.0024
    FORHAR:  cpu time      0.0006: real time      0.0006
    MIXING:  cpu time      0.0002: real time      0.0002
    OFIELD:  cpu time      0.0001: real time      0.0001

  FORCE on cell =-STRESS in cart. coord.  units (eV):
  Direction    XX          YY          ZZ          XY          YZ          ZX
  --------------------------------------------------------------------------------------
  Alpha Z    51.70241    51.70241    51.70241
  Ewald    -272.15434  -272.15434  -272.15434     0.00000    -0.00000    -0.00000
  Hartree    45.69455    45.69455    45.69455    -0.00000    -0.00000    -0.00000
  E(xc)     -58.88395   -58.88395   -58.88395    -0.00000    -0.00000    -0.00000
  Local     -62.17499   -62.17499   -62.17499    -0.00000     0.00000    -0.00000
  n-local    90.08625    90.97855    91.58972    -0.22929     0.22034    -0.01747
  augment   -33.96233   -33.96233   -33.96233     0.00000     0.00000     0.00000
  Kinetic   232.59348   238.65683   244.32378    -0.94213     1.31361     0.13178
  Fock        0.00000     0.00000     0.00000     0.00000     0.00000     0.00000
  -------------------------------------------------------------------------------------
  Total      -0.36911    -0.36911    -0.36911    -0.00000     0.00000    -0.00000
  in kB      -8.31188    -8.31188    -8.31188    -0.00000     0.00000    -0.00000
  external pressure =       -8.31 kB  Pullay stress =        0.00 kB


 VOLUME and BASIS-vectors are now :
 -----------------------------------------------------------------------------
  energy-cutoff  :      341.21
  volume of cell :       71.15
      direct lattice vectors                 reciprocal lattice vectors
     4.143698340  0.000000000  0.000000000     0.241330309  0.000000000  0.000000000
     0.000000000  4.143698340  0.000000000     0.000000000  0.241330309  0.000000000
     0.000000000  0.000000000  4.143698340     0.000000000  0.000000000  0.241330309

  length of vectors
     4.143698340  4.143698340  4.143698340     0.241330309  0.241330309  0.241330309


 FORCES acting on ions
    electron-ion (+dipol)            ewald-force                    non-local-force                 convergence-correction
 -----------------------------------------------------------------------------------------------
   -.443E-14 -.242E-14 0.249E-14   -.262E-14 -.132E-14 -.819E-15   0.102E-24 0.107E-24 0.111E-24   0.351E-13 0.221E-14 0.136E-13
   0.998E-13 0.652E-12 0.212E-12   0.296E-14 0.116E-14 0.871E-15   0.189E-25 0.253E-25 0.340E-25   -.350E-13 0.107E-13 -.239E-13
 -----------------------------------------------------------------------------------------------
   0.954E-13 0.649E-12 0.214E-12   0.338E-15 -.162E-15 0.520E-16   0.121E-24 0.132E-24 0.145E-24   0.119E-15 0.129E-13 -.103E-13
 
 
 POSITION                                       TOTAL-FORCE (eV/Angst)
 -----------------------------------------------------------------------------------
      0.00000      0.00000      0.00000        -0.000000      0.000000     -0.000000
      2.07185      2.07185      2.07185         0.000000     -0.000000      0.000000
 -----------------------------------------------------------------------------------
    total drift:                                0.000000      0.000000      0.000000


--------------------------------------------------------------------------------------------------------



  FREE ENERGIE OF THE ION-ELECTRON SYSTEM (eV)
  ---------------------------------------------------
  free  energy   TOTEN  =        -6.84416388 eV

  energy  without entropy=       -6.84416388  energy(sigma->0) =       -6.84416388
 


[...]
     20      16.8769      0.00000

 k-point     7 :       0.4375    0.1875    0.0625
  band No.  band energies     occupation 
      1     -19.3019      2.00000
      2     -12.3086      2.00000
      3      -6.5107      2.00000
      4      -6.0551      2.00000
      5      -5.7162      2.00000
      6      -1.0475      2.00000
      7      -0.4841      2.00000
      8      -0.2801      2.00000
      9       6.4481      0.00000
     10       7.2282      0.00000
     11       7.8798      0.00000
     12       8.6809      0.00000
     13       9.3189      0.00000
     14       9.8875      0.00000
     15      11.0539      0.00000
     16      12.1740      0.00000
     17      13.5499      0.00000
     18      14.2944      0.00000
     19      15.0932      0.00000
     20      15.8411      0.00000

 k-point     8 :       0.3125    0.3125    0.0625
  band No.  band energies     occupation 
      1     -19.2943      2.00000
      2     -12.2763      2.00000
      3      -6.4843      2.00000
      4      -6.3010      2.00000
      5      -5.7084      2.00000
      6      -0.8411      2.00000
      7      -0.4526      2.00000
      8      -0.2767      2.00000
      9       6.2360      0.00000
     10       6.7489      0.00000
     11       8.3106      0.00000
     12       8.5709      0.00000
     13       8.9582      0.00000
     14       9.6363      0.00000
     15      11.5051      0.00000
     16      12.9736      0.00000
     17      13.3366      0.00000
     18      14.7289      0.00000
     19      15.9371      0.00000
     20      17.2172      0.00000

 k-point     9 :       0.4375    0.3125    0.0625
  band No.  band energies     occupation 
      1     -19.2707      2.00000
      2     -12.2538      2.00000
      3      -6.6164      2.00000
      4      -6.4330      2.00000
      5      -5.6738      2.00000
      6      -0.7864      2.00000
      7      -0.5338      2.00000
      8      -0.2484      2.00000
      9       6.1787      0.00000
     10       6.4812      0.00000
     11       8.1955      0.00000
     12       8.4442      0.00000
     13       9.2871      0.00000
     14      10.6908      0.00000
     15      11.8000      0.00000
     16      12.8295      0.00000
     17      13.5854      0.00000
     18      15.7211      0.00000
     19      15.9707      0.00000
     20      16.3342      0.00000

 k-point    10 :       0.4375    0.4375    0.0625
  band No.  band energies     occupation 
      1     -19.2484      2.00000
      2     -12.2140      2.00000
      3      -6.6987      2.00000
      4      -6.6688      2.00000
      5      -5.6430      2.00000
      6      -0.6220      2.00000
      7      -0.5510      2.00000
      8      -0.2299      2.00000
      9       5.9303      0.00000
     10       6.0373      0.00000
     11       7.9059      0.00000
     12       8.0051      0.00000
     13      10.9778      0.00000
     14      11.4138      0.00000
     15      12.5687      0.00000
     16      13.0189      0.00000
     17      13.8968      0.00000
     18      14.7736      0.00000
     19      15.8314      0.00000
     20      16.4942      0.00000

 k-point    11 :       0.1875    0.1875    0.1875
  band No.  band energies     occupation 
      1     -19.3386      2.00000
      2     -12.2989      2.00000
      3      -6.1001      2.00000
      4      -6.1001      2.00000
      5      -5.9307      2.00000
      6      -0.6460      2.00000
      7      -0.3959      2.00000
      8      -0.3959      2.00000
      9       6.6768      0.00000
     10       6.6768      0.00000
     11       6.9134      0.00000
     12       8.7788      0.00000
     13       8.7788      0.00000
     14       9.2986      0.00000
     15      12.8606      0.00000
     16      12.8606      0.00000
     17      13.4554      0.00000
     18      14.2847      0.00000
     19      14.2847      0.00000
     20      16.5027      0.00000

 k-point    12 :       0.3125    0.1875    0.1875
  band No.  band energies     occupation 
      1     -19.3048      2.00000
      2     -12.2838      2.00000
      3      -6.3621      2.00000
      4      -6.0201      2.00000
      5      -6.0104      2.00000
      6      -0.7866      2.00000
      7      -0.5595      2.00000
      8      -0.3556      2.00000
      9       6.9176      0.00000
     10       7.1599      0.00000
     11       7.6590      0.00000
     12       8.5136      0.00000
     13       8.7713      0.00000
     14       8.9090      0.00000
     15      12.3029      0.00000
     16      13.3307      0.00000
     17      13.6533      0.00000
     18      14.0048      0.00000
     19      14.8017      0.00000
     20      17.6035      0.00000

 k-point    13 :       0.4375    0.1875    0.1875
  band No.  band energies     occupation 
      1     -19.2805      2.00000
      2     -12.2742      2.00000
      3      -6.5379      2.00000
      4      -6.0601      2.00000
      5      -5.9609      2.00000
      6      -0.9287      2.00000
      7      -0.6787      2.00000
      8      -0.2688      2.00000
      9       7.1269      0.00000
     10       7.1301      0.00000
     11       7.5395      0.00000
     12       8.3776      0.00000
     13       9.0592      0.00000
     14      10.1841      0.00000
     15      11.7936      0.00000
     16      12.7987      0.00000
     17      13.1681      0.00000
     18      14.9809      0.00000
     19      15.1132      0.00000
     20      16.8729      0.00000

 k-point    14 :       0.3125    0.3125    0.1875
  band No.  band energies     occupation 
      1     -19.2728      2.00000
      2     -12.2489      2.00000
      3      -6.4196      2.00000
      4      -6.3086      2.00000
      5      -5.9795      2.00000
      6      -0.8059      2.00000
      7      -0.6201      2.00000
      8      -0.4518      2.00000
      9       7.0796      0.00000
     10       7.1572      0.00000
     11       8.2201      0.00000
     12       8.3550      0.00000
     13       8.6273      0.00000
     14       9.1964      0.00000
     15      12.7933      0.00000
     16      13.4589      0.00000
     17      13.4821      0.00000
     18      14.9125      0.00000
     19      15.6036      0.00000
     20      17.3435      0.00000

 k-point    15 :       0.4375    0.3125    0.1875
  band No.  band energies     occupation 
      1     -19.2499      2.00000
      2     -12.2242      2.00000
      3      -6.5842      2.00000
      4      -6.3835      2.00000
      5      -5.9413      2.00000
      6      -0.8534      2.00000
      7      -0.7674      2.00000
      8      -0.3806      2.00000
      9       6.8312      0.00000
     10       6.9885      0.00000
     11       8.1175      0.00000
     12       8.2597      0.00000
     13       9.3180      0.00000
     14      10.5275      0.00000
     15      12.6515      0.00000
     16      13.1680      0.00000
     17      13.4802      0.00000
     18      15.4757      0.00000
     19      15.9998      0.00000
     20      16.8989      0.00000

 k-point    16 :       0.4375    0.4375    0.1875
  band No.  band energies     occupation 
      1     -19.2279      2.00000
      2     -12.1880      2.00000
      3      -6.6277      2.00000
      4      -6.6095      2.00000
      5      -5.8980      2.00000
      6      -0.8300      2.00000
      7      -0.7589      2.00000
      8      -0.5183      2.00000
      9       6.6488      0.00000
     10       6.8194      0.00000
     11       7.9960      0.00000
     12       8.0876      0.00000
     13      10.8274      0.00000
     14      11.0841      0.00000
     15      12.9648      0.00000
     16      13.0318      0.00000
     17      14.2579      0.00000
     18      15.3822      0.00000
     19      16.3383      0.00000
     20      16.5081      0.00000

 k-point    17 :       0.3125    0.3125    0.3125
  band No.  band energies     occupation 
      1     -19.2420      2.00000
      2     -12.2096      2.00000
      3      -6.3243      2.00000
      4      -6.3230      2.00000
      5      -6.3230      2.00000
      6      -0.8594      2.00000
      7      -0.8594      2.00000
      8      -0.5904      2.00000
      9       7.2418      0.00000
     10       8.2180      0.00000
     11       8.2180      0.00000
     12       8.6506      0.00000
     13       8.6506      0.00000
     14       8.8432      0.00000
     15      13.6839      0.00000
     16      13.6839      0.00000
     17      14.3074      0.00000
     18      14.3074      0.00000
     19      16.5468      0.00000
     20      16.7256      0.00000

 k-point    18 :       0.4375    0.3125    0.3125
  band No.  band energies     occupation 
      1     -19.2200      2.00000
      2     -12.1816      2.00000
      3      -6.5449      2.00000
      4      -6.3382      2.00000
      5      -6.2506      2.00000
      6      -1.0308      2.00000
      7      -0.9448      2.00000
      8      -0.6378      2.00000
      9       7.1872      0.00000
     10       7.8571      0.00000
     11       8.3219      0.00000
     12       8.5937      0.00000
     13       9.2199      0.00000
     14      10.3878      0.00000
     15      13.1849      0.00000
     16      13.4458      0.00000
     17      14.1367      0.00000
     18      15.5598      0.00000
     19      16.5123      0.00000
     20      17.0152      0.00000

 k-point    19 :       0.4375    0.4375    0.3125
  band No.  band energies     occupation 
      1     -19.1987      2.00000
      2     -12.1507      2.00000
      3      -6.5220      2.00000
      4      -6.5209      2.00000
      5      -6.2282      2.00000
      6      -1.1086      2.00000
      7      -1.0511      2.00000
      8      -0.8851      2.00000
      9       7.4652      0.00000
     10       8.1109      0.00000
     11       8.1944      0.00000
     12       8.5983      0.00000
     13      10.5063      0.00000
     14      10.5701      0.00000
     15      12.9784      0.00000
     16      13.2541      0.00000
     17      15.1723      0.00000
     18      16.1239      0.00000
     19      16.3286      0.00000
     20      17.1966      0.00000

 k-point    20 :       0.4375    0.4375    0.4375
  band No.  band energies     occupation 
      1     -19.1777      2.00000
      2     -12.1239      2.00000
      3      -6.4614      2.00000
      4      -6.4403      2.00000
      5      -6.4403      2.00000
      6      -1.2575      2.00000
      7      -1.2575      2.00000
      8      -1.1642      2.00000
      9       8.0717      0.00000
     10       8.4154      0.00000
     11       8.4154      0.00000
     12      10.1732      0.00000
     13      10.1732      0.00000
     14      10.2694      0.00000
     15      12.9534      0.00000
     16      12.9534      0.00000
     17      15.6237      0.00000
     18      16.3793      0.00000
     19      16.3793      0.00000
     20      16.5954      0.00000


--------------------------------------------------------------------------------------------------------


 soft charge-density along one line, spin component           1
         0         1         2         3         4         5         6         7         8         9
 total charge-density along one line
 
 pseudopotential strength for first ion, spin component:           1
 17.588  -4.625  -0.000  -0.000  -0.000   0.000   0.000   0.000
 -4.625   1.220   0.000   0.000   0.000  -0.000  -0.000  -0.000
 -0.000   0.000   1.876   0.000  -0.000  -2.227  -0.000   0.000
 -0.000   0.000   0.000   1.876  -0.000  -0.000  -2.227   0.000
 -0.000   0.000  -0.000  -0.000   1.876   0.000   0.000  -2.227
  0.000  -0.000  -2.227  -0.000   0.000   2.589   0.000  -0.000
  0.000  -0.000  -0.000  -2.227   0.000   0.000   2.589  -0.000
  0.000  -0.000   0.000   0.000  -2.227  -0.000  -0.000   2.589
 -0.000   0.000  -0.000   0.000  -0.000   0.000  -0.000   0.000
  0.000  -0.000  -0.000  -0.000   0.000   0.000   0.000  -0.000
 -0.000  -0.000   0.000   0.000  -0.000  -0.000  -0.000   0.000
 -0.000   0.000   0.000  -0.000  -0.000  -0.000   0.000   0.000
  0.000   0.000   0.000   0.000   0.000  -0.000  -0.000  -0.000
 total augmentation occupancy for first ion, spin component:           1
  2.275   0.549   0.000   0.000   0.000   0.000   0.000   0.000   0.000   0.000  -0.000  -0.000  -0.000
  0.549   0.341   0.000   0.000   0.000   0.000   0.000   0.000   0.000  -0.000   0.000  -0.000  -0.000
  0.000   0.000   1.995  -0.000  -0.000   0.002   0.000  -0.000   0.000   0.000   0.000   0.000   0.000
  0.000   0.000  -0.000   1.995   0.000  -0.000   0.002  -0.000   0.000   0.000   0.000   0.000   0.000
  0.000   0.000  -0.000   0.000   1.995   0.000   0.000   0.002   0.000   0.000   0.000   0.000   0.000
  0.000   0.000   0.002   0.000   0.000   0.015  -0.000  -0.000   0.000   0.000   0.000   0.000   0.000
  0.000   0.000   0.000   0.002   0.000  -0.000   0.015   0.000   0.000   0.000   0.000   0.000   0.000
  0.000   0.000   0.000  -0.000   0.002  -0.000   0.000   0.015   0.000   0.000   0.000   0.000   0.000
  0.000   0.000   0.000   0.000   0.000   0.000   0.000   0.000   0.013   0.000  -0.000   0.000  -0.000
  0.000  -0.000   0.000   0.000   0.000   0.000   0.000   0.000   0.000   0.013   0.000   0.000   0.000
 -0.000   0.000   0.000   0.000   0.000   0.000   0.000   0.000  -0.000   0.000   0.003  -0.000   0.000
 -0.000   0.000   0.000   0.000   0.000   0.000   0.000   0.000   0.000   0.000  -0.000   0.013  -0.000
  0.000  -0.000   0.000   0.000   0.000   0.000   0.000   0.000  -0.000   0.000  -0.000  -0.000   0.003


------------------------ aborting loop because EDIFF is reached ----------------------------------------





 total charge

# of ion       s       p       d       tot
------------------------------------------
    1        1.959   4.696   0.035   6.690
    2        1.581   3.518   0.000   5.098
--------------------------------------------------
tot          3.539   8.214   0.035  11.788
 
    CHARGE:  cpu time      0.0020: real time      0.0021
    FORLOC:  cpu time      0.0001: real time      0.0001
    FORNL :  cpu time      0.0021: real time      0.0021
    STRESS:  cpu time      0.0288: real time      0.0289
    FORCOR:  cpu time      0.0021: real time      0.0021
    FORHAR:  cpu time      0.0005: real time      0.0005
    MIXING:  cpu time      0.0002: real time      0.0002
    OFIELD:  cpu time      0.0000: real time      0.0000

  FORCE on cell =-STRESS in cart. coord.  units (eV):
  Direction    XX          YY          ZZ          XY          YZ          ZX
  --------------------------------------------------------------------------------------
  Alpha Z    54.34367    54.34367    54.34367
  Ewald    -276.71199  -276.71199  -276.71199    -0.00000    -0.00000     0.00000
  Hartree    43.53904    43.53904    43.53904    -0.00000    -0.00000    -0.00000
  E(xc)     -58.96926   -58.96926   -58.96926    -0.00000     0.00000     0.00000
  Local     -58.17796   -58.17796   -58.17796    -0.00000    -0.00000     0.00000
  n-local    90.17714    91.07054    91.67875    -0.24321     0.25176    -0.01263
  augment   -33.96483   -33.96483   -33.96483    -0.00000     0.00000     0.00000
  Kinetic   232.61180   239.05731   245.20564    -0.99373     1.49674     0.18352
  Fock        0.00000     0.00000     0.00000     0.00000     0.00000     0.00000
  -------------------------------------------------------------------------------------
  Total      -0.00761    -0.00761    -0.00761    -0.00000     0.00000    -0.00000
  in kB      -0.18003    -0.18003    -0.18003    -0.00000     0.00000    -0.00000
  external pressure =       -0.18 kB  Pullay stress =        0.00 kB


 VOLUME and BASIS-vectors are now :
 -----------------------------------------------------------------------------
  energy-cutoff  :      341.21
  volume of cell :       67.69
      direct lattice vectors                 reciprocal lattice vectors
     4.075448639 -0.000000000 -0.000000000     0.245371759  0.000000000 -0.000000000
    -0.000000000  4.075448639 -0.000000000     0.000000000  0.245371759 -0.000000000
     0.000000000  0.000000000  4.075448639     0.000000000  0.000000000  0.245371759

  length of vectors
     4.075448639  4.075448639  4.075448639     0.245371759  0.245371759  0.245371759


 FORCES acting on ions
    electron-ion (+dipol)            ewald-force                    non-local-force                 convergence-correction
 -----------------------------------------------------------------------------------------------
   -.821E-14 -.676E-14 0.292E-14   -.302E-14 -.863E-15 -.700E-15   0.318E-26 -.215E-25 0.563E-26   0.357E-14 0.547E-14 0.132E-13
   0.926E-13 0.652E-12 0.208E-12   0.288E-14 0.807E-15 0.903E-15   -.210E-25 -.211E-25 0.122E-25   -.936E-14 0.102E-13 -.257E-13
 -----------------------------------------------------------------------------------------------
   0.844E-13 0.645E-12 0.211E-12   -.144E-15 -.559E-16 0.203E-15   -.178E-25 -.426E-25 0.179E-25   -.579E-14 0.157E-13 -.125E-13
 
 
 POSITION                                       TOTAL-FORCE (eV/Angst)
 -----------------------------------------------------------------------------------
     -0.00000      0.00000     -0.00000        -0.000000     -0.000000     -0.000000
      2.03772      2.03772      2.03772         0.000000      0.000000      0.000000
 -----------------------------------------------------------------------------------
    total drift:                                0.000000      0.000000      0.000000


--------------------------------------------------------------------------------------------------------



  FREE ENERGIE OF THE ION-ELECTRON SYSTEM (eV)
  ---------------------------------------------------
  free  energy   TOTEN  =        -6.85375809 eV

  energy  without entropy=       -6.85375809  energy(sigma->0) =       -6.85375809
 d Force =-0.8771519E-62[-0.883E-62,-0.871E-62]  d Energy = 0.2187323E-02-0.219E-02
 d Force =-0.1707316E-46[-0.159E-46,-0.183E-46]  d Ewald  = 0.6338363E+01-0.634E+01
 


--------------------------------------------------------------------------------------------------------


    POTLOK:  cpu time      0.0434: real time      0.0435


--------------------------------------------------------------------------------------------------------




--------------------------------------------------------------------------------------------------------


  
 reached required accuracy - stopping structural energy minimisation
     LOOP+:  cpu time      1.1258: real time      1.1355
    4ORBIT:  cpu time      0.0000: real time      0.0000



 total charge

# of ion       s       p       d       tot
------------------------------------------
    1        1.959   4.696   0.035   6.690
    2        1.581   3.518   0.000   5.098
--------------------------------------------------
tot          3.539   8.214   0.035  11.788
 

 total amount of memory used by VASP MPI-rank0    35968. kBytes
=======================================================================

   base                                    :      30000. kBytes
   nonl-proj                               :       4317. kBytes
   fftplans                                :        260. kBytes
   grid                                    :        697. kBytes
   one-center                              :         16. kBytes
   wavefun                                 :        678. kBytes
 
  
  
 General timing and accounting informations for this job:
 ========================================================
  
                  Total CPU time used (sec):        4.576
                            User time (sec):        4.125
                          System time (sec):        0.451
                         Elapsed time (sec):        5.667
  
                   Maximum memory used (kb):      243956.
                   Average memory used (kb):          N/A
  
                          Minor page faults:        15709
                          Major page faults:         2001
                 Voluntary context switches:         4647
