       N       E                     dE             d eps       ncg     rms          rms(c)
DAV:   1     0.235388267417E+04    0.23539E+04   -0.12307E+05  1128   0.751E+02
DAV:   2     0.398393994484E+02   -0.23140E+04   -0.22416E+04  1404   0.197E+02
DAV:   3    -0.170171551862E+03   -0.21001E+03   -0.20898E+03  1360   0.664E+01
DAV:   4    -0.173400664108E+03   -0.32291E+01   -0.32214E+01  1336   0.964E+00
DAV:   5    -0.173463767779E+03   -0.63104E-01   -0.63054E-01  1328   0.121E+00    0.264E+01
DAV:   6    -0.167446320208E+03    0.60174E+01   -0.31811E+01  1248   0.669E+00    0.140E+01
DAV:   7    -0.170453963074E+03   -0.30076E+01   -0.65398E+00  1304   0.322E+00    0.984E+00
DAV:   8    -0.172021109108E+03   -0.15671E+01   -0.89355E-01  1376   0.113E+00    0.569E+00
DAV:   9    -0.173329175649E+03   -0.13081E+01   -0.68104E-01  1288   0.106E+00    0.243E+00
DAV:  10    -0.173631659874E+03   -0.30248E+00   -0.15123E-01  1280   0.510E-01    0.165E+00
DAV:  11    -0.173693030967E+03   -0.61371E-01   -0.84493E-02  1392   0.382E-01    0.126E+00
DAV:  12    -0.173761322218E+03   -0.68291E-01   -0.42076E-01  1344   0.718E-01    0.584E-01
DAV:  13    -0.173764273578E+03   -0.29514E-02   -0.44872E-02  1248   0.285E-01    0.462E-01
DAV:  14    -0.173764574691E+03   -0.30111E-03   -0.14642E-03  1400   0.464E-02    0.328E-01
DAV:  15    -0.173766746294E+03   -0.21716E-02   -0.14496E-02  1216   0.695E-02    0.111E-01
DAV:  16    -0.173767013113E+03   -0.26682E-03   -0.10523E-03  1344   0.251E-02    0.641E-02
DAV:  17    -0.173767179333E+03   -0.16622E-03   -0.45295E-04  1288   0.183E-02    0.430E-02
DAV:  18    -0.173767297046E+03   -0.11771E-03   -0.54632E-04  1240   0.177E-02    0.195E-02
DAV:  19    -0.173767323429E+03   -0.26383E-04   -0.88690E-05   936   0.666E-03    0.160E-02
DAV:  20    -0.173767337385E+03   -0.13956E-04   -0.96228E-05   896   0.604E-03    0.723E-03
DAV:  21    -0.173767339582E+03   -0.21971E-05   -0.10765E-05   848   0.307E-03
   1 F= -.17376734E+03 E0= -.17376688E+03  d E =-.173767E+03  mag=    -0.0001
       N       E                     dE             d eps       ncg     rms          rms(c)
DAV:   1    -0.173794274558E+03   -0.26937E-01   -0.35027E+00  1148   0.252E+00    0.762E-01
DAV:   2    -0.173806366560E+03   -0.12092E-01   -0.13467E-01  1272   0.503E-01    0.349E-01
DAV:   3    -0.173805827582E+03    0.53898E-03   -0.13450E-03  1368   0.614E-02    0.230E-01
DAV:   4    -0.173805448753E+03    0.37883E-03   -0.12810E-03  1312   0.585E-02    0.120E-01
DAV:   5    -0.173805466011E+03   -0.17259E-04   -0.30525E-04  1320   0.253E-02    0.471E-02
DAV:   6    -0.173805461231E+03    0.47805E-05   -0.38700E-05  1104   0.127E-02
   2 F= -.17380546E+03 E0= -.17380508E+03  d E =-.381216E-01  mag=     0.0000
       N       E                     dE             d eps       ncg     rms          rms(c)
DAV:   1    -0.173786185235E+03    0.19281E-01   -0.31517E+01  1128   0.758E+00    0.230E+00
DAV:   2    -0.173896395486E+03   -0.11021E+00   -0.12288E+00  1264   0.151E+00    0.107E+00
DAV:   3    -0.173891544619E+03    0.48509E-02   -0.12540E-02  1376   0.188E-01    0.711E-01
DAV:   4    -0.173888215128E+03    0.33295E-02   -0.98004E-03  1360   0.161E-01    0.389E-01
DAV:   5    -0.173888251769E+03   -0.36641E-04   -0.25330E-03  1344   0.744E-02    0.158E-01
DAV:   6    -0.173888189874E+03    0.61895E-04   -0.37722E-04  1248   0.426E-02    0.698E-02
DAV:   7    -0.173888135785E+03    0.54089E-04   -0.21401E-04  1328   0.310E-02    0.155E-02
DAV:   8    -0.173888138074E+03   -0.22899E-05   -0.74117E-05  1312   0.130E-02
   3 F= -.17388814E+03 E0= -.17388792E+03  d E =-.120798E+00  mag=     0.0000
       N       E                     dE             d eps       ncg     rms          rms(c)
DAV:   1    -0.173505413826E+03    0.38272E+00   -0.12535E+02  1128   0.152E+01    0.480E+00
DAV:   2    -0.173962862028E+03   -0.45745E+00   -0.51118E+00  1272   0.310E+00    0.221E+00
DAV:   3    -0.173942903410E+03    0.19959E-01   -0.54814E-02  1376   0.401E-01    0.150E+00
DAV:   4    -0.173930341678E+03    0.12562E-01   -0.30110E-02  1344   0.285E-01    0.886E-01
DAV:   5    -0.173929405843E+03    0.93584E-03   -0.92688E-03  1360   0.151E-01    0.398E-01
DAV:   6    -0.173928941632E+03    0.46421E-03   -0.12097E-03  1400   0.840E-02    0.167E-01
DAV:   7    -0.173928825609E+03    0.11602E-03   -0.70718E-04  1456   0.646E-02    0.385E-02
DAV:   8    -0.173928836798E+03   -0.11189E-04   -0.32875E-04  1312   0.275E-02    0.451E-02
DAV:   9    -0.173928834038E+03    0.27604E-05   -0.96264E-06   768   0.496E-03
   4 F= -.17392883E+03 E0= -.17392878E+03  d E =-.161494E+00  mag=     0.0000
       N       E                     dE             d eps       ncg     rms          rms(c)
DAV:   1    -0.173910487492E+03    0.18349E-01   -0.69880E+00  1128   0.370E+00    0.109E+00
DAV:   2    -0.173934886599E+03   -0.24399E-01   -0.27192E-01  1248   0.739E-01    0.490E-01
DAV:   3    -0.173933808213E+03    0.10784E-02   -0.27825E-03  1376   0.915E-02    0.322E-01
DAV:   4    -0.173933094863E+03    0.71335E-03   -0.20310E-03  1376   0.778E-02    0.182E-01
DAV:   5    -0.173933103955E+03   -0.90912E-05   -0.65597E-04  1344   0.378E-02    0.727E-02
DAV:   6    -0.173933092413E+03    0.11542E-04   -0.59309E-05  1088   0.169E-02    0.407E-02
DAV:   7    -0.173933081770E+03    0.10643E-04   -0.42117E-05  1056   0.150E-02    0.838E-03
DAV:   8    -0.173933082435E+03   -0.66506E-06   -0.17966E-05   800   0.663E-03
   5 F= -.17393308E+03 E0= -.17393300E+03  d E =-.165743E+00  mag=    -0.0000
       N       E                     dE             d eps       ncg     rms          rms(c)
DAV:   1    -0.173934022537E+03   -0.94077E-03   -0.38973E+00  1164   0.281E+00    0.758E-01
DAV:   2    -0.173947700714E+03   -0.13678E-01   -0.15465E-01  1248   0.565E-01    0.354E-01
DAV:   3    -0.173947187250E+03    0.51346E-03   -0.15558E-03  1376   0.679E-02    0.232E-01
DAV:   4    -0.173946855977E+03    0.33127E-03   -0.64029E-04  1376   0.436E-02    0.146E-01
DAV:   5    -0.173946796182E+03    0.59795E-04   -0.32256E-04  1344   0.311E-02    0.614E-02
DAV:   6    -0.173946786164E+03    0.10018E-04   -0.54323E-05  1200   0.211E-02    0.160E-02
DAV:   7    -0.173946784937E+03    0.12273E-05   -0.58740E-05  1312   0.136E-02
   6 F= -.17394678E+03 E0= -.17394671E+03  d E =-.137025E-01  mag=     0.0000
       N       E                     dE             d eps       ncg     rms          rms(c)
DAV:   1    -0.173867459683E+03    0.79326E-01   -0.27602E+01  1128   0.746E+00    0.204E+00
DAV:   2    -0.173965279439E+03   -0.97820E-01   -0.11067E+00  1264   0.151E+00    0.944E-01
DAV:   3    -0.173961627772E+03    0.36517E-02   -0.11326E-02  1376   0.183E-01    0.623E-01
DAV:   4    -0.173959462191E+03    0.21656E-02   -0.38186E-03  1376   0.105E-01    0.408E-01
DAV:   5    -0.173958849902E+03    0.61229E-03   -0.20811E-03  1344   0.834E-02    0.181E-01
DAV:   6    -0.173958770066E+03    0.79836E-04   -0.72189E-04  1472   0.628E-02    0.423E-02
DAV:   7    -0.173958762143E+03    0.79229E-05   -0.42829E-04  1328   0.359E-02    0.468E-02
DAV:   8    -0.173958761493E+03    0.65006E-06   -0.41552E-05  1048   0.962E-03
   7 F= -.17395876E+03 E0= -.17395869E+03  d E =-.256791E-01  mag=     0.0000
       N       E                     dE             d eps       ncg     rms          rms(c)
DAV:   1    -0.173956889533E+03    0.18726E-02   -0.73801E-01  1200   0.122E+00    0.313E-01
DAV:   2    -0.173959459210E+03   -0.25697E-02   -0.28944E-02  1280   0.244E-01    0.163E-01
DAV:   3    -0.173959369700E+03    0.89510E-04   -0.30334E-04  1376   0.293E-02    0.108E-01
DAV:   4    -0.173959314120E+03    0.55580E-04   -0.99396E-05  1376   0.165E-02    0.727E-02
DAV:   5    -0.173959299223E+03    0.14897E-04   -0.56908E-05  1216   0.128E-02    0.344E-02
DAV:   6    -0.173959297944E+03    0.12783E-05   -0.15817E-05   880   0.872E-03
   8 F= -.17395930E+03 E0= -.17395922E+03  d E =-.262155E-01  mag=    -0.0000
       N       E                     dE             d eps       ncg     rms          rms(c)
DAV:   1    -0.173957969627E+03    0.13296E-02   -0.18307E+00  1128   0.188E+00    0.445E-01
DAV:   2    -0.173964056047E+03   -0.60864E-02   -0.68455E-02  1264   0.371E-01    0.206E-01
DAV:   3    -0.173963882195E+03    0.17385E-03   -0.59204E-04  1376   0.409E-02    0.133E-01
DAV:   4    -0.173963766520E+03    0.11567E-03   -0.26934E-04  1376   0.272E-02    0.792E-02
DAV:   5    -0.173963760436E+03    0.60839E-05   -0.79166E-05  1312   0.132E-02
   9 F= -.17396376E+03 E0= -.17396368E+03  d E =-.446249E-02  mag=     0.0000
       N       E                     dE             d eps       ncg     rms          rms(c)
DAV:   1    -0.173916749906E+03    0.47017E-01   -0.16428E+01  1128   0.562E+00    0.133E+00
DAV:   2    -0.173971471172E+03   -0.54721E-01   -0.61849E-01  1232   0.111E+00    0.616E-01
DAV:   3    -0.173969951511E+03    0.15197E-02   -0.53986E-03  1376   0.124E-01    0.402E-01
DAV:   4    -0.173968985691E+03    0.96582E-03   -0.20257E-03  1360   0.743E-02    0.249E-01
DAV:   5    -0.173968881594E+03    0.10410E-03   -0.67754E-04  1360   0.393E-02    0.119E-01
DAV:   6    -0.173968859399E+03    0.22196E-04   -0.16370E-04  1296   0.250E-02    0.454E-02
DAV:   7    -0.173968855676E+03    0.37223E-05   -0.60781E-05  1344   0.153E-02
  10 F= -.17396886E+03 E0= -.17396877E+03  d E =-.955773E-02  mag=     0.0000
