 vasp.6.5.1 10Mar25 (build May 13 2025 11:33:44) complex                         
 executed on              LinuxNV date 2026.05.13  15:05:38
 running    2 mpi-ranks, on    1 nodes
 distrk:  each k-point on    2 cores,    1 groups
 distr:  one band on NCORE=   1 cores,    2 groups
 Offloading initialized ...    2 GPUs detected


--------------------------------------------------------------------------------------------------------


 INCAR:
   ALGO = Normal
   PREC = Normal
   LREAL = Auto
   EDIFF = 1e-05
   ENCUT = 262.472
   LASPH = True
   NELM = 100
   ISIF = 2
   IBRION = 2
   EDIFFG = -0.03
   NSW = 300
   ISMEAR = 0
   SIGMA = 0.1
   ISPIN = 2
   LWAVE = False
   LCHARG = False
   LORBIT = 10
   GGA = Ps
   NELECT = 426.0
   KPAR = 1

 POTCAR:    PAW_PBE Cs_sv 08Apr2002               
 POTCAR:    PAW_PBE Cl 06Sep2000                  
 -----------------------------------------------------------------------------
|                                                                             |
|           W    W    AA    RRRRR   N    N  II  N    N   GGGG   !!!           |
|           W    W   A  A   R    R  NN   N  II  NN   N  G    G  !!!           |
|           W    W  A    A  R    R  N N  N  II  N N  N  G       !!!           |
|           W WW W  AAAAAA  RRRRR   N  N N  II  N  N N  G  GGG   !            |
|           WW  WW  A    A  R   R   N   NN  II  N   NN  G    G                |
|           W    W  A    A  R    R  N    N  II  N    N   GGGG   !!!           |
|                                                                             |
|     You requested a magnetic or noncollinear calculation, but did not       |
|     specify the initial magnetic moment with the MAGMOM tag. Note that      |
|     a default of 1 will be used for all atoms. This ferromagnetic setup     |
|     may break the symmetry of the crystal, in particular it may rule        |
|     out finding an antiferromagnetic solution. Thence, we recommend         |
|     setting the initial magnetic moment manually or verifying carefully     |
|     that this magnetic setup is desired.                                    |
|                                                                             |
 -----------------------------------------------------------------------------

 POTCAR:    PAW_PBE Cs_sv 08Apr2002               
   SHA256 =  c1463496f0f6037ed62c6012a8013a89ee9ad6ffb38599dcd6c079e7ed31779b Cs_sv/POTCAR          
   COPYR  = (c) Copyright 08Apr2002 Georg Kresse                                                    
   COPYR  = This file is part of the software VASP. Any use, copying, and all other rights are regul
   COPYR  = If you do not have a valid VASP license, you may not use, copy or distribute this file. 
   VRHFIN =Cs: 5s5p6s                                                                               
   LEXCH  = PE                                                                                      
   EATOM  =   555.6835 eV,   40.8416 Ry                                                             
                                                                                                    
   TITEL  = PAW_PBE Cs_sv 08Apr2002                                                                 
   LULTRA =        F    use ultrasoft PP ?                                                          
   IUNSCR =        1    unscreen: 0-lin 1-nonlin 2-no                                               
   RPACOR =    2.200    partial core radius                                                         
   POMASS =  132.900; ZVAL   =    9.000    mass and valenz                                          
   RCORE  =    2.500    outmost cutoff radius                                                       
   RWIGS  =    2.500; RWIGS  =    1.323    wigner-seitz radius (au A)                               
   ENMAX  =  220.318; ENMIN  =  165.238 eV                                                          
   RCLOC  =    2.207    cutoff for local pot                                                        
   LCOR   =        T    correct aug charges                                                         
   LPAW   =        T    paw PP                                                                      
   EAUG   =  407.933                                                                                
   DEXC   =    0.000                                                                                
   RMAX   =    2.554    core radius for proj-oper                                                   
   RAUG   =    1.300    factor for augmentation sphere                                              
   RDEP   =    2.590    radius for radial grids                                                     
   RDEPT  =    2.117    core radius for aug-charge                                                  
                                                                                                    
   Atomic configuration                                                                             
   13 entries                                                                                       
     n  l   j            E        occ.                                                              
     1  0  0.50    -35790.1377   2.0000                                                             
     2  0  0.50     -5613.6201   2.0000                                                             
     2  1  1.50     -5035.0101   6.0000                                                             
     3  0  0.50     -1167.0767   2.0000                                                             
     3  1  1.50      -980.9754   6.0000                                                             
     3  2  2.50      -708.0703  10.0000                                                             
     4  0  0.50      -220.2386   2.0000                                                             
     4  1  1.50      -160.7596   6.0000                                                             
     4  2  2.50       -74.2354  10.0000                                                             
     5  0  0.50       -26.7287   2.0000                                                             
     6  0  0.50        -2.0862   1.0000                                                             
     5  1  1.50       -13.5159   6.0000                                                             
     5  2  2.50        -0.4136   0.0000                                                             
   Description                                                                                      
     l       E           TYP  RCUT    TYP  RCUT                                                     
     0    -26.7287425     23  1.900                                                                 
     0     -2.0862306     23  1.900                                                                 
     1    -13.5158719     23  2.500                                                                 
     1     -2.7211652     23  2.500                                                                 
     2     -0.4136171     23  2.500                                                                 
  local pseudopotential read in
  partial core-charges read in
  partial kinetic energy density read in
  atomic valenz-charges read in
  non local Contribution for L=            0  read in
    real space projection operators read in
  non local Contribution for L=            0  read in
    real space projection operators read in
  non local Contribution for L=            1  read in
    real space projection operators read in
  non local Contribution for L=            1  read in
    real space projection operators read in
  non local Contribution for L=            2  read in
    real space projection operators read in
    PAW grid and wavefunctions read in
 
   number of l-projection  operators is LMAX  =            5
   number of lm-projection operators is LMMAX =           13
 
 POTCAR:    PAW_PBE Cl 06Sep2000                  
   SHA256 =  9f1b6e6ed4247ac726a768b330d26d7667cc3c95a39ff49c1d064c2d9dcce931 Cl/POTCAR             
   COPYR  = (c) Copyright 06Sep2000 Georg Kresse                                                    
   COPYR  = This file is part of the software VASP. Any use, copying, and all other rights are regul
   COPYR  = If you do not have a valid VASP license, you may not use, copy or distribute this file. 
   VRHFIN =Cl: s2p5                                                                                 
   LEXCH  = PE                                                                                      
   EATOM  =   409.7259 eV,   30.1140 Ry                                                             
                                                                                                    
   TITEL  = PAW_PBE Cl 06Sep2000                                                                    
   LULTRA =        F    use ultrasoft PP ?                                                          
   IUNSCR =        1    unscreen: 0-lin 1-nonlin 2-no                                               
   RPACOR =    1.500    partial core radius                                                         
   POMASS =   35.453; ZVAL   =    7.000    mass and valenz                                          
   RCORE  =    1.900    outmost cutoff radius                                                       
   RWIGS  =    2.100; RWIGS  =    1.111    wigner-seitz radius (au A)                               
   ENMAX  =  262.472; ENMIN  =  196.854 eV                                                          
   ICORE  =        2    local potential                                                             
   LCOR   =        T    correct aug charges                                                         
   LPAW   =        T    paw PP                                                                      
   EAUG   =  356.192                                                                                
   DEXC   =    0.000                                                                                
   RMAX   =    1.945    core radius for proj-oper                                                   
   RAUG   =    1.300    factor for augmentation sphere                                              
   RDEP   =    2.020    radius for radial grids                                                     
   RDEPT  =    1.678    core radius for aug-charge                                                  
                                                                                                    
   Atomic configuration                                                                             
    6 entries                                                                                       
     n  l   j            E        occ.                                                              
     1  0  0.50     -2751.1850   2.0000                                                             
     2  0  0.50      -252.6861   2.0000                                                             
     2  1  1.50      -191.6157   6.0000                                                             
     3  0  0.50       -20.6916   2.0000                                                             
     3  1  0.50        -8.5949   5.0000                                                             
     3  2  1.50        -8.1635   0.0000                                                             
   Description                                                                                      
     l       E           TYP  RCUT    TYP  RCUT                                                     
     0    -20.6915656     23  1.900                                                                 
     0    -22.0521482     23  1.900                                                                 
     1     -8.5948577     23  1.900                                                                 
     1     -5.3847331     23  1.900                                                                 
     2     -8.1634956     23  1.900                                                                 
  local pseudopotential read in
  partial core-charges read in
  partial kinetic energy density read in
  atomic valenz-charges read in
  non local Contribution for L=            0  read in
    real space projection operators read in
  non local Contribution for L=            0  read in
    real space projection operators read in
  non local Contribution for L=            1  read in
    real space projection operators read in
  non local Contribution for L=            1  read in
    real space projection operators read in
    PAW grid and wavefunctions read in
 
   number of l-projection  operators is LMAX  =            4
   number of lm-projection operators is LMMAX =            8
 
 Optimization of the real space projectors (new method)

 maximal supplied QI-value         = 15.12
 optimisation between [QCUT,QGAM] = [  8.16, 16.48] = [ 18.66, 76.04] Ry 
 Optimized for a Real-space Cutoff    1.70 Angstroem

   l    n(q)    QCUT    max X(q) W(low)/X(q) W(high)/X(q)  e(spline) 
   0      8     8.164    25.322    0.15E-03    0.18E-03    0.41E-06
   0      8     8.164    99.187    0.15E-03    0.17E-03    0.40E-06
   1      8     8.164    11.761    0.31E-03    0.25E-03    0.22E-06
   1      8     8.164     8.275    0.36E-03    0.24E-03    0.25E-06
   2      7     8.164     3.829    0.38E-03    0.57E-03    0.14E-06
 Optimization of the real space projectors (new method)

 maximal supplied QI-value         = 19.84
 optimisation between [QCUT,QGAM] = [  8.14, 16.47] = [ 18.53, 75.95] Ry 
 Optimized for a Real-space Cutoff    1.51 Angstroem

   l    n(q)    QCUT    max X(q) W(low)/X(q) W(high)/X(q)  e(spline) 
   0      7     8.135   168.010    0.81E-04    0.25E-03    0.15E-06
   0      7     8.135   164.674    0.79E-04    0.25E-03    0.14E-06
   1      7     8.135    69.222    0.47E-03    0.95E-03    0.99E-07
   1      7     8.135    56.786    0.47E-03    0.93E-03    0.97E-07
 -----------------------------------------------------------------------------
|                                                                             |
|               ----> ADVICE to this user running VASP <----                  |
|                                                                             |
|     You enforced a specific xc type in the INCAR file but a different       |
|     type was found in the POTCAR file.                                      |
|     I HOPE YOU KNOW WHAT YOU ARE DOING!                                     |
|                                                                             |
 -----------------------------------------------------------------------------

  PAW_PBE Cs_sv 08Apr2002               :
 energy of atom  1       EATOM= -555.6835
 kinetic energy error for atom=    0.0137 (will be added to EATOM!!)
  PAW_PBE Cl 06Sep2000                  :
 energy of atom  2       EATOM= -409.7259
 kinetic energy error for atom=    0.0483 (will be added to EATOM!!)
 
 
 POSCAR: Cs27 Cl26
  positions in direct lattice
  No initial velocities read in


 exchange-correlation table for PS
   RHO(1)=    0.500       N(1)  =     2000
   RHO(2)=  100.500       N(2)  =     4000
 


--------------------------------------------------------------------------------------------------------


 ion  position               nearest neighbor table
   1  0.994  0.007  0.997-
   2  0.008  0.008  0.335-
   3  0.000  0.000  0.667-
   4  1.000  0.338  0.993-
   5  0.989  0.340  0.328-
   6  0.000  0.333  0.667-
   7  0.000  0.667  0.000-
   8  0.000  0.667  0.333-
   9  0.000  0.667  0.667-
  10  0.331  0.003  0.002-
  11  0.336  0.986  0.341-
  12  0.333  0.000  0.667-
  13  0.322  0.341  0.992-
  14  0.337  0.334  0.322-
  15  0.333  0.333  0.667-
  16  0.333  0.667  0.000-
  17  0.333  0.667  0.333-
  18  0.333  0.667  0.667-
  19  0.667  0.000  0.000-
  20  0.667  0.000  0.333-
  21  0.667  0.000  0.667-
  22  0.667  0.333  0.000-
  23  0.667  0.333  0.333-
  24  0.667  0.333  0.667-
  25  0.667  0.667  0.000-
  26  0.667  0.667  0.333-
  27  0.667  0.667  0.667-
  28  0.167  0.172  0.494-
  29  0.175  0.166  0.834-
  30  0.169  0.501  0.171-
  31  0.167  0.500  0.500-
  32  0.167  0.500  0.833-
  33  0.167  0.843  0.173-
  34  0.167  0.833  0.500-
  35  0.167  0.833  0.833-
  36  0.499  0.168  0.167-
  37  0.500  0.167  0.500-
  38  0.500  0.167  0.833-
  39  0.500  0.500  0.167-
  40  0.500  0.500  0.500-
  41  0.500  0.500  0.833-
  42  0.500  0.833  0.167-
  43  0.500  0.833  0.500-
  44  0.500  0.833  0.833-
  45  0.839  0.161  0.164-
  46  0.833  0.167  0.500-
  47  0.833  0.167  0.833-
  48  0.833  0.500  0.167-
  49  0.833  0.500  0.500-
  50  0.833  0.500  0.833-
  51  0.833  0.833  0.167-
  52  0.833  0.833  0.500-
  53  0.833  0.833  0.833-
 
  LATTYP: Found a simple cubic cell.
 ALAT       =    12.2263459172
  
  Lattice vectors:
  
 A1 = (  12.2263459172,   0.0000000000,   0.0000000000)
 A2 = (   0.0000000000,  12.2263459172,   0.0000000000)
 A3 = (   0.0000000000,   0.0000000000,  12.2263459172)


Analysis of symmetry for initial positions (statically):
=====================================================================
 Subroutine PRICEL returns:
 Original cell was already a primitive cell.
 

 Routine SETGRP: Setting up the symmetry group for a 
 simple cubic supercell.


 Subroutine GETGRP returns: Found  1 space group operations
 (whereof  1 operations were pure point group operations)
 out of a pool of 48 trial point group operations.


The static configuration has the point symmetry C_1 .


Analysis of symmetry for dynamics (positions and initial velocities):
=====================================================================
 Subroutine PRICEL returns:
 Original cell was already a primitive cell.
 

 Routine SETGRP: Setting up the symmetry group for a 
 simple cubic supercell.


 Subroutine GETGRP returns: Found  1 space group operations
 (whereof  1 operations were pure point group operations)
 out of a pool of 48 trial point group operations.


The dynamic configuration has the point symmetry C_1 .


Analysis of structural, dynamic, and magnetic symmetry:
=====================================================================
 Subroutine PRICEL returns:
 Original cell was already a primitive cell.
 

 Routine SETGRP: Setting up the symmetry group for a 
 simple cubic supercell.


 Subroutine GETGRP returns: Found  1 space group operations
 (whereof  1 operations were pure point group operations)
 out of a pool of 48 trial point group operations.


The overall configuration has the point symmetry C_1 .


 Subroutine INISYM returns: Found  1 space group operations
 (whereof  1 operations are pure point group operations),
 and found     1 'primitive' translations


----------------------------------------------------------------------------------------

                                     Primitive cell                                     

  volume of cell :    1827.6374

  direct lattice vectors                    reciprocal lattice vectors
    12.226345917  0.000000000  0.000000000     0.081790586  0.000000000  0.000000000
     0.000000000 12.226345917  0.000000000     0.000000000  0.081790586  0.000000000
     0.000000000  0.000000000 12.226345917     0.000000000  0.000000000  0.081790586

  length of vectors
    12.226345917 12.226345917 12.226345917     0.081790586  0.081790586  0.081790586

  position of ions in fractional coordinates (direct lattice)
     0.994264504  0.007482135  0.997080894
     0.008212435  0.007997287  0.334850198
     0.000000000  0.000000000  0.666666667
     0.999945791  0.338222607  0.993111035
     0.989009108  0.339545254  0.327807440
     0.000000000  0.333333333  0.666666667
     0.000000000  0.666666667  0.000000000
     0.000000000  0.666666667  0.333333333
     0.000000000  0.666666667  0.666666667
     0.331351318  0.002777459  0.002337253
     0.335630415  0.986173693  0.340535481
     0.333333333  0.000000000  0.666666667
     0.321731883  0.341261016  0.992404949
     0.337429437  0.334164973  0.322479831
     0.333333333  0.333333333  0.666666667
     0.333333333  0.666666667  0.000000000
     0.333333333  0.666666667  0.333333333
     0.333333333  0.666666667  0.666666667
     0.666666667  0.000000000  0.000000000
     0.666666667  0.000000000  0.333333333
     0.666666667  0.000000000  0.666666667
     0.666666667  0.333333333  0.000000000
     0.666666667  0.333333333  0.333333333
     0.666666667  0.333333333  0.666666667
     0.666666667  0.666666667  0.000000000
     0.666666667  0.666666667  0.333333333
     0.666666667  0.666666667  0.666666667
     0.167291737  0.171716887  0.494496882
     0.175190180  0.166156411  0.833927188
     0.168527860  0.500646003  0.170764052
     0.166666667  0.500000000  0.500000000
     0.166666667  0.500000000  0.833333333
     0.166776792  0.843492256  0.172998924
     0.166666667  0.833333333  0.500000000
     0.166666667  0.833333333  0.833333333
     0.499317139  0.167553490  0.167069445
     0.500000000  0.166666667  0.500000000
     0.500000000  0.166666667  0.833333333
     0.500000000  0.500000000  0.166666667
     0.500000000  0.500000000  0.500000000
     0.500000000  0.500000000  0.833333333
     0.500000000  0.833333333  0.166666667
     0.500000000  0.833333333  0.500000000
     0.500000000  0.833333333  0.833333333
     0.838566240  0.161233279  0.164011040
     0.833333333  0.166666667  0.500000000
     0.833333333  0.166666667  0.833333333
     0.833333333  0.500000000  0.166666667
     0.833333333  0.500000000  0.500000000
     0.833333333  0.500000000  0.833333333
     0.833333333  0.833333333  0.166666667
     0.833333333  0.833333333  0.500000000
     0.833333333  0.833333333  0.833333333

  ion indices of the primitive-cell ions
   primitive index   ion index
                 1           1
                 2           2
                 3           3
                 4           4
                 5           5
                 6           6
                 7           7
                 8           8
                 9           9
                10          10
                11          11
                12          12
                13          13
                14          14
                15          15
                16          16
                17          17
                18          18
                19          19
                20          20
                21          21
                22          22
                23          23
                24          24
                25          25
                26          26
                27          27
                28          28
                29          29
                30          30
                31          31
                32          32
                33          33
                34          34
                35          35
                36          36
                37          37
                38          38
                39          39
                40          40
                41          41
                42          42
                43          43
                44          44
                45          45
                46          46
                47          47
                48          48
                49          49
                50          50
                51          51
                52          52
                53          53

----------------------------------------------------------------------------------------

 
 
 KPOINTS: Num irrep kpoints: 1                    

Automatic generation of k-mesh.
 Grid dimensions read from file:
 generate k-points for:    1    1    1

 Generating k-lattice:

  Cartesian coordinates                     Fractional coordinates (reciprocal lattice)
     0.081790586  0.000000000  0.000000000     1.000000000  0.000000000  0.000000000
     0.000000000  0.081790586  0.000000000     0.000000000  1.000000000  0.000000000
     0.000000000  0.000000000  0.081790586     0.000000000  0.000000000  1.000000000

  Length of vectors
     0.081790586  0.081790586  0.081790586

  Shift w.r.t. Gamma in fractional coordinates (k-lattice)
     0.000000000  0.000000000  0.000000000

 
 Subroutine IBZKPT returns following result:
 ===========================================
 
 Found      1 irreducible k-points:
 
 Following reciprocal coordinates:
            Coordinates               Weight
  0.000000  0.000000  0.000000      1.000000
 
 Following cartesian coordinates:
            Coordinates               Weight
  0.000000  0.000000  0.000000      1.000000
 


--------------------------------------------------------------------------------------------------------




 Dimension of arrays:
   k-points           NKPTS =      1   k-points in BZ     NKDIM =      1   number of bands    NBANDS=    282
   number of dos      NEDOS =    301   number of ions     NIONS =     53
   non local maximal  LDIM  =      5   non local SUM 2l+1 LMDIM =     13
   total plane-waves  NPLWV = 110592
   max r-space proj   IRMAX =   1304   max aug-charges    IRDMAX=   3224
   dimension x,y,z NGX =    48 NGY =   48 NGZ =   48
   dimension x,y,z NGXF=    96 NGYF=   96 NGZF=   96
   support grid    NGXF=    96 NGYF=   96 NGZF=   96
   ions per type =              27  26
   NGX,Y,Z   is equivalent  to a cutoff of   6.53,  6.53,  6.53 a.u.
   NGXF,Y,Z  is equivalent  to a cutoff of  13.05, 13.05, 13.05 a.u.

 SYSTEM =  unknown system                          
 POSCAR =  Cs27 Cl26                               

 Startparameter for this run:
   NWRITE =      2    write-flag & timer
   PREC   = normal    normal or accurate (medium, high low for compatibility)
   ISTART =      0    job   : 0-new  1-cont  2-samecut
   ICHARG =      2    charge: 1-file 2-atom 10-const
   ISPIN  =      2    spin polarized calculation?
   LNONCOLLINEAR =      F non collinear calculations
   LSORBIT =      F    spin-orbit coupling
   INIWAV =      1    electr: 0-lowe 1-rand  2-diag
   LASPH  =      T    aspherical Exc in radial PAW
 Electronic Relaxation 1
   ENCUT  =  262.5 eV  19.29 Ry    4.39 a.u.  16.15 16.15 16.15*2*pi/ulx,y,z
   ENINI  =  262.5     initial cutoff
   ENAUG  =  407.9 eV  augmentation charge cutoff
   NELM   =    100;   NELMIN=  2; NELMDL= -5     # of ELM steps 
   EDIFF  = 0.1E-04   stopping-criterion for ELM
   LREAL  =      T    real-space projection
   NLSPLINE    = F    spline interpolate recip. space projectors
   LCOMPAT=      F    compatible to vasp.4.4
   GGA_COMPAT  = T    GGA compatible to vasp.4.4-vasp.4.6
   LMAXPAW     = -100 max onsite density
   LMAXMIX     =    2 max onsite mixed and CHGCAR
   VOSKOWN=      0    Vosko Wilk Nusair interpolation
   ROPT   =   -0.00050  -0.00050
 Ionic relaxation
   EDIFFG = -.3E-01   stopping-criterion for IOM
   NSW    =    300    number of steps for IOM
   NBLOCK =      1;   KBLOCK =    300    inner block; outer block 
   IBRION =      2    ionic relax: 0-MD 1-quasi-New 2-CG
   NFREE  =      1    steps in history (QN), initial steepest desc. (CG)
   ISIF   =      2    stress and relaxation
   IWAVPR =     11    prediction:  0-non 1-charg 2-wave 3-comb
   ISYM   =      2    0-nonsym 1-usesym 2-fastsym
   LCORR  =      T    Harris-Foulkes like correction to forces

   POTIM  = 0.5000    time-step for ionic-motion
   TEIN   =    0.0    initial temperature
   TEBEG  =    0.0;   TEEND  =   0.0 temperature during run
   SMASS  =  -3.00    Nose mass-parameter (am)
   estimated Nose-frequenzy (Omega)   =  0.10E-29 period in steps = 0.13E+47 mass=  -0.342E-26a.u.
   SCALEE = 1.0000    scale energy and forces
   NPACO  =    256;   APACO  = 10.0  distance and # of slots for P.C.
   PSTRESS=    0.0 pullay stress

  Mass of Ions in am
   POMASS = 132.90 35.45
  Ionic Valenz
   ZVAL   =   9.00  7.00
  Atomic Wigner-Seitz radii
   RWIGS  =  -1.00 -1.00
  virtual crystal weights 
   VCA    =   1.00  1.00
   NELECT =     426.0000    total number of electrons
   NUPDOWN=      -1.0000    fix difference up-down

 DOS related values:
   EMIN   =  10.00;   EMAX   =-10.00  energy-range for DOS
   EFERMI =   0.00;   METHOD = LEGACY      
   ISMEAR =     0;   SIGMA  =   0.10  broadening in eV -4-tet -1-fermi 0-gaus
   EFERMI_NEDOS =   21; number of points for ismear=-14 and -15

 Electronic relaxation 2 (details)
   IALGO  =     38    algorithm
   LDIAG  =      T    sub-space diagonalisation (order eigenvalues)
   LSUBROT=      F    optimize rotation matrix (better conditioning)
   LROBUST=      F    robust break criterion during scf (extrapolated energy error)
   ISEARCH=      0    line search for conjugate gradient (0, 1=use gradient)
   TURBO    =      0    0=normal 1=particle mesh
   IRESTART =      0    0=no restart 2=restart with 2 vectors
   NREBOOT  =      0    no. of reboots
   NMIN     =      0    reboot dimension
   EREF     =   0.00    reference energy to select bands
   IMIX   =      4    mixing-type and parameters
     AMIX     =   0.40;   BMIX     =  1.00
     AMIX_MAG =   1.60;   BMIX_MAG =  1.00
     AMIN     =   0.10
     WC   =   100.;   INIMIX=   1;  MIXPRE=   1;  MAXMIX= -45

 Intra band minimization:
   WEIMIN = 0.0010     energy-eigenvalue tresh-hold
   EBREAK =  0.89E-08  absolut break condition
   DEPER  =   0.30     relativ break condition  

   TIME   =   0.40     timestep for ELM

  volume/ion in A,a.u.               =      34.48       232.71
  Fermi-wavevector in a.u.,A,eV,Ry     =   1.007507  1.903912 13.810867  1.015070
  Thomas-Fermi vector in A             =   2.140316
 
 Write flags
   LWAVE        =      F    write WAVECAR
   LDOWNSAMPLE  =      F    k-point downsampling of WAVECAR
   LCHARG       =      F    write CHGCAR
   LVTOT        =      F    write LOCPOT, total local potential
   LVHAR        =      F    write LOCPOT, Hartree potential only
   WRT_POTENTIAL= false  ! write potential to hdf5 file
   LELF         =      F    write electronic localiz. function (ELF)
   LORBIT       =     10    0 simple, 1 ext, 2 COOP (PROOUT), +10 PAW based schemes


 Python interface
   PLUGINS active      =      F    recompile with -DPLUGINS to activate
 
 Dipole corrections
   LMONO      =      F    monopole corrections only (constant potential shift)
   LDIPOL     =      F    correct potential (dipole corrections)
   IDIPOL     =      0    1-x, 2-y, 3-z, 4-all directions 
   EPSILON    =  1.0000000 bulk dielectric constant
   LVACPOTAV  =      F  vacuum potentials using an averaging scheme for the charge density
   VACPOTFLAT =  0.1000000 required flatness to determine vacuum potential
 
Coulomb truncation method
  LTRUNCATE          =      F  Coulomb kernel truncation to be used

 
 Exchange correlation treatment:
   GGA     = PS    functional components
   XC_C    = 1    coefficients multiplying the functional components
   LIBXC   =     F    Libxc                    
   VOSKOWN =     0    Vosko Wilk Nusair interpolation
   LHFCALC =     F    Hartree Fock is set to
   LHFONE  =     F    Hartree Fock one center treatment
   AEXX    =    0.0000 exact exchange contribution

 Parameters of functionals:
   PS:
     No parameter
 
 Van der Waals corrections
   IVDW    =     0    specifies the selected vdW correction

 Linear response parameters
   LEPSILON=     F    determine dielectric tensor
   LRPA    =     F    only Hartree local field effects (RPA)
   LNABLA  =     F    use nabla operator in PAW spheres
   LVEL    =     F    velocity operator in full k-point grid
   CSHIFT  =0.1000    complex shift for real part using Kramers Kronig
   OMEGAMAX=  -1.0    maximum frequency
   DEG_THRESHOLD= 0.2000000E-02 threshold for treating states as degnerate
   RTIME   =   -0.100 relaxation time in fs
  (WPLASMAI=    0.000 imaginary part of plasma frequency in eV, 0.658/RTIME)
   DFIELD  = 0.0000000 0.0000000 0.0000000 field for delta impulse in time
 
  Optional k-point grid parameters
   LKPOINTS_OPT  =     F    use optional k-point grid
   KPOINTS_OPT_MODE=     1    mode for optional k-point grid
 
 Orbital magnetization related:
   ORBITALMAG=     F  switch on orbital magnetization
   LCHIMAG   =     F  perturbation theory with respect to B field
   DQ        =  0.001000  dq finite difference perturbation B field
   LLRAUG    =     F  two centre corrections for induced B field
   LBONE     =     F  B-component reconstruction in AE one-centre
   LVGVCALC  =     T  calculate vGv susceptibility
   LVGVAPPL  =     F  apply vGv susceptibility instead of pGv for G=0

 Random number generation:
   RANDOM_GENERATOR = DEFAULT
   PCG_SEED         = not used


--------------------------------------------------------------------------------------------------------


 conjugate gradient relaxation of ions
 charge density and potential will be updated during run
 spin polarized calculation
 Variant of blocked Davidson
 Davidson routine will perform the subspace rotation
 perform sub-space diagonalisation
    after iterative eigenvector-optimisation
 modified Broyden-mixing scheme, WC =      100.0
 initial mixing is a Kerker type mixing with AMIX =  0.4000 and BMIX =      1.0000
 Hartree-type preconditioning will be used
 using additional bands            69
 real space projection scheme for non local part
 use partial core corrections
 calculate Harris-corrections to forces 
   (improved forces if not selfconsistent)
 use gradient corrections 
 use of overlap-Matrix (Vanderbilt PP)
 Gauss-broadening in eV      SIGMA  =   0.10


--------------------------------------------------------------------------------------------------------


  energy-cutoff  :      262.47
  volume of cell :     1827.64
      direct lattice vectors                 reciprocal lattice vectors
    12.226345917  0.000000000  0.000000000     0.081790586  0.000000000  0.000000000
     0.000000000 12.226345917  0.000000000     0.000000000  0.081790586  0.000000000
     0.000000000  0.000000000 12.226345917     0.000000000  0.000000000  0.081790586

  length of vectors
    12.226345917 12.226345917 12.226345917     0.081790586  0.081790586  0.081790586


 
 k-points in units of 2pi/SCALE and weight: Num irrep kpoints: 1                    
   0.00000000  0.00000000  0.00000000       1.000
 
 k-points in reciprocal lattice and weights: Num irrep kpoints: 1                    
   0.00000000  0.00000000  0.00000000       1.000
 
 position of ions in fractional coordinates (direct lattice) 
   0.99426450  0.00748214  0.99708089
   0.00821244  0.00799729  0.33485020
   0.00000000  0.00000000  0.66666667
   0.99994579  0.33822261  0.99311104
   0.98900911  0.33954525  0.32780744
   0.00000000  0.33333333  0.66666667
   0.00000000  0.66666667  0.00000000
   0.00000000  0.66666667  0.33333333
   0.00000000  0.66666667  0.66666667
   0.33135132  0.00277746  0.00233725
   0.33563042  0.98617369  0.34053548
   0.33333333  0.00000000  0.66666667
   0.32173188  0.34126102  0.99240495
   0.33742944  0.33416497  0.32247983
   0.33333333  0.33333333  0.66666667
   0.33333333  0.66666667  0.00000000
   0.33333333  0.66666667  0.33333333
   0.33333333  0.66666667  0.66666667
   0.66666667  0.00000000  0.00000000
   0.66666667  0.00000000  0.33333333
   0.66666667  0.00000000  0.66666667
   0.66666667  0.33333333  0.00000000
   0.66666667  0.33333333  0.33333333
   0.66666667  0.33333333  0.66666667
   0.66666667  0.66666667  0.00000000
   0.66666667  0.66666667  0.33333333
   0.66666667  0.66666667  0.66666667
   0.16729174  0.17171689  0.49449688
   0.17519018  0.16615641  0.83392719
   0.16852786  0.50064600  0.17076405
   0.16666667  0.50000000  0.50000000
   0.16666667  0.50000000  0.83333333
   0.16677679  0.84349226  0.17299892
   0.16666667  0.83333333  0.50000000
   0.16666667  0.83333333  0.83333333
   0.49931714  0.16755349  0.16706944
   0.50000000  0.16666667  0.50000000
   0.50000000  0.16666667  0.83333333
   0.50000000  0.50000000  0.16666667
   0.50000000  0.50000000  0.50000000
   0.50000000  0.50000000  0.83333333
   0.50000000  0.83333333  0.16666667
   0.50000000  0.83333333  0.50000000
   0.50000000  0.83333333  0.83333333
   0.83856624  0.16123328  0.16401104
   0.83333333  0.16666667  0.50000000
   0.83333333  0.16666667  0.83333333
   0.83333333  0.50000000  0.16666667
   0.83333333  0.50000000  0.50000000
   0.83333333  0.50000000  0.83333333
   0.83333333  0.83333333  0.16666667
   0.83333333  0.83333333  0.50000000
   0.83333333  0.83333333  0.83333333
 
 position of ions in cartesian coordinates  (Angst):
  12.15622176  0.09147917 12.19065592
   0.10040807  0.09777760  4.09399435
   0.00000000  0.00000000  8.15089728
  12.22568315  4.13522659 12.14211905
  12.09196748  4.15139773  4.00788716
   0.00000000  4.07544864  8.15089728
   0.00000000  8.15089728  0.00000000
   0.00000000  8.15089728  4.07544864
   0.00000000  8.15089728  8.15089728
   4.05121584  0.03395818  0.02857606
   4.10353356 12.05730070  4.16350459
   4.07544864  0.00000000  8.15089728
   3.93360530  4.17237523 12.13348620
   4.12552903  4.08561656  3.94274996
   4.07544864  4.07544864  8.15089728
   4.07544864  8.15089728  0.00000000
   4.07544864  8.15089728  4.07544864
   4.07544864  8.15089728  8.15089728
   8.15089728  0.00000000  0.00000000
   8.15089728  0.00000000  4.07544864
   8.15089728  0.00000000  8.15089728
   8.15089728  4.07544864  0.00000000
   8.15089728  4.07544864  4.07544864
   8.15089728  4.07544864  8.15089728
   8.15089728  8.15089728  0.00000000
   8.15089728  8.15089728  4.07544864
   8.15089728  8.15089728  8.15089728
   2.04536665  2.09947007  6.04588993
   2.14193575  2.03148575 10.19588227
   2.06047991  6.12107122  2.08782036
   2.03772432  6.11317296  6.11317296
   2.03772432  6.11317296 10.18862160
   2.03907075 10.31282810  2.11514469
   2.03772432 10.18862160  6.11317296
   2.03772432 10.18862160 10.18862160
   6.10482407  2.04856693  2.04264883
   6.11317296  2.03772432  6.11317296
   6.11317296  2.03772432 10.18862160
   6.11317296  6.11317296  2.03772432
   6.11317296  6.11317296  6.11317296
   6.11317296  6.11317296 10.18862160
   6.11317296 10.18862160  2.03772432
   6.11317296 10.18862160  6.11317296
   6.11317296 10.18862160 10.18862160
  10.25260093  1.97129385  2.00525571
  10.18862160  2.03772432  6.11317296
  10.18862160  2.03772432 10.18862160
  10.18862160  6.11317296  2.03772432
  10.18862160  6.11317296  6.11317296
  10.18862160  6.11317296 10.18862160
  10.18862160 10.18862160  2.03772432
  10.18862160 10.18862160  6.11317296
  10.18862160 10.18862160 10.18862160
 


--------------------------------------------------------------------------------------------------------


 k-point     1 :   0.0000 0.0000 0.0000  plane waves:   17557

 maximum and minimum number of plane-waves per node :     17557    17557

 maximum number of plane-waves:     17557
 maximum index in each direction: 
   IXMAX=   16   IYMAX=   16   IZMAX=   16
   IXMIN=  -16   IYMIN=  -16   IZMIN=  -16


 serial   3D FFT for wavefunctions
 parallel 3D FFT for charge:
    minimum data exchange during FFTs selected (reduces bandwidth)


 total amount of memory used by VASP MPI-rank0   179556. kBytes
=======================================================================

   base                                    :      30000. kBytes
   nonlr-proj                              :       6451. kBytes
   fftplans                                :      15598. kBytes
   grid                                    :      44900. kBytes
   one-center                              :        859. kBytes
   wavefun                                 :      81748. kBytes
 
     INWAV:  cpu time      0.0001: real time      0.0002
 Broyden mixing: mesh for mixing (old mesh)
   NGX = 33   NGY = 33   NGZ = 33
  (NGX  = 96   NGY  = 96   NGZ  = 96)
  gives a total of  35937 points

 initial charge density was supplied:
 charge density of overlapping atoms calculated
 number of electron     425.0000000 magnetization      53.0000000
 keeping initial charge density in first step


--------------------------------------------------------------------------------------------------------


 Maximum index for non-local projection operator          1230
 Maximum index for augmentation-charges          1495 (set IRDMAX)


--------------------------------------------------------------------------------------------------------


 First call to EWALD:  gamma=   0.145
 Maximum number of real-space cells   3x   3x   3
 Maximum number of reciprocal cells   3x   3x   3

    FEWALD:  cpu time      0.0422: real time      0.0424


--------------------------------------- Ionic step        1  -------------------------------------------




--------------------------------------- Iteration      1(   1)  ---------------------------------------


    POTLOK:  cpu time      0.4291: real time      0.4905
    SETDIJ:  cpu time      2.3028: real time      2.3097
     EDDAV:  cpu time      0.5751: real time      0.5849
       DOS:  cpu time      0.0005: real time      0.0015
    --------------------------------------------
      LOOP:  cpu time      3.3076: real time      3.3878

 eigenvalue-minimisations  :  1128
 total energy-change (2. order) : 0.2353883E+04  (-0.1230676E+05)
 number of electron     425.0000000 magnetization      53.0000000
 augmentation part      425.0000000 magnetization      53.0000000

 Free energy of the ion-electron system (eV)
  ---------------------------------------------------
  alpha Z        PSCENC =      1436.48757412
  Ewald energy   TEWEN  =    -21813.34278416
  -Hartree energ DENC   =     -3540.62809052
  -exchange      EXHF   =         0.00000000
  -V(xc)+E(xc)   XCENC  =       832.66554279
  PAW double counting   =     19905.73909771   -19710.81889590
  entropy T*S    EENTRO =        -0.11405030
  eigenvalues    EBANDS =      -386.11293197
  atomic energy  EATOM  =     25630.00721240
  Solvation  Ediel_sol  =         0.00000000
  ---------------------------------------------------
  free energy    TOTEN  =      2353.88267417 eV

  energy without entropy =     2353.99672447  energy(sigma->0) =     2353.93969932


--------------------------------------------------------------------------------------------------------




--------------------------------------- Iteration      1(   2)  ---------------------------------------


     EDDAV:  cpu time      0.5451: real time      0.5482
       DOS:  cpu time      0.0004: real time      0.0004
    --------------------------------------------
      LOOP:  cpu time      0.5454: real time      0.5473

 eigenvalue-minimisations  :  1404
 total energy-change (2. order) :-0.2314043E+04  (-0.2241638E+04)
 number of electron     425.0000000 magnetization      53.0000000
 augmentation part      425.0000000 magnetization      53.0000000

 Free energy of the ion-electron system (eV)
  ---------------------------------------------------
  alpha Z        PSCENC =      1436.48757412
  Ewald energy   TEWEN  =    -21813.34278416
  -Hartree energ DENC   =     -3540.62809052
  -exchange      EXHF   =         0.00000000
  -V(xc)+E(xc)   XCENC  =       832.66554279
  PAW double counting   =     19905.73909771   -19710.81889590
  entropy T*S    EENTRO =        -0.03113524
  eigenvalues    EBANDS =     -2700.23912176
  atomic energy  EATOM  =     25630.00721240
  Solvation  Ediel_sol  =         0.00000000
  ---------------------------------------------------
  free energy    TOTEN  =        39.83939945 eV

  energy without entropy =       39.87053469  energy(sigma->0) =       39.85496707


--------------------------------------------------------------------------------------------------------




--------------------------------------- Iteration      1(   3)  ---------------------------------------


     EDDAV:  cpu time      0.5367: real time      0.5379
       DOS:  cpu time      0.0004: real time      0.0004
    --------------------------------------------
      LOOP:  cpu time      0.5370: real time      0.5383

 eigenvalue-minimisations  :  1360
 total energy-change (2. order) :-0.2100110E+03  (-0.2089819E+03)
 number of electron     425.0000000 magnetization      53.0000000
 augmentation part      425.0000000 magnetization      53.0000000

 Free energy of the ion-electron system (eV)
  ---------------------------------------------------
  alpha Z        PSCENC =      1436.48757412
  Ewald energy   TEWEN  =    -21813.34278416
  -Hartree energ DENC   =     -3540.62809052
  -exchange      EXHF   =         0.00000000
  -V(xc)+E(xc)   XCENC  =       832.66554279
  PAW double counting   =     19905.73909771   -19710.81889590
  entropy T*S    EENTRO =        -0.01736823
  eigenvalues    EBANDS =     -2910.26384008
  atomic energy  EATOM  =     25630.00721240
  Solvation  Ediel_sol  =         0.00000000
  ---------------------------------------------------
  free energy    TOTEN  =      -170.17155186 eV

  energy without entropy =     -170.15418363  energy(sigma->0) =     -170.16286775


--------------------------------------------------------------------------------------------------------




--------------------------------------- Iteration      1(   4)  ---------------------------------------


     EDDAV:  cpu time      0.5282: real time      0.5296
       DOS:  cpu time      0.0004: real time      0.0004
    --------------------------------------------
      LOOP:  cpu time      0.5286: real time      0.5300

 eigenvalue-minimisations  :  1336
 total energy-change (2. order) :-0.3229112E+01  (-0.3221374E+01)
 number of electron     425.0000000 magnetization      53.0000000
 augmentation part      425.0000000 magnetization      53.0000000

 Free energy of the ion-electron system (eV)
  ---------------------------------------------------
  alpha Z        PSCENC =      1436.48757412
  Ewald energy   TEWEN  =    -21813.34278416
  -Hartree energ DENC   =     -3540.62809052
  -exchange      EXHF   =         0.00000000
  -V(xc)+E(xc)   XCENC  =       832.66554279
  PAW double counting   =     19905.73909771   -19710.81889590
  entropy T*S    EENTRO =        -0.01759792
  eigenvalues    EBANDS =     -2913.49272263
  atomic energy  EATOM  =     25630.00721240
  Solvation  Ediel_sol  =         0.00000000
  ---------------------------------------------------
  free energy    TOTEN  =      -173.40066411 eV

  energy without entropy =     -173.38306618  energy(sigma->0) =     -173.39186515


--------------------------------------------------------------------------------------------------------




--------------------------------------- Iteration      1(   5)  ---------------------------------------


     EDDAV:  cpu time      0.5251: real time      0.5265
       DOS:  cpu time      0.0004: real time      0.0004
    CHARGE:  cpu time      0.0542: real time      0.0745
    MIXING:  cpu time      0.0107: real time      0.0127
    --------------------------------------------
      LOOP:  cpu time      0.5903: real time      0.6140

 eigenvalue-minimisations  :  1328
 total energy-change (2. order) :-0.6310367E-01  (-0.6305417E-01)
 number of electron     425.9999848 magnetization      35.3235088
 augmentation part      -78.8013921 magnetization      35.0568580

 Broyden mixing:
  rms(total) = 0.26372E+01    rms(broyden)= 0.26366E+01
  rms(prec ) = 0.28785E+01
  weight for this iteration     100.00

 Free energy of the ion-electron system (eV)
  ---------------------------------------------------
  alpha Z        PSCENC =      1436.48757412
  Ewald energy   TEWEN  =    -21813.34278416
  -Hartree energ DENC   =     -3540.62809052
  -exchange      EXHF   =         0.00000000
  -V(xc)+E(xc)   XCENC  =       832.66554279
  PAW double counting   =     19905.73909771   -19710.81889590
  entropy T*S    EENTRO =        -0.01806766
  eigenvalues    EBANDS =     -2913.55535656
  atomic energy  EATOM  =     25630.00721240
  Solvation  Ediel_sol  =         0.00000000
  ---------------------------------------------------
  free energy    TOTEN  =      -173.46376778 eV

  energy without entropy =     -173.44570011  energy(sigma->0) =     -173.45473395


--------------------------------------------------------------------------------------------------------




--------------------------------------- Iteration      1(   6)  ---------------------------------------


    POTLOK:  cpu time      0.0095: real time      0.0096
    SETDIJ:  cpu time      2.3912: real time      2.3958
     EDDAV:  cpu time      0.5042: real time      0.5053
       DOS:  cpu time      0.0004: real time      0.0004
    CHARGE:  cpu time      0.0487: real time      0.0488
    MIXING:  cpu time      0.0107: real time      0.0107
    --------------------------------------------
      LOOP:  cpu time      2.9646: real time      2.9705

 eigenvalue-minimisations  :  1248
 total energy-change (2. order) : 0.6017448E+01  (-0.3181127E+01)
 number of electron     425.9999896 magnetization      24.2607549
 augmentation part      -78.5639532 magnetization      22.7718059

 Broyden mixing:
  rms(total) = 0.14023E+01    rms(broyden)= 0.14019E+01
  rms(prec ) = 0.14897E+01
  weight for this iteration     100.00

 eigenvalues of (default mixing * dielectric matrix)
  average eigenvalue GAMMA=   0.8496
  0.8496

 Free energy of the ion-electron system (eV)
  ---------------------------------------------------
  alpha Z        PSCENC =      1436.48757412
  Ewald energy   TEWEN  =    -21813.34278416
  -Hartree energ DENC   =     -3624.44251235
  -exchange      EXHF   =         0.00000000
  -V(xc)+E(xc)   XCENC  =       844.68549956
  PAW double counting   =     21511.43849081   -21319.01175111
  entropy T*S    EENTRO =        -0.05675913
  eigenvalues    EBANDS =     -2833.21129035
  atomic energy  EATOM  =     25630.00721240
  Solvation  Ediel_sol  =         0.00000000
  ---------------------------------------------------
  free energy    TOTEN  =      -167.44632021 eV

  energy without entropy =     -167.38956108  energy(sigma->0) =     -167.41794064


--------------------------------------------------------------------------------------------------------




--------------------------------------- Iteration      1(   7)  ---------------------------------------


    POTLOK:  cpu time      0.0094: real time      0.0096
    SETDIJ:  cpu time      2.2559: real time      2.2604
     EDDAV:  cpu time      0.5196: real time      0.5207
       DOS:  cpu time      0.0004: real time      0.0004
    CHARGE:  cpu time      0.0483: real time      0.0485
    MIXING:  cpu time      0.0111: real time      0.0118
    --------------------------------------------
      LOOP:  cpu time      2.8446: real time      2.8513

 eigenvalue-minimisations  :  1304
 total energy-change (2. order) :-0.3007643E+01  (-0.6539790E+00)
 number of electron     425.9999918 magnetization      15.9932382
 augmentation part      -78.7140984 magnetization      14.3634311

 Broyden mixing:
  rms(total) = 0.98381E+00    rms(broyden)= 0.98377E+00
  rms(prec ) = 0.10170E+01
  weight for this iteration     100.00

 eigenvalues of (default mixing * dielectric matrix)
  average eigenvalue GAMMA=   0.8103
  0.9573  0.6632

 Free energy of the ion-electron system (eV)
  ---------------------------------------------------
  alpha Z        PSCENC =      1436.48757412
  Ewald energy   TEWEN  =    -21813.34278416
  -Hartree energ DENC   =     -3644.55843010
  -exchange      EXHF   =         0.00000000
  -V(xc)+E(xc)   XCENC  =       843.15002453
  PAW double counting   =     22718.28199791   -22527.05817762
  entropy T*S    EENTRO =        -0.05985271
  eigenvalues    EBANDS =     -2813.36152746
  atomic energy  EATOM  =     25630.00721240
  Solvation  Ediel_sol  =         0.00000000
  ---------------------------------------------------
  free energy    TOTEN  =      -170.45396307 eV

  energy without entropy =     -170.39411036  energy(sigma->0) =     -170.42403672


--------------------------------------------------------------------------------------------------------




--------------------------------------- Iteration      1(   8)  ---------------------------------------


    POTLOK:  cpu time      0.0093: real time      0.0097
    SETDIJ:  cpu time      2.2237: real time      2.2279
     EDDAV:  cpu time      0.5388: real time      0.5400
       DOS:  cpu time      0.0004: real time      0.0004
    CHARGE:  cpu time      0.0488: real time      0.0489
    MIXING:  cpu time      0.0114: real time      0.0114
    --------------------------------------------
      LOOP:  cpu time      2.8323: real time      2.8383

 eigenvalue-minimisations  :  1376
 total energy-change (2. order) :-0.1567146E+01  (-0.8935541E-01)
 number of electron     425.9999923 magnetization       6.1716167
 augmentation part      -78.7559685 magnetization       4.5239793

 Broyden mixing:
  rms(total) = 0.56899E+00    rms(broyden)= 0.56898E+00
  rms(prec ) = 0.58796E+00
  weight for this iteration     100.00

 eigenvalues of (default mixing * dielectric matrix)
  average eigenvalue GAMMA=   1.2867
  2.3024  0.9540  0.6035

 Free energy of the ion-electron system (eV)
  ---------------------------------------------------
  alpha Z        PSCENC =      1436.48757412
  Ewald energy   TEWEN  =    -21813.34278416
  -Hartree energ DENC   =     -3651.40423025
  -exchange      EXHF   =         0.00000000
  -V(xc)+E(xc)   XCENC  =       843.28757624
  PAW double counting   =     23525.50741058   -23335.83292984
  entropy T*S    EENTRO =        -0.06723807
  eigenvalues    EBANDS =     -2806.66370014
  atomic energy  EATOM  =     25630.00721240
  Solvation  Ediel_sol  =         0.00000000
  ---------------------------------------------------
  free energy    TOTEN  =      -172.02110911 eV

  energy without entropy =     -171.95387104  energy(sigma->0) =     -171.98749007


--------------------------------------------------------------------------------------------------------




--------------------------------------- Iteration      1(   9)  ---------------------------------------


    POTLOK:  cpu time      0.0093: real time      0.0098
    SETDIJ:  cpu time      2.1880: real time      2.1924
     EDDAV:  cpu time      0.5145: real time      0.5156
       DOS:  cpu time      0.0004: real time      0.0004
    CHARGE:  cpu time      0.0481: real time      0.0483
    MIXING:  cpu time      0.0118: real time      0.0118
    --------------------------------------------
      LOOP:  cpu time      2.7721: real time      2.7782

 eigenvalue-minimisations  :  1288
 total energy-change (2. order) :-0.1308067E+01  (-0.6810353E-01)
 number of electron     425.9999920 magnetization       3.7814264
 augmentation part      -78.8703507 magnetization       3.5651798

 Broyden mixing:
  rms(total) = 0.24344E+00    rms(broyden)= 0.24343E+00
  rms(prec ) = 0.27873E+00
  weight for this iteration     100.00

 eigenvalues of (default mixing * dielectric matrix)
  average eigenvalue GAMMA=   1.2039
  2.5604  1.0021  0.7004  0.5528

 Free energy of the ion-electron system (eV)
  ---------------------------------------------------
  alpha Z        PSCENC =      1436.48757412
  Ewald energy   TEWEN  =    -21813.34278416
  -Hartree energ DENC   =     -3651.86459163
  -exchange      EXHF   =         0.00000000
  -V(xc)+E(xc)   XCENC  =       843.32606415
  PAW double counting   =     24388.67307539   -24200.72762007
  entropy T*S    EENTRO =        -0.04372289
  eigenvalues    EBANDS =     -2805.84438298
  atomic energy  EATOM  =     25630.00721240
  Solvation  Ediel_sol  =         0.00000000
  ---------------------------------------------------
  free energy    TOTEN  =      -173.32917565 eV

  energy without entropy =     -173.28545276  energy(sigma->0) =     -173.30731420


--------------------------------------------------------------------------------------------------------




--------------------------------------- Iteration      1(  10)  ---------------------------------------


    POTLOK:  cpu time      0.0096: real time      0.0097
    SETDIJ:  cpu time      2.1883: real time      2.1932
     EDDAV:  cpu time      0.5123: real time      0.5135
       DOS:  cpu time      0.0004: real time      0.0004
    CHARGE:  cpu time      0.0479: real time      0.0480
    MIXING:  cpu time      0.0127: real time      0.0127
    --------------------------------------------
      LOOP:  cpu time      2.7711: real time      2.7775

 eigenvalue-minimisations  :  1280
 total energy-change (2. order) :-0.3024842E+00  (-0.1512347E-01)
 number of electron     425.9999919 magnetization       2.5858397
 augmentation part      -78.9042393 magnetization       2.6180877

 Broyden mixing:
  rms(total) = 0.16547E+00    rms(broyden)= 0.16547E+00
  rms(prec ) = 0.20710E+00
  weight for this iteration     100.00

 eigenvalues of (default mixing * dielectric matrix)
  average eigenvalue GAMMA=   1.1308
  2.5969  0.9437  0.7617  0.7617  0.5902

 Free energy of the ion-electron system (eV)
  ---------------------------------------------------
  alpha Z        PSCENC =      1436.48757412
  Ewald energy   TEWEN  =    -21813.34278416
  -Hartree energ DENC   =     -3650.12529512
  -exchange      EXHF   =         0.00000000
  -V(xc)+E(xc)   XCENC  =       843.14134037
  PAW double counting   =     24526.97215119   -24339.27029449
  entropy T*S    EENTRO =        -0.01461777
  eigenvalues    EBANDS =     -2807.48694643
  atomic energy  EATOM  =     25630.00721240
  Solvation  Ediel_sol  =         0.00000000
  ---------------------------------------------------
  free energy    TOTEN  =      -173.63165987 eV

  energy without entropy =     -173.61704211  energy(sigma->0) =     -173.62435099


--------------------------------------------------------------------------------------------------------




--------------------------------------- Iteration      1(  11)  ---------------------------------------


    POTLOK:  cpu time      0.0093: real time      0.0096
    SETDIJ:  cpu time      2.1060: real time      2.1100
     EDDAV:  cpu time      0.5445: real time      0.5457
       DOS:  cpu time      0.0004: real time      0.0004
    CHARGE:  cpu time      0.0482: real time      0.0484
    MIXING:  cpu time      0.0125: real time      0.0125
    --------------------------------------------
      LOOP:  cpu time      2.7209: real time      2.7265

 eigenvalue-minimisations  :  1392
 total energy-change (2. order) :-0.6137109E-01  (-0.8449252E-02)
 number of electron     425.9999918 magnetization       0.0069371
 augmentation part      -78.9109868 magnetization       0.0473824

 Broyden mixing:
  rms(total) = 0.12620E+00    rms(broyden)= 0.12620E+00
  rms(prec ) = 0.15150E+00
  weight for this iteration     100.00

 eigenvalues of (default mixing * dielectric matrix)
  average eigenvalue GAMMA=   1.3990
  2.9270  1.6565  1.6565  0.9019  0.6694  0.5829

 Free energy of the ion-electron system (eV)
  ---------------------------------------------------
  alpha Z        PSCENC =      1436.48757412
  Ewald energy   TEWEN  =    -21813.34278416
  -Hartree energ DENC   =     -3649.04798458
  -exchange      EXHF   =         0.00000000
  -V(xc)+E(xc)   XCENC  =       843.08271707
  PAW double counting   =     24558.91075508   -24371.26152216
  entropy T*S    EENTRO =        -0.00871936
  eigenvalues    EBANDS =     -2808.52027938
  atomic energy  EATOM  =     25630.00721240
  Solvation  Ediel_sol  =         0.00000000
  ---------------------------------------------------
  free energy    TOTEN  =      -173.69303097 eV

  energy without entropy =     -173.68431161  energy(sigma->0) =     -173.68867129


--------------------------------------------------------------------------------------------------------




--------------------------------------- Iteration      1(  12)  ---------------------------------------


    POTLOK:  cpu time      0.0096: real time      0.0100
    SETDIJ:  cpu time      2.1046: real time      2.1088
     EDDAV:  cpu time      0.5318: real time      0.5329
       DOS:  cpu time      0.0004: real time      0.0004
    CHARGE:  cpu time      0.0485: real time      0.0486
    MIXING:  cpu time      0.0134: real time      0.0135
    --------------------------------------------
      LOOP:  cpu time      2.7082: real time      2.7142

 eigenvalue-minimisations  :  1344
 total energy-change (2. order) :-0.6829125E-01  (-0.4207581E-01)
 number of electron     425.9999918 magnetization       0.1418761
 augmentation part      -78.9307059 magnetization       0.1618635

 Broyden mixing:
  rms(total) = 0.58391E-01    rms(broyden)= 0.58384E-01
  rms(prec ) = 0.62131E-01
  weight for this iteration     100.00

 eigenvalues of (default mixing * dielectric matrix)
  average eigenvalue GAMMA=   1.3516
  3.0812  1.7962  1.7962  0.8867  0.7249  0.6369  0.5392

 Free energy of the ion-electron system (eV)
  ---------------------------------------------------
  alpha Z        PSCENC =      1436.48757412
  Ewald energy   TEWEN  =    -21813.34278416
  -Hartree energ DENC   =     -3646.24989582
  -exchange      EXHF   =         0.00000000
  -V(xc)+E(xc)   XCENC  =       842.98090852
  PAW double counting   =     24635.25633727   -24447.65590577
  entropy T*S    EENTRO =        -0.00273314
  eigenvalues    EBANDS =     -2811.24203564
  atomic energy  EATOM  =     25630.00721240
  Solvation  Ediel_sol  =         0.00000000
  ---------------------------------------------------
  free energy    TOTEN  =      -173.76132222 eV

  energy without entropy =     -173.75858908  energy(sigma->0) =     -173.75995565


--------------------------------------------------------------------------------------------------------




--------------------------------------- Iteration      1(  13)  ---------------------------------------


    POTLOK:  cpu time      0.0100: real time      0.0103
    SETDIJ:  cpu time      2.1071: real time      2.1112
     EDDAV:  cpu time      0.5046: real time      0.5056
       DOS:  cpu time      0.0004: real time      0.0004
    CHARGE:  cpu time      0.0483: real time      0.0485
    MIXING:  cpu time      0.0136: real time      0.0137
    --------------------------------------------
      LOOP:  cpu time      2.6840: real time      2.6896

 eigenvalue-minimisations  :  1248
 total energy-change (2. order) :-0.2951360E-02  (-0.4487182E-02)
 number of electron     425.9999918 magnetization       0.1435950
 augmentation part      -78.9251661 magnetization       0.1556731

 Broyden mixing:
  rms(total) = 0.46171E-01    rms(broyden)= 0.46166E-01
  rms(prec ) = 0.47706E-01
  weight for this iteration     100.00

 eigenvalues of (default mixing * dielectric matrix)
  average eigenvalue GAMMA=   1.2483
  3.0493  1.8445  1.8445  0.9051  0.6992  0.6283  0.5078  0.5078

 Free energy of the ion-electron system (eV)
  ---------------------------------------------------
  alpha Z        PSCENC =      1436.48757412
  Ewald energy   TEWEN  =    -21813.34278416
  -Hartree energ DENC   =     -3646.45595886
  -exchange      EXHF   =         0.00000000
  -V(xc)+E(xc)   XCENC  =       842.97049084
  PAW double counting   =     24645.20192558   -24457.58650687
  entropy T*S    EENTRO =        -0.00202807
  eigenvalues    EBANDS =     -2811.04419857
  atomic energy  EATOM  =     25630.00721240
  Solvation  Ediel_sol  =         0.00000000
  ---------------------------------------------------
  free energy    TOTEN  =      -173.76427358 eV

  energy without entropy =     -173.76224551  energy(sigma->0) =     -173.76325954


--------------------------------------------------------------------------------------------------------




--------------------------------------- Iteration      1(  14)  ---------------------------------------


    POTLOK:  cpu time      0.0096: real time      0.0101
    SETDIJ:  cpu time      2.1120: real time      2.1168
     EDDAV:  cpu time      0.5482: real time      0.5494
       DOS:  cpu time      0.0004: real time      0.0004
    CHARGE:  cpu time      0.0481: real time      0.0482
    MIXING:  cpu time      0.0144: real time      0.0144
    --------------------------------------------
      LOOP:  cpu time      2.7326: real time      2.7392

 eigenvalue-minimisations  :  1400
 total energy-change (2. order) :-0.3011133E-03  (-0.1464181E-03)
 number of electron     425.9999918 magnetization      -0.0017758
 augmentation part      -78.9244174 magnetization       0.0086277

 Broyden mixing:
  rms(total) = 0.32779E-01    rms(broyden)= 0.32779E-01
  rms(prec ) = 0.33952E-01
  weight for this iteration     100.00

 eigenvalues of (default mixing * dielectric matrix)
  average eigenvalue GAMMA=   1.3412
  2.7241  2.7241  1.3774  1.3774  1.1564  0.8519  0.5843  0.6376  0.6376

 Free energy of the ion-electron system (eV)
  ---------------------------------------------------
  alpha Z        PSCENC =      1436.48757412
  Ewald energy   TEWEN  =    -21813.34278416
  -Hartree energ DENC   =     -3646.36184354
  -exchange      EXHF   =         0.00000000
  -V(xc)+E(xc)   XCENC  =       842.95610097
  PAW double counting   =     24649.52035980   -24461.89410739
  entropy T*S    EENTRO =        -0.00176588
  eigenvalues    EBANDS =     -2811.13532102
  atomic energy  EATOM  =     25630.00721240
  Solvation  Ediel_sol  =         0.00000000
  ---------------------------------------------------
  free energy    TOTEN  =      -173.76457469 eV

  energy without entropy =     -173.76280882  energy(sigma->0) =     -173.76369175


--------------------------------------------------------------------------------------------------------




--------------------------------------- Iteration      1(  15)  ---------------------------------------


    POTLOK:  cpu time      0.0097: real time      0.0100
    SETDIJ:  cpu time      2.1052: real time      2.1094
     EDDAV:  cpu time      0.4954: real time      0.4966
       DOS:  cpu time      0.0004: real time      0.0004
    CHARGE:  cpu time      0.0483: real time      0.0484
    MIXING:  cpu time      0.0153: real time      0.0154
    --------------------------------------------
      LOOP:  cpu time      2.6742: real time      2.6802

 eigenvalue-minimisations  :  1216
 total energy-change (2. order) :-0.2171602E-02  (-0.1449560E-02)
 number of electron     425.9999918 magnetization       0.0059420
 augmentation part      -78.9259783 magnetization       0.0085575

 Broyden mixing:
  rms(total) = 0.11140E-01    rms(broyden)= 0.11138E-01
  rms(prec ) = 0.12214E-01
  weight for this iteration     100.00

 eigenvalues of (default mixing * dielectric matrix)
  average eigenvalue GAMMA=   1.3071
  2.8119  2.8119  1.4976  1.4976  1.0393  0.7927  0.7927  0.5934  0.6171  0.6171

 Free energy of the ion-electron system (eV)
  ---------------------------------------------------
  alpha Z        PSCENC =      1436.48757412
  Ewald energy   TEWEN  =    -21813.34278416
  -Hartree energ DENC   =     -3645.90926037
  -exchange      EXHF   =         0.00000000
  -V(xc)+E(xc)   XCENC  =       842.91570346
  PAW double counting   =     24661.33259743   -24473.67835240
  entropy T*S    EENTRO =        -0.00118127
  eigenvalues    EBANDS =     -2811.57825551
  atomic energy  EATOM  =     25630.00721240
  Solvation  Ediel_sol  =         0.00000000
  ---------------------------------------------------
  free energy    TOTEN  =      -173.76674629 eV

  energy without entropy =     -173.76556502  energy(sigma->0) =     -173.76615566


--------------------------------------------------------------------------------------------------------




--------------------------------------- Iteration      1(  16)  ---------------------------------------


    POTLOK:  cpu time      0.0099: real time      0.0103
    SETDIJ:  cpu time      2.1206: real time      2.1250
     EDDAV:  cpu time      0.5317: real time      0.5331
       DOS:  cpu time      0.0004: real time      0.0003
    CHARGE:  cpu time      0.0487: real time      0.0489
    MIXING:  cpu time      0.0156: real time      0.0157
    --------------------------------------------
      LOOP:  cpu time      2.7269: real time      2.7333

 eigenvalue-minimisations  :  1344
 total energy-change (2. order) :-0.2668197E-03  (-0.1052349E-03)
 number of electron     425.9999918 magnetization      -0.0048991
 augmentation part      -78.9246472 magnetization      -0.0027500

 Broyden mixing:
  rms(total) = 0.64052E-02    rms(broyden)= 0.64049E-02
  rms(prec ) = 0.67394E-02
  weight for this iteration     100.00

 eigenvalues of (default mixing * dielectric matrix)
  average eigenvalue GAMMA=   1.3063
  2.8446  2.8446  1.5764  1.5764  1.0221  1.0221  0.7775  0.7775  0.7410  0.5938
  0.5938

 Free energy of the ion-electron system (eV)
  ---------------------------------------------------
  alpha Z        PSCENC =      1436.48757412
  Ewald energy   TEWEN  =    -21813.34278416
  -Hartree energ DENC   =     -3645.92694541
  -exchange      EXHF   =         0.00000000
  -V(xc)+E(xc)   XCENC  =       842.91200908
  PAW double counting   =     24665.87585810   -24478.22027463
  entropy T*S    EENTRO =        -0.00101437
  eigenvalues    EBANDS =     -2811.55864826
  atomic energy  EATOM  =     25630.00721240
  Solvation  Ediel_sol  =         0.00000000
  ---------------------------------------------------
  free energy    TOTEN  =      -173.76701311 eV

  energy without entropy =     -173.76599875  energy(sigma->0) =     -173.76650593


--------------------------------------------------------------------------------------------------------




--------------------------------------- Iteration      1(  17)  ---------------------------------------


    POTLOK:  cpu time      0.0095: real time      0.0099
    SETDIJ:  cpu time      2.1151: real time      2.1193
     EDDAV:  cpu time      0.5149: real time      0.5161
       DOS:  cpu time      0.0004: real time      0.0004
    CHARGE:  cpu time      0.0485: real time      0.0486
    MIXING:  cpu time      0.0164: real time      0.0164
    --------------------------------------------
      LOOP:  cpu time      2.7047: real time      2.7107

 eigenvalue-minimisations  :  1288
 total energy-change (2. order) :-0.1662198E-03  (-0.4529541E-04)
 number of electron     425.9999918 magnetization      -0.0003700
 augmentation part      -78.9246933 magnetization       0.0008740

 Broyden mixing:
  rms(total) = 0.42975E-02    rms(broyden)= 0.42975E-02
  rms(prec ) = 0.45300E-02
  weight for this iteration     100.00

 eigenvalues of (default mixing * dielectric matrix)
  average eigenvalue GAMMA=   1.3708
  2.9496  2.9496  2.0260  2.0260  1.1114  1.1114  0.8852  0.8852  0.5915  0.6420
  0.6357  0.6357

 Free energy of the ion-electron system (eV)
  ---------------------------------------------------
  alpha Z        PSCENC =      1436.48757412
  Ewald energy   TEWEN  =    -21813.34278416
  -Hartree energ DENC   =     -3645.91908103
  -exchange      EXHF   =         0.00000000
  -V(xc)+E(xc)   XCENC  =       842.91224009
  PAW double counting   =     24666.28494621   -24478.62915875
  entropy T*S    EENTRO =        -0.00097409
  eigenvalues    EBANDS =     -2811.56715414
  atomic energy  EATOM  =     25630.00721240
  Solvation  Ediel_sol  =         0.00000000
  ---------------------------------------------------
  free energy    TOTEN  =      -173.76717933 eV

  energy without entropy =     -173.76620525  energy(sigma->0) =     -173.76669229


--------------------------------------------------------------------------------------------------------




--------------------------------------- Iteration      1(  18)  ---------------------------------------


    POTLOK:  cpu time      0.0094: real time      0.0097
    SETDIJ:  cpu time      2.1090: real time      2.1138
     EDDAV:  cpu time      0.5020: real time      0.5033
       DOS:  cpu time      0.0004: real time      0.0004
    CHARGE:  cpu time      0.0485: real time      0.0486
    MIXING:  cpu time      0.0169: real time      0.0169
    --------------------------------------------
      LOOP:  cpu time      2.6861: real time      2.6926

 eigenvalue-minimisations  :  1240
 total energy-change (2. order) :-0.1177130E-03  (-0.5463231E-04)
 number of electron     425.9999918 magnetization       0.0022326
 augmentation part      -78.9245306 magnetization       0.0029586

 Broyden mixing:
  rms(total) = 0.19550E-02    rms(broyden)= 0.19541E-02
  rms(prec ) = 0.20459E-02
  weight for this iteration     100.00

 eigenvalues of (default mixing * dielectric matrix)
  average eigenvalue GAMMA=   1.3770
  3.1722  3.1722  2.1213  2.1213  1.1539  1.1539  0.8302  0.8302  0.8342  0.6606
  0.6606  0.5899  0.6009

 Free energy of the ion-electron system (eV)
  ---------------------------------------------------
  alpha Z        PSCENC =      1436.48757412
  Ewald energy   TEWEN  =    -21813.34278416
  -Hartree energ DENC   =     -3645.94706312
  -exchange      EXHF   =         0.00000000
  -V(xc)+E(xc)   XCENC  =       842.91460314
  PAW double counting   =     24665.66899529   -24478.01498043
  entropy T*S    EENTRO =        -0.00092907
  eigenvalues    EBANDS =     -2811.53992523
  atomic energy  EATOM  =     25630.00721240
  Solvation  Ediel_sol  =         0.00000000
  ---------------------------------------------------
  free energy    TOTEN  =      -173.76729705 eV

  energy without entropy =     -173.76636798  energy(sigma->0) =     -173.76683251


--------------------------------------------------------------------------------------------------------




--------------------------------------- Iteration      1(  19)  ---------------------------------------


    POTLOK:  cpu time      0.0094: real time      0.0098
    SETDIJ:  cpu time      2.1140: real time      2.1183
     EDDAV:  cpu time      0.4161: real time      0.4171
       DOS:  cpu time      0.0003: real time      0.0003
    CHARGE:  cpu time      0.0485: real time      0.0486
    MIXING:  cpu time      0.0176: real time      0.0177
    --------------------------------------------
      LOOP:  cpu time      2.6058: real time      2.6118

 eigenvalue-minimisations  :   936
 total energy-change (2. order) :-0.2638302E-04  (-0.8868968E-05)
 number of electron     425.9999918 magnetization       0.0005471
 augmentation part      -78.9244292 magnetization       0.0010893

 Broyden mixing:
  rms(total) = 0.16042E-02    rms(broyden)= 0.16041E-02
  rms(prec ) = 0.16769E-02
  weight for this iteration     100.00

 eigenvalues of (default mixing * dielectric matrix)
  average eigenvalue GAMMA=   1.4212
  3.4180  3.4180  2.1248  2.1248  1.3765  1.3765  1.0061  1.0061  0.8561  0.6894
  0.6894  0.5967  0.6072  0.6072

 Free energy of the ion-electron system (eV)
  ---------------------------------------------------
  alpha Z        PSCENC =      1436.48757412
  Ewald energy   TEWEN  =    -21813.34278416
  -Hartree energ DENC   =     -3645.95466197
  -exchange      EXHF   =         0.00000000
  -V(xc)+E(xc)   XCENC  =       842.91497842
  PAW double counting   =     24665.54936992   -24477.89575057
  entropy T*S    EENTRO =        -0.00091278
  eigenvalues    EBANDS =     -2811.53234882
  atomic energy  EATOM  =     25630.00721240
  Solvation  Ediel_sol  =         0.00000000
  ---------------------------------------------------
  free energy    TOTEN  =      -173.76732343 eV

  energy without entropy =     -173.76641065  energy(sigma->0) =     -173.76686704


--------------------------------------------------------------------------------------------------------




--------------------------------------- Iteration      1(  20)  ---------------------------------------


    POTLOK:  cpu time      0.0096: real time      0.0100
    SETDIJ:  cpu time      2.1028: real time      2.1071
     EDDAV:  cpu time      0.4047: real time      0.4057
       DOS:  cpu time      0.0003: real time      0.0003
    CHARGE:  cpu time      0.0489: real time      0.0490
    MIXING:  cpu time      0.0188: real time      0.0189
    --------------------------------------------
      LOOP:  cpu time      2.5852: real time      2.5909

 eigenvalue-minimisations  :   896
 total energy-change (2. order) :-0.1395586E-04  (-0.9622843E-05)
 number of electron     425.9999918 magnetization       0.0005292
 augmentation part      -78.9244739 magnetization       0.0007253

 Broyden mixing:
  rms(total) = 0.72311E-03    rms(broyden)= 0.72295E-03
  rms(prec ) = 0.74653E-03
  weight for this iteration     100.00

 eigenvalues of (default mixing * dielectric matrix)
  average eigenvalue GAMMA=   1.4177
  4.0978  3.0919  2.1464  2.1464  1.4621  1.4621  1.0528  1.0528  0.8108  0.7090
  0.7090  0.6658  0.6658  0.5966  0.5966

 Free energy of the ion-electron system (eV)
  ---------------------------------------------------
  alpha Z        PSCENC =      1436.48757412
  Ewald energy   TEWEN  =    -21813.34278416
  -Hartree energ DENC   =     -3645.95306751
  -exchange      EXHF   =         0.00000000
  -V(xc)+E(xc)   XCENC  =       842.91529436
  PAW double counting   =     24664.89609706   -24477.24310927
  entropy T*S    EENTRO =        -0.00091401
  eigenvalues    EBANDS =     -2811.53364039
  atomic energy  EATOM  =     25630.00721240
  Solvation  Ediel_sol  =         0.00000000
  ---------------------------------------------------
  free energy    TOTEN  =      -173.76733739 eV

  energy without entropy =     -173.76642338  energy(sigma->0) =     -173.76688038


--------------------------------------------------------------------------------------------------------




--------------------------------------- Iteration      1(  21)  ---------------------------------------


    POTLOK:  cpu time      0.0094: real time      0.0098
    SETDIJ:  cpu time      2.0816: real time      2.0858
     EDDAV:  cpu time      0.3907: real time      0.3917
       DOS:  cpu time      0.0003: real time      0.0003
    --------------------------------------------
      LOOP:  cpu time      2.4820: real time      2.4876

 eigenvalue-minimisations  :   848
 total energy-change (2. order) :-0.2197064E-05  (-0.1076529E-05)
 number of electron     425.9999918 magnetization       0.0005292
 augmentation part      -78.9244739 magnetization       0.0007253

 Free energy of the ion-electron system (eV)
  ---------------------------------------------------
  alpha Z        PSCENC =      1436.48757412
  Ewald energy   TEWEN  =    -21813.34278416
  -Hartree energ DENC   =     -3645.96070687
  -exchange      EXHF   =         0.00000000
  -V(xc)+E(xc)   XCENC  =       842.91591973
  PAW double counting   =     24664.77831650   -24477.12557224
  entropy T*S    EENTRO =        -0.00091407
  eigenvalues    EBANDS =     -2811.52638499
  atomic energy  EATOM  =     25630.00721240
  Solvation  Ediel_sol  =         0.00000000
  ---------------------------------------------------
  free energy    TOTEN  =      -173.76733958 eV

  energy without entropy =     -173.76642551  energy(sigma->0) =     -173.76688254


--------------------------------------------------------------------------------------------------------




 average (electrostatic) potential at core
  the test charge radii are     1.1312  0.9406
  (the norm of the test charge is              1.0000)
       1 -48.9252       2 -48.8534       3 -49.1692       4 -49.0601       5 -48.9277
       6 -49.1638       7 -49.1957       8 -49.1046       9 -49.1463      10 -48.8581
      11 -48.9005      12 -49.1046      13 -48.9565      14 -48.7891      15 -49.0590
      16 -49.1817      17 -49.1274      18 -49.1406      19 -49.0875      20 -49.0817
      21 -49.1210      22 -49.1229      23 -49.1650      24 -49.1291      25 -49.1384
      26 -49.1359      27 -49.0651      28 -92.8768      29 -93.0411      30 -93.0480
      31 -92.9565      32 -93.1902      33 -92.9464      34 -93.0790      35 -93.0364
[...]


 VOLUME and BASIS-vectors are now :
 -----------------------------------------------------------------------------
  energy-cutoff  :      262.47
  volume of cell :     1827.64
      direct lattice vectors                 reciprocal lattice vectors
    12.226345917  0.000000000  0.000000000     0.081790586  0.000000000  0.000000000
     0.000000000 12.226345917  0.000000000     0.000000000  0.081790586  0.000000000
     0.000000000  0.000000000 12.226345917     0.000000000  0.000000000  0.081790586

  length of vectors
    12.226345917 12.226345917 12.226345917     0.081790586  0.081790586  0.081790586


 FORCES acting on ions
    electron-ion (+dipol)            ewald-force                    non-local-force                 convergence-correction
 -----------------------------------------------------------------------------------------------
   -.398E+02 -.402E+02 -.393E+02   0.400E+02 0.404E+02 0.395E+02   -.212E+00 -.196E+00 -.200E+00   -.502E-03 0.185E-02 -.643E-03
   -.405E+02 -.383E+02 0.401E+02   0.407E+02 0.385E+02 -.403E+02   -.232E+00 -.248E+00 0.210E+00   -.781E-02 -.282E-02 0.285E-02
   -.716E+01 -.670E+01 -.364E+00   0.722E+01 0.675E+01 0.368E+00   -.578E-01 -.517E-01 0.555E-02   -.178E-02 0.157E-02 -.186E-02
   -.401E+02 0.397E+02 -.389E+02   0.404E+02 -.399E+02 0.391E+02   -.220E+00 0.202E+00 -.211E+00   0.249E-03 -.265E-02 0.266E-02
   -.395E+02 0.398E+02 0.394E+02   0.397E+02 -.400E+02 -.396E+02   -.209E+00 0.158E+00 0.210E+00   -.120E-02 -.226E-02 0.138E-02
   -.707E+01 0.597E+01 -.787E-02   0.714E+01 -.604E+01 0.116E-01   -.632E-01 0.698E-01 -.155E-02   -.272E-02 -.152E-02 0.194E-02
   -.655E+01 -.378E+00 -.655E+01   0.661E+01 0.374E+00 0.662E+01   -.608E-01 0.876E-02 -.671E-01   -.106E-02 -.364E-02 -.223E-02
   -.727E+01 0.922E-01 0.722E+01   0.734E+01 -.742E-01 -.728E+01   -.541E-01 -.351E-01 0.448E-01   -.222E-02 0.304E-05 0.275E-02
   -.647E+01 0.361E-01 -.621E-02   0.639E+01 -.427E-01 0.129E-01   0.756E-01 0.759E-02 -.876E-02   0.963E-03 0.109E-02 -.161E-02
   0.399E+02 -.397E+02 -.392E+02   -.401E+02 0.399E+02 0.394E+02   0.206E+00 -.218E+00 -.226E+00   0.310E-02 0.664E-03 -.358E-02
   0.406E+02 -.399E+02 0.389E+02   -.408E+02 0.401E+02 -.391E+02   0.181E+00 -.201E+00 0.203E+00   0.566E-02 0.177E-04 -.274E-03
   0.728E+01 -.744E+01 -.236E+00   -.736E+01 0.750E+01 0.240E+00   0.646E-01 -.516E-01 -.103E-01   0.442E-02 -.649E-03 -.278E-02
   0.403E+02 0.388E+02 -.400E+02   -.406E+02 -.390E+02 0.402E+02   0.196E+00 0.200E+00 -.172E+00   0.281E-02 -.435E-02 -.973E-03
   0.401E+02 0.399E+02 0.391E+02   -.403E+02 -.401E+02 -.394E+02   0.209E+00 0.208E+00 0.239E+00   0.506E-02 0.161E-02 0.529E-02
   0.727E+01 0.639E+01 0.203E+00   -.734E+01 -.646E+01 -.217E+00   0.559E-01 0.627E-01 0.240E-01   0.321E-02 -.165E-02 0.199E-02
   0.687E+01 0.177E+00 -.669E+01   -.694E+01 -.183E+00 0.676E+01   0.637E-01 -.471E-02 -.639E-01   0.324E-02 -.943E-03 -.186E-02
   0.803E+01 0.938E+00 0.735E+01   -.811E+01 -.947E+00 -.741E+01   0.528E-01 -.584E-02 0.452E-01   0.594E-02 0.506E-02 0.348E-02
   0.716E+01 0.614E+00 -.135E+00   -.710E+01 -.626E+00 0.149E+00   -.704E-01 0.162E-02 -.119E-01   0.291E-02 0.292E-02 -.259E-02
   0.606E+00 -.651E+01 -.658E+01   -.597E+00 0.656E+01 0.664E+01   -.175E-01 -.496E-01 -.560E-01   -.547E-03 0.287E-02 -.153E-03
   0.449E-01 -.751E+01 0.763E+01   -.282E-01 0.756E+01 -.771E+01   -.274E-01 -.397E-01 0.558E-01   -.350E-02 0.246E-03 0.538E-02
   -.233E+00 -.601E+01 -.960E+00   0.241E+00 0.594E+01 0.984E+00   0.498E-03 0.647E-01 -.937E-03   -.342E-02 0.302E-02 -.541E-02
   0.664E+00 0.602E+01 -.636E+01   -.658E+00 -.609E+01 0.643E+01   -.190E-01 0.722E-01 -.669E-01   0.141E-02 -.113E-02 -.697E-03
   0.322E+00 0.660E+01 0.729E+01   -.320E+00 -.667E+01 -.734E+01   -.211E-02 0.642E-01 0.466E-01   -.348E-03 -.137E-02 0.268E-02
   0.286E-01 0.515E+01 -.342E+00   -.282E-01 -.508E+01 0.350E+00   -.581E-03 -.554E-01 -.384E-02   -.164E-02 -.420E-02 -.302E-02
   -.241E+00 -.361E+00 -.600E+01   0.245E+00 0.358E+00 0.592E+01   0.379E-02 0.119E-01 0.724E-01   -.324E-02 -.430E-03 0.154E-02
   -.803E+00 0.241E+00 0.697E+01   0.811E+00 -.257E+00 -.691E+01   0.633E-02 0.133E-01 -.705E-01   -.427E-02 0.181E-02 0.247E-02
   -.947E+00 0.437E+00 -.830E+00   0.957E+00 -.447E+00 0.849E+00   0.108E-01 0.125E-02 -.101E-02   -.450E-02 0.210E-02 -.478E-02
   -.328E+00 -.452E+00 0.375E+02   0.336E+00 0.454E+00 -.377E+02   -.101E-01 0.941E-02 0.192E+00   -.595E-03 -.366E-02 0.618E-02
   -.290E+00 0.507E+00 -.380E+02   0.285E+00 -.504E+00 0.382E+02   0.123E-01 -.165E-01 -.160E+00   -.401E-03 0.260E-02 -.319E-03
   -.879E+00 0.377E+02 -.647E+00   0.877E+00 -.378E+02 0.643E+00   0.131E-01 0.162E+00 0.192E-01   -.230E-03 -.311E-02 -.244E-02
   -.348E+00 0.112E+02 0.105E+02   0.343E+00 -.113E+02 -.106E+02   0.112E-01 0.390E-01 0.570E-01   0.770E-03 0.109E-03 -.190E-02
   -.141E+00 0.116E+02 -.113E+02   0.133E+00 -.116E+02 0.113E+02   0.555E-02 0.345E-01 -.354E-01   0.366E-02 -.318E-02 0.512E-03
   0.401E+00 -.374E+02 0.195E+00   -.405E+00 0.376E+02 -.187E+00   -.239E-03 -.197E+00 -.156E-01   0.264E-02 -.560E-02 -.391E-03
   0.791E+00 -.112E+02 0.116E+02   -.793E+00 0.112E+02 -.116E+02   -.660E-02 -.435E-01 0.298E-01   0.305E-02 0.151E-02 -.252E-02
   0.414E-01 -.109E+02 -.109E+02   -.476E-01 0.109E+02 0.109E+02   0.897E-02 -.495E-01 -.534E-01   0.148E-02 0.255E-02 -.228E-02
   0.373E+02 -.487E+00 -.207E-01   -.375E+02 0.483E+00 0.218E-01   0.191E+00 0.930E-02 -.236E-02   0.130E-02 0.503E-03 0.828E-03
   0.121E+02 -.878E+00 0.115E+02   -.121E+02 0.874E+00 -.116E+02   0.402E-01 0.101E-01 0.381E-01   0.296E-02 0.536E-03 0.950E-03
   0.111E+02 0.140E+00 -.113E+02   -.111E+02 -.137E+00 0.114E+02   0.443E-01 -.399E-02 -.412E-01   -.159E-02 -.117E-04 -.257E-02
   0.111E+02 0.115E+02 0.126E+00   -.111E+02 -.115E+02 -.133E+00   0.528E-01 0.400E-01 0.670E-02   -.146E-02 -.158E-02 0.280E-02
   0.750E+01 0.745E+01 0.672E+01   -.758E+01 -.754E+01 -.680E+01   0.819E-01 0.970E-01 0.882E-01   0.843E-03 0.734E-03 0.843E-04
   0.671E+01 0.750E+01 -.735E+01   -.679E+01 -.758E+01 0.743E+01   0.918E-01 0.744E-01 -.783E-01   0.590E-03 0.121E-02 -.324E-02
   0.110E+02 -.113E+02 0.141E+01   -.110E+02 0.113E+02 -.141E+01   0.413E-01 -.349E-01 -.136E-01   0.144E-02 0.155E-02 0.244E-02
   0.734E+01 -.748E+01 0.687E+01   -.741E+01 0.755E+01 -.694E+01   0.764E-01 -.629E-01 0.711E-01   -.207E-03 0.199E-02 -.159E-02
   0.683E+01 -.720E+01 -.742E+01   -.691E+01 0.728E+01 0.751E+01   0.790E-01 -.773E-01 -.937E-01   0.114E-02 0.646E-03 -.178E-02
   -.378E+02 0.356E+00 -.272E+00   0.380E+02 -.355E+00 0.268E+00   -.174E+00 -.866E-02 0.114E-01   -.539E-02 0.207E-02 -.187E-03
   -.114E+02 -.223E+00 0.111E+02   0.114E+02 0.225E+00 -.111E+02   -.437E-01 -.386E-02 0.430E-01   -.126E-02 0.285E-03 -.411E-03
   -.118E+02 -.103E+00 -.114E+02   0.118E+02 0.103E+00 0.115E+02   -.368E-01 0.462E-02 -.324E-01   -.294E-02 -.110E-02 0.789E-03
   -.113E+02 0.110E+02 -.194E+00   0.113E+02 -.111E+02 0.187E+00   -.381E-01 0.335E-01 0.686E-02   0.315E-03 0.401E-03 0.330E-02
   -.736E+01 0.718E+01 0.646E+01   0.744E+01 -.726E+01 -.654E+01   -.812E-01 0.790E-01 0.901E-01   -.589E-03 0.139E-02 -.193E-02
   -.718E+01 0.717E+01 -.690E+01   0.726E+01 -.725E+01 0.698E+01   -.744E-01 0.689E-01 -.773E-01   -.886E-03 -.358E-03 -.656E-03
   -.114E+02 -.105E+02 0.213E+00   0.114E+02 0.105E+02 -.217E+00   -.433E-01 -.484E-01 0.463E-02   -.170E-02 0.459E-02 0.143E-02
   -.742E+01 -.662E+01 0.689E+01   0.751E+01 0.670E+01 -.697E+01   -.986E-01 -.821E-01 0.785E-01   -.214E-02 0.808E-03 0.284E-03
   -.700E+01 -.653E+01 -.698E+01   0.708E+01 0.661E+01 0.706E+01   -.804E-01 -.884E-01 -.877E-01   -.139E-02 0.108E-02 -.160E-02
 -----------------------------------------------------------------------------------------------
   0.443E-01 -.263E-01 0.231E-01   0.276E-12 -.462E-13 0.124E-13   -.581E-01 -.656E-01 0.310E-01   -.390E-03 0.317E-02 -.225E-02
 
 
 POSITION                                       TOTAL-FORCE (eV/Angst)
 -----------------------------------------------------------------------------------
      0.00757      0.01307      0.00292        -0.004241      0.000295     -0.003640
      0.00972      0.03747      4.06484         0.009541     -0.023526      0.000676
     12.22124      0.00219      8.14425         0.007444      0.002143      0.006122
      0.00124      4.08114      0.00006         0.008417     -0.003473     -0.004607
      0.00823      4.09206      4.06025        -0.006557     -0.010033      0.006077
     12.21962      4.08510      8.14239         0.008080      0.000600      0.003096
     12.22034      8.15947     12.22012         0.001518      0.002395      0.002817
     12.21924      8.17666      4.08110         0.009757     -0.015410     -0.011065
     12.22140      8.15590      8.15150        -0.000505      0.003705     -0.004630
      4.06993      0.01833      0.00787         0.001293     -0.010790     -0.002310
      4.08926      0.00478      4.07105        -0.028424      0.006851      0.002074
      4.08246     12.22284      8.15632        -0.010876      0.012687     -0.009647
      4.07501      4.07403     12.21341        -0.012526      0.010575      0.012246
      4.06578      4.07541      4.04828         0.001526     -0.005623      0.015978
      4.08028      4.08439      8.13362        -0.008185     -0.002118      0.010970
      4.07654      8.16355     12.22146        -0.002178     -0.009625      0.003211
      4.08405      8.15802      4.08210        -0.018919     -0.008401     -0.013585
      4.07995      8.15759      8.15114        -0.006340     -0.005827     -0.001860
      8.15555      0.00146     12.22027        -0.008467     -0.001503      0.000842
      8.16344     12.21991      4.08400        -0.013895      0.015956     -0.019387
      8.14945      0.00149      8.14236         0.005103     -0.004028      0.016570
      8.15453      4.08217     12.21875        -0.010562      0.004326      0.000114
      8.14943      4.08349      4.07745        -0.000333     -0.002248     -0.007295
      8.15119      4.07906      8.14677        -0.001539      0.014165      0.000216
      8.14673      8.15114     12.22161         0.004555      0.011107     -0.006215
      8.14663      8.15303      4.07923         0.010521      0.000207     -0.006848
      8.14433      8.15681      8.14374         0.016120     -0.005059      0.012698
      2.04370      2.04033      6.15053        -0.002351      0.009459     -0.006518
      2.03012      2.05647     10.12478         0.007591     -0.009371      0.020871
      2.02729      6.17987      2.01964         0.010472     -0.017703      0.011474
      2.03288      6.12634      6.10018         0.007409      0.007468      0.015107
      2.03545      6.12907     10.17312         0.001569      0.005471     -0.005558
      2.04172     10.15775      2.04480        -0.001412      0.005909     -0.008686
      2.04617     10.19371      6.12323        -0.005315     -0.005278     -0.000755
      2.03462     10.19977     10.19097         0.004572     -0.008877     -0.014658
      6.16069      2.03730      2.03422        -0.002614      0.007666     -0.001354
      6.12361      2.03537      6.11453         0.004120      0.008120      0.001558
      6.11401      2.04550     10.17885         0.009348     -0.000091     -0.007532
      6.10807      6.12007      2.02841         0.013974      0.007970      0.001408
      6.12297      6.12088      6.11450         0.000915      0.010744      0.004284
      6.11787      6.13414     10.16813         0.008779     -0.002676     -0.000499
      6.12148     10.18603      2.04550         0.007719     -0.000278     -0.010898
      6.12888     10.17306      6.12803         0.000527      0.010753     -0.003127
      6.12483     10.18371     10.18277         0.001449      0.003804     -0.008231
     10.13622      2.05480      2.02832         0.014657     -0.004376      0.006448
     10.18858      2.05118      6.10953        -0.007355     -0.000265      0.005828
     10.17898      2.04159     10.17544        -0.001623      0.005221     -0.003416
     10.17938      6.13224      2.03284        -0.005448      0.004794      0.001637
     10.17592      6.13556      6.11460        -0.001359      0.001498      0.007130
     10.17158      6.13522     10.17065         0.001920     -0.003355     -0.001776
     10.18651     10.20145      2.03498        -0.006655     -0.010113      0.001196
     10.18564     10.18749      6.12347        -0.009974      0.000178     -0.000048
     10.17539     10.18728     10.17631        -0.001247     -0.004016     -0.006502
 -----------------------------------------------------------------------------------
    total drift:                               -0.014184     -0.088733      0.051921


--------------------------------------------------------------------------------------------------------



  FREE ENERGIE OF THE ION-ELECTRON SYSTEM (eV)
  ---------------------------------------------------
  free  energy   TOTEN  =      -173.96885568 eV

  energy  without entropy=     -173.96869107  energy(sigma->0) =     -173.96877337
 d Force = 0.5023366E-02[-0.142E-02, 0.115E-01]  d Energy = 0.5095240E-02-0.719E-04
 d Force =-0.1639128E+01[-0.194E+01,-0.134E+01]  d Ewald  =-0.1639201E+01 0.727E-04
 


--------------------------------------------------------------------------------------------------------


    POTLOK:  cpu time      2.2462: real time      2.2512


--------------------------------------------------------------------------------------------------------




--------------------------------------------------------------------------------------------------------


  
 reached required accuracy - stopping structural energy minimisation
     LOOP+:  cpu time     24.5995: real time     24.6603
    4ORBIT:  cpu time      0.0000: real time      0.0000



 total charge

# of ion       s       p       d       tot
------------------------------------------
    1        1.973   4.694   0.037   6.705
    2        1.976   4.694   0.037   6.707
    3        1.968   4.702   0.036   6.706
    4        1.973   4.694   0.037   6.704
    5        1.974   4.694   0.037   6.706
    6        1.969   4.702   0.036   6.707
    7        1.969   4.702   0.036   6.707
    8        1.970   4.703   0.036   6.708
    9        1.968   4.703   0.036   6.706
   10        1.974   4.694   0.037   6.705
   11        1.973   4.694   0.037   6.705
   12        1.969   4.702   0.036   6.707
   13        1.973   4.694   0.037   6.705
   14        1.975   4.694   0.037   6.706
   15        1.969   4.702   0.036   6.707
   16        1.969   4.702   0.036   6.707
   17        1.969   4.702   0.036   6.707
   18        1.968   4.703   0.036   6.707
   19        1.968   4.702   0.036   6.706
   20        1.969   4.702   0.036   6.707
   21        1.968   4.703   0.036   6.707
   22        1.969   4.702   0.036   6.707
   23        1.969   4.702   0.036   6.707
   24        1.968   4.703   0.036   6.707
   25        1.968   4.703   0.036   6.706
   26        1.968   4.703   0.036   6.707
   27        1.972   4.700   0.036   6.708
   28        1.584   3.552   0.000   5.136
   29        1.584   3.552   0.000   5.136
   30        1.584   3.552   0.000   5.136
   31        1.583   3.556   0.000   5.139
   32        1.583   3.556   0.000   5.139
   33        1.584   3.552   0.000   5.136
   34        1.583   3.556   0.000   5.139
   35        1.583   3.556   0.000   5.139
   36        1.584   3.552   0.000   5.136
   37        1.583   3.556   0.000   5.139
   38        1.583   3.556   0.000   5.139
   39        1.583   3.556   0.000   5.139
   40        1.584   3.554   0.000   5.138
   41        1.584   3.554   0.000   5.138
   42        1.583   3.556   0.000   5.139
   43        1.584   3.555   0.000   5.139
   44        1.584   3.554   0.000   5.138
   45        1.584   3.552   0.000   5.136
   46        1.583   3.556   0.000   5.139
   47        1.583   3.556   0.000   5.139
   48        1.583   3.556   0.000   5.139
   49        1.584   3.554   0.000   5.138
   50        1.584   3.554   0.000   5.138
   51        1.583   3.556   0.000   5.139
   52        1.584   3.554   0.000   5.138
   53        1.584   3.554   0.000   5.138
--------------------------------------------------
tot         94.370 219.313   0.976 314.659



 magnetization (x)

# of ion       s       p       d       tot
------------------------------------------
    1       -0.000  -0.000  -0.000  -0.000
    2        0.000   0.000  -0.000   0.000
    3       -0.000  -0.000  -0.000  -0.000
    4       -0.000   0.000   0.000  -0.000
    5       -0.000   0.000   0.000  -0.000
    6       -0.000   0.000  -0.000  -0.000
    7       -0.000  -0.000   0.000  -0.000
    8       -0.000  -0.000  -0.000  -0.000
    9       -0.000  -0.000   0.000  -0.000
   10       -0.000   0.000   0.000  -0.000
   11       -0.000   0.000  -0.000  -0.000
   12       -0.000   0.000   0.000  -0.000
   13       -0.000  -0.000   0.000  -0.000
   14       -0.000  -0.000  -0.000  -0.000
   15        0.000  -0.000   0.000   0.000
   16       -0.000   0.000   0.000  -0.000
   17        0.000   0.000  -0.000   0.000
   18       -0.000   0.000  -0.000  -0.000
   19       -0.000  -0.000  -0.000  -0.000
   20        0.000   0.000  -0.000   0.000
   21        0.000   0.000  -0.000   0.000
   22       -0.000  -0.000   0.000  -0.000
   23       -0.000  -0.000   0.000  -0.000
   24       -0.000  -0.000   0.000  -0.000
   25        0.000  -0.000   0.000   0.000
   26       -0.000   0.000  -0.000  -0.000
   27        0.000   0.000   0.000   0.000
   28        0.000  -0.000   0.000   0.000
   29        0.000   0.000   0.000   0.000
   30       -0.000  -0.000   0.000  -0.000
   31       -0.000   0.000   0.000  -0.000
   32        0.000  -0.000   0.000  -0.000
   33       -0.000  -0.000   0.000  -0.000
   34        0.000  -0.000   0.000  -0.000
   35       -0.000   0.000   0.000   0.000
   36        0.000  -0.000   0.000  -0.000
   37       -0.000   0.000   0.000   0.000
   38       -0.000   0.000   0.000   0.000
   39       -0.000  -0.000   0.000  -0.000
   40        0.000  -0.000   0.000  -0.000
   41        0.000  -0.000   0.000  -0.000
   42        0.000   0.000   0.000   0.000
   43       -0.000   0.000   0.000   0.000
   44        0.000   0.000   0.000   0.000
   45        0.000   0.000   0.000   0.000
   46       -0.000   0.000   0.000   0.000
   47       -0.000   0.000   0.000   0.000
   48        0.000  -0.000   0.000  -0.000
   49        0.000   0.000   0.000   0.000
   50        0.000  -0.000   0.000  -0.000
   51        0.000   0.000   0.000   0.000
   52       -0.000  -0.000   0.000  -0.000
   53       -0.000  -0.000   0.000  -0.000
--------------------------------------------------
tot         -0.000   0.000  -0.000  -0.000
 

 total amount of memory used by VASP MPI-rank0   179556. kBytes
=======================================================================

   base                                    :      30000. kBytes
   nonlr-proj                              :       6451. kBytes
   fftplans                                :      15598. kBytes
   grid                                    :      44900. kBytes
   one-center                              :        859. kBytes
   wavefun                                 :      81748. kBytes
 
  
  
 General timing and accounting informations for this job:
 ========================================================
  
                  Total CPU time used (sec):      278.971
                            User time (sec):      276.679
                          System time (sec):        2.292
                         Elapsed time (sec):      281.627
  
                   Maximum memory used (kb):     1938420.
                   Average memory used (kb):          N/A
  
                          Minor page faults:       247665
                          Major page faults:          398
                 Voluntary context switches:        24210
