<?xml version="1.0" encoding="ISO-8859-1"?>
<modeling>
 <generator>
  <i name="program" type="string">vasp </i>
  <i name="version" type="string">6.5.1  </i>
  <i name="subversion" type="string">10Mar25 (build May 13 2025 11:33:44) complex                          parallel </i>
  <i name="platform" type="string">LinuxNV </i>
  <i name="date" type="string">2026 05 13 </i>
  <i name="time" type="string">15:05:38 </i>
 </generator>
 <incar>
  <i type="string" name="PREC">Normal</i>
  <i type="string" name="ALGO">Normal</i>
  <i type="int" name="ISPIN">     2</i>
  <i type="int" name="NELM">   100</i>
  <i type="int" name="IBRION">     2</i>
  <i name="EDIFF">      0.00001000</i>
  <i name="EDIFFG">     -0.03000000</i>
  <i type="int" name="NSW">   300</i>
  <i type="int" name="ISIF">     2</i>
  <i name="ENCUT">    262.47200000</i>
  <i name="NELECT">    426.00000000</i>
  <i type="string" name="LREAL">Auto</i>
  <i type="int" name="ISMEAR">     0</i>
  <i name="SIGMA">      0.10000000</i>
  <i type="logical" name="LWAVE"> F  </i>
  <i type="logical" name="LCHARG"> F  </i>
  <i type="int" name="LORBIT">    10</i>
  <i type="logical" name="LASPH"> T  </i>
  <i type="string" name="GGA">Ps</i>
 </incar>
 <primitive_cell>
  <structure name="primitive_cell" >
   <crystal>
    <varray name="basis" >
     <v>      12.22634592       0.00000000       0.00000000 </v>
     <v>       0.00000000      12.22634592       0.00000000 </v>
     <v>       0.00000000       0.00000000      12.22634592 </v>
    </varray>
    <i name="volume">   1827.63740156 </i>
    <varray name="rec_basis" >
     <v>       0.08179059       0.00000000       0.00000000 </v>
     <v>       0.00000000       0.08179059       0.00000000 </v>
     <v>       0.00000000       0.00000000       0.08179059 </v>
    </varray>
   </crystal>
   <varray name="positions" >
    <v>       0.99426450       0.00748214       0.99708089 </v>
    <v>       0.00821244       0.00799729       0.33485020 </v>
    <v>       0.00000000       0.00000000       0.66666667 </v>
    <v>       0.99994579       0.33822261       0.99311104 </v>
    <v>       0.98900911       0.33954525       0.32780744 </v>
    <v>       0.00000000       0.33333333       0.66666667 </v>
    <v>       0.00000000       0.66666667       0.00000000 </v>
    <v>       0.00000000       0.66666667       0.33333333 </v>
    <v>       0.00000000       0.66666667       0.66666667 </v>
    <v>       0.33135132       0.00277746       0.00233725 </v>
    <v>       0.33563042       0.98617369       0.34053548 </v>
    <v>       0.33333333       0.00000000       0.66666667 </v>
    <v>       0.32173188       0.34126102       0.99240495 </v>
    <v>       0.33742944       0.33416497       0.32247983 </v>
    <v>       0.33333333       0.33333333       0.66666667 </v>
    <v>       0.33333333       0.66666667       0.00000000 </v>
    <v>       0.33333333       0.66666667       0.33333333 </v>
    <v>       0.33333333       0.66666667       0.66666667 </v>
    <v>       0.66666667       0.00000000       0.00000000 </v>
    <v>       0.66666667       0.00000000       0.33333333 </v>
    <v>       0.66666667       0.00000000       0.66666667 </v>
    <v>       0.66666667       0.33333333       0.00000000 </v>
    <v>       0.66666667       0.33333333       0.33333333 </v>
    <v>       0.66666667       0.33333333       0.66666667 </v>
    <v>       0.66666667       0.66666667       0.00000000 </v>
    <v>       0.66666667       0.66666667       0.33333333 </v>
    <v>       0.66666667       0.66666667       0.66666667 </v>
    <v>       0.16729174       0.17171689       0.49449688 </v>
    <v>       0.17519018       0.16615641       0.83392719 </v>
    <v>       0.16852786       0.50064600       0.17076405 </v>
    <v>       0.16666667       0.50000000       0.50000000 </v>
    <v>       0.16666667       0.50000000       0.83333333 </v>
    <v>       0.16677679       0.84349226       0.17299892 </v>
    <v>       0.16666667       0.83333333       0.50000000 </v>
    <v>       0.16666667       0.83333333       0.83333333 </v>
    <v>       0.49931714       0.16755349       0.16706944 </v>
    <v>       0.50000000       0.16666667       0.50000000 </v>
    <v>       0.50000000       0.16666667       0.83333333 </v>
    <v>       0.50000000       0.50000000       0.16666667 </v>
    <v>       0.50000000       0.50000000       0.50000000 </v>
    <v>       0.50000000       0.50000000       0.83333333 </v>
    <v>       0.50000000       0.83333333       0.16666667 </v>
    <v>       0.50000000       0.83333333       0.50000000 </v>
    <v>       0.50000000       0.83333333       0.83333333 </v>
    <v>       0.83856624       0.16123328       0.16401104 </v>
    <v>       0.83333333       0.16666667       0.50000000 </v>
    <v>       0.83333333       0.16666667       0.83333333 </v>
    <v>       0.83333333       0.50000000       0.16666667 </v>
    <v>       0.83333333       0.50000000       0.50000000 </v>
    <v>       0.83333333       0.50000000       0.83333333 </v>
    <v>       0.83333333       0.83333333       0.16666667 </v>
    <v>       0.83333333       0.83333333       0.50000000 </v>
    <v>       0.83333333       0.83333333       0.83333333 </v>
   </varray>
  </structure>
  <varray name="primitive_index" >
   <v type="int" >        1 </v>
   <v type="int" >        2 </v>
   <v type="int" >        3 </v>
   <v type="int" >        4 </v>
   <v type="int" >        5 </v>
   <v type="int" >        6 </v>
   <v type="int" >        7 </v>
   <v type="int" >        8 </v>
   <v type="int" >        9 </v>
   <v type="int" >       10 </v>
   <v type="int" >       11 </v>
   <v type="int" >       12 </v>
   <v type="int" >       13 </v>
   <v type="int" >       14 </v>
   <v type="int" >       15 </v>
   <v type="int" >       16 </v>
   <v type="int" >       17 </v>
   <v type="int" >       18 </v>
   <v type="int" >       19 </v>
   <v type="int" >       20 </v>
   <v type="int" >       21 </v>
   <v type="int" >       22 </v>
   <v type="int" >       23 </v>
   <v type="int" >       24 </v>
   <v type="int" >       25 </v>
   <v type="int" >       26 </v>
   <v type="int" >       27 </v>
   <v type="int" >       28 </v>
   <v type="int" >       29 </v>
   <v type="int" >       30 </v>
   <v type="int" >       31 </v>
   <v type="int" >       32 </v>
   <v type="int" >       33 </v>
   <v type="int" >       34 </v>
   <v type="int" >       35 </v>
   <v type="int" >       36 </v>
   <v type="int" >       37 </v>
   <v type="int" >       38 </v>
   <v type="int" >       39 </v>
   <v type="int" >       40 </v>
   <v type="int" >       41 </v>
   <v type="int" >       42 </v>
   <v type="int" >       43 </v>
   <v type="int" >       44 </v>
   <v type="int" >       45 </v>
   <v type="int" >       46 </v>
   <v type="int" >       47 </v>
   <v type="int" >       48 </v>
   <v type="int" >       49 </v>
   <v type="int" >       50 </v>
   <v type="int" >       51 </v>
   <v type="int" >       52 </v>
   <v type="int" >       53 </v>
  </varray>
 </primitive_cell>
 <kpoints>
  <generation param="Gamma">
   <v type="int" name="divisions">       1        1        1 </v>
   <v name="usershift">      0.00000000       0.00000000       0.00000000 </v>
   <v name="genvec1">      1.00000000       0.00000000       0.00000000 </v>
   <v name="genvec2">      0.00000000       1.00000000       0.00000000 </v>
   <v name="genvec3">      0.00000000       0.00000000       1.00000000 </v>
   <v name="shift">      0.00000000       0.00000000       0.00000000 </v>
  </generation>
  <varray name="kpointlist" >
   <v>       0.00000000       0.00000000       0.00000000 </v>
  </varray>
  <varray name="weights" >
   <v>       1.00000000 </v>
  </varray>
 </kpoints>
 <parameters>
  <separator name="general" >
   <i type="string" name="SYSTEM">unknown system</i>
   <i type="logical" name="LCOMPAT"> F  </i>
  </separator>
  <separator name="electronic" >
   <i type="string" name="PREC">normal</i>
   <i name="ENMAX">    262.47200000</i>
   <i name="ENAUG">    407.93300000</i>
   <i name="EDIFF">      0.00001000</i>
   <i type="int" name="IALGO">    38</i>
   <i type="int" name="IWAVPR">    11</i>
   <i type="int" name="NBANDS">   282</i>
   <i type="int" name="NBANDSLOW">    -1</i>
   <i type="int" name="NBANDSHIGH">    -1</i>
   <i name="NELECT">    426.00000000</i>
   <i type="int" name="TURBO">     0</i>
   <i type="int" name="IRESTART">     0</i>
   <i type="int" name="NREBOOT">     0</i>
   <i type="int" name="NMIN">     0</i>
   <i name="EREF">      0.00000000</i>
   <separator name="electronic smearing" >
    <i type="int" name="ISMEAR">     0</i>
    <i name="SIGMA">      0.10000000</i>
    <i name="KSPACING">      0.50000000</i>
    <i type="logical" name="KGAMMA"> T  </i>
    <i type="logical" name="KBLOWUP"> T  </i>
   </separator>
   <separator name="electronic projectors" >
    <i type="logical" name="LREAL"> T  </i>
    <v name="ROPT">     -0.00050000     -0.00050000</v>
    <i type="int" name="LMAXPAW">  -100</i>
    <i type="int" name="LMAXMIX">     2</i>
    <i type="logical" name="NLSPLINE"> F  </i>
   </separator>
   <separator name="electronic startup" >
    <i type="int" name="ISTART">     0</i>
    <i type="int" name="ICHARG">     2</i>
    <i type="int" name="INIWAV">     1</i>
   </separator>
   <separator name="electronic spin" >
    <i type="int" name="ISPIN">     2</i>
    <i type="logical" name="LNONCOLLINEAR"> F  </i>
    <v name="MAGMOM">      1.00000000      1.00000000      1.00000000      1.00000000      1.00000000      1.00000000      1.00000000      1.00000000      1.00000000      1.00000000      1.00000000      1.00000000      1.00000000      1.00000000      1.00000000      1.00000000      1.00000000      1.00000000      1.00000000      1.00000000
      1.00000000      1.00000000      1.00000000      1.00000000      1.00000000      1.00000000      1.00000000      1.00000000      1.00000000      1.00000000      1.00000000      1.00000000      1.00000000      1.00000000      1.00000000      1.00000000      1.00000000      1.00000000      1.00000000      1.00000000
      1.00000000      1.00000000      1.00000000      1.00000000      1.00000000      1.00000000      1.00000000      1.00000000      1.00000000      1.00000000      1.00000000      1.00000000      1.00000000</v>
    <i name="NUPDOWN">     -1.00000000</i>
    <i type="logical" name="LSORBIT"> F  </i>
    <v name="SAXIS">      0.00000000      0.00000000      1.00000000</v>
    <i type="logical" name="LSPIRAL"> F  </i>
    <v name="QSPIRAL">      0.00000000      0.00000000      0.00000000</v>
    <i type="logical" name="LZEROZ"> F  </i>
   </separator>
   <separator name="electronic exchange-correlation" >
    <i type="logical" name="LASPH"> T  </i>
   </separator>
   <separator name="electronic convergence" >
    <i type="int" name="NELM">   100</i>
    <i type="int" name="NELMDL">    -5</i>
    <i type="int" name="NELMIN">     2</i>
    <i name="ENINI">    262.47200000</i>
    <separator name="electronic convergence detail" >
     <i type="logical" name="LDIAG"> T  </i>
     <i type="logical" name="LSUBROT"> F  </i>
     <i type="logical" name="LROBUST"> F  </i>
     <i type="int" name="ISEARCH">     0</i>
     <i name="WEIMIN">      0.00100000</i>
     <i name="EBREAK">      0.00000001</i>
     <i name="DEPER">      0.30000000</i>
     <i type="int" name="NRMM">     4</i>
     <i name="TIME">      0.40000000</i>
    </separator>
   </separator>
   <separator name="electronic mixer" >
    <i name="AMIX">      0.40000000</i>
    <i name="BMIX">      1.00000000</i>
    <i name="AMIN">      0.10000000</i>
    <i name="AMIX_MAG">      1.60000000</i>
    <i name="BMIX_MAG">      1.00000000</i>
    <separator name="electronic mixer details" >
     <i type="int" name="IMIX">     4</i>
     <i type="logical" name="MIXFIRST"> F  </i>
     <i type="int" name="MAXMIX">   -45</i>
     <i name="WC">    100.00000000</i>
     <i type="int" name="INIMIX">     1</i>
     <i type="int" name="MIXPRE">     1</i>
     <i type="int" name="MREMOVE">     5</i>
    </separator>
   </separator>
   <separator name="electronic dipolcorrection" >
    <i type="logical" name="LDIPOL"> F  </i>
    <i type="logical" name="LMONO"> F  </i>
    <i type="int" name="IDIPOL">     0</i>
    <i name="EPSILON">      1.00000000</i>
    <v name="DIPOL">   -100.00000000   -100.00000000   -100.00000000</v>
    <i name="EFIELD">      0.00000000</i>
    <i type="logical" name="LVACPOTAV"> F  </i>
   </separator>
  </separator>
  <separator name="grids" >
   <i type="int" name="NGX">    48</i>
   <i type="int" name="NGY">    48</i>
   <i type="int" name="NGZ">    48</i>
   <i type="int" name="NGXF">    96</i>
   <i type="int" name="NGYF">    96</i>
   <i type="int" name="NGZF">    96</i>
   <i type="logical" name="ADDGRID"> F  </i>
  </separator>
  <separator name="ionic" >
   <i type="int" name="NSW">   300</i>
   <i type="int" name="IBRION">     2</i>
   <i type="int" name="MDALGO">     0</i>
   <i type="int" name="ISIF">     2</i>
   <i name="PSTRESS">      0.00000000</i>
   <i name="EDIFFG">     -0.03000000</i>
   <i type="int" name="NFREE">     1</i>
   <i name="POTIM">      0.50000000</i>
   <i name="SMASS">     -3.00000000</i>
   <i name="SCALEE">      1.00000000</i>
  </separator>
  <separator name="ionic md" >
   <i name="TEBEG">      0.00010000</i>
   <i name="TEEND">      0.00010000</i>
   <i type="int" name="NBLOCK">     1</i>
   <i type="int" name="KBLOCK">   300</i>
   <i type="int" name="NPACO">   256</i>
   <i name="APACO">     10.00000000</i>
  </separator>
  <separator name="symmetry" >
   <i type="int" name="ISYM">     2</i>
   <i name="SYMPREC">      0.00001000</i>
  </separator>
  <separator name="dos" >
   <i type="int" name="LORBIT">    10</i>
   <v name="RWIGS">     -1.00000000     -1.00000000</v>
   <i type="int" name="NEDOS">   301</i>
   <i name="EMIN">     10.00000000</i>
   <i name="EMAX">    -10.00000000</i>
   <i name="EFERMI">      0.00000000</i>
  </separator>
  <separator name="writing" >
   <i type="int" name="NWRITE">     2</i>
   <i type="logical" name="LWAVE"> F  </i>
   <i type="logical" name="LDOWNSAMPLE"> F  </i>
   <i type="logical" name="LCHARG"> F  </i>
   <i type="logical" name="LPARD"> F  </i>
   <i type="logical" name="LVTOT"> F  </i>
   <i type="logical" name="LVHAR"> F  </i>
   <i type="logical" name="LELF"> F  </i>
   <i type="logical" name="LOPTICS"> F  </i>
   <v name="STM">      0.00000000      0.00000000      0.00000000      0.00000000      0.00000000      0.00000000      0.00000000</v>
  </separator>
  <separator name="performance" >
   <i type="int" name="NPAR">     2</i>
   <i type="int" name="NSIM">     4</i>
   <i type="int" name="NBLK">    -1</i>
   <i type="logical" name="LPLANE"> T  </i>
   <i type="logical" name="LSCALAPACK"> T  </i>
   <i type="logical" name="LSCAAWARE"> F  </i>
   <i type="logical" name="LSCALU"> F  </i>
   <i type="logical" name="LASYNC"> F  </i>
   <i type="logical" name="LORBITALREAL"> F  </i>
  </separator>
  <separator name="miscellaneous" >
   <i type="int" name="IDIOT">     3</i>
   <i type="int" name="PHON_NSTRUCT">    -1</i>
   <i type="logical" name="LMUSIC"> F  </i>
   <v name="POMASS">    132.90000000     35.45300000</v>
   <v name="DARWINR">      0.00000000      0.00000000</v>
   <v name="DARWINV">      1.00000000      1.00000000</v>
   <i type="logical" name="LCORR"> T  </i>
  </separator>
  <i type="logical" name="GGA_COMPAT"> T  </i>
  <i type="logical" name="LBERRY"> F  </i>
  <i type="int" name="ICORELEVEL">     0</i>
  <i type="logical" name="LDAU"> F  </i>
  <i type="int" name="I_CONSTRAINED_M">     0</i>
  <separator name="electronic exchange-correlation" >
   <i type="string" name="GGA    ">PS</i>
   <i type="string" name="XC_C">1</i>
   <i type="int" name="VOSKOWN">     0</i>
   <i type="logical" name="LHFCALC"> F  </i>
   <i type="string" name="PRECFOCK"></i>
   <i type="logical" name="LSYMGRAD"> F  </i>
   <i type="logical" name="LHFONE"> F  </i>
   <i type="logical" name="LRHFCALC"> F  </i>
   <i type="logical" name="LTHOMAS"> F  </i>
   <i type="logical" name="LMODELHF"> F  </i>
   <i type="logical" name="LFOCKACE"> F  </i>
   <i name="ENCUT4O">     -1.00000000</i>
   <i type="int" name="EXXOEP">     0</i>
   <i type="int" name="FOURORBIT">     0</i>
   <i name="AEXX">      0.00000000</i>
   <i name="HFALPHA">      0.00000000</i>
   <i name="MCALPHA">      0.00000000</i>
   <i name="ALDAX">      1.00000000</i>
   <i name="AGGAX">      1.00000000</i>
   <i name="AMGGAX">      1.00000000</i>
   <i name="ALDAC">      1.00000000</i>
   <i name="AGGAC">      1.00000000</i>
   <i name="AMGGAC">      1.00000000</i>
   <i type="int" name="NKREDX">     1</i>
   <i type="int" name="NKREDY">     1</i>
   <i type="int" name="NKREDZ">     1</i>
   <i type="logical" name="SHIFTRED"> F  </i>
   <i type="logical" name="ODDONLY"> F  </i>
   <i type="logical" name="EVENONLY"> F  </i>
   <i type="int" name="LMAXFOCK">     0</i>
   <i type="int" name="NMAXFOCKAE">     0</i>
   <i type="logical" name="LFOCKAEDFT"> F  </i>
   <i name="HFSCREEN">      0.00000000</i>
   <i name="HFSCREENC">      0.00000000</i>
   <i type="int" name="NBANDSGWLOW">     0</i>
  </separator>
  <separator name="vdW DFT" >
   <i type="logical" name="LUSE_VDW"> F  </i>
   <i type="int" name="IVDW_NL">    -1</i>
   <i type="logical" name="LSPIN_VDW"> F  </i>
   <i name="ZAB_VDW">     -0.84910000</i>
   <i name="GAMMA_VDW">      1.39626340</i>
   <i name="ALPHA_VDW">      0.00000000</i>
   <i name="PARAM1">      0.12340000</i>
   <i name="PARAM2">      1.00000000</i>
   <i name="BPARAM">      6.30000000</i>
   <i name="CPARAM">      0.00930000</i>
  </separator>
  <separator name="model GW" >
   <i type="int" name="MODEL_GW">     0</i>
   <i name="MODEL_EPS0">     20.69023473</i>
   <i name="MODEL_ALPHA">      1.00000000</i>
  </separator>
  <separator name="linear response parameters" >
   <i type="logical" name="LEPSILON"> F  </i>
   <i type="logical" name="LRPA"> F  </i>
   <i type="logical" name="LNABLA"> F  </i>
   <i type="logical" name="LVEL"> F  </i>
   <i name="CSHIFT">      0.10000000</i>
   <i name="OMEGAMAX">     -1.00000000</i>
   <i name="DEG_THRESHOLD">      0.00200000</i>
   <i name="RTIME">     -0.10000000</i>
   <i name="WPLASMAI">      0.00000000</i>
   <v name="DFIELD">      0.00000000      0.00000000      0.00000000</v>
   <v name="WPLASMA">      0.00000000      0.00000000      0.00000000      0.00000000      0.00000000      0.00000000      0.00000000      0.00000000      0.00000000</v>
  </separator>
  <separator name="orbital magnetization" >
   <i type="logical" name="NUCIND"> F  </i>
   <v name="MAGPOS">      0.00000000      0.00000000      0.00000000</v>
   <i type="logical" name="LNICSALL"> T  </i>
   <i type="logical" name="ORBITALMAG"> F  </i>
   <i type="logical" name="LMAGBLOCH"> F  </i>
   <i type="logical" name="LCHIMAG"> F  </i>
   <i type="logical" name="LGAUGE"> T  </i>
   <i type="int" name="MAGATOM">     0</i>
   <v name="MAGDIPOL">      0.00000000      0.00000000      0.00000000</v>
   <v name="AVECCONST">      0.00000000      0.00000000      0.00000000</v>
  </separator>
  <separator name="response functions" >
   <i type="logical" name="LALL_IN_ONE"> F  </i>
   <i type="int" name="IALL_IN_ONE">    -1</i>
   <i type="int" name="NBANDS_WAVE">    -1</i>
   <i type="logical" name="LFINITE_TEMPERATURE"> F  </i>
   <i type="logical" name="LADDER"> F  </i>
   <i type="logical" name="LRPAFORCE"> F  </i>
   <i type="logical" name="LFXC"> F  </i>
   <i type="logical" name="LHARTREE"> T  </i>
   <i type="int" name="IBSE">     2</i>
   <v type="int" name="KPOINT">    -1     0     0     0</v>
   <i type="logical" name="LTCTC"> F  </i>
   <i type="logical" name="LTCTE"> F  </i>
   <i type="logical" name="LTETE"> F  </i>
   <i type="logical" name="LTRIPLET"> F  </i>
   <i type="logical" name="LFXCEPS"> F  </i>
   <i type="logical" name="LFXHEG"> F  </i>
   <i type="int" name="NATURALO">     2</i>
   <i type="logical" name="LHOLEGF"> F  </i>
   <i type="logical" name="L2ORDER"> F  </i>
   <i type="logical" name="LDMP1"> F  </i>
   <i type="logical" name="LMP2LT"> F  </i>
   <i type="logical" name="LSMP2LT"> F  </i>
   <i type="logical" name="LGWLF"> F  </i>
   <i name="ENCUTGW">     -1.60000002</i>
   <i name="ENCUTGWSOFT">     -1.60000002</i>
   <i name="ENCUTLF">     -1.00000000</i>
   <i type="logical" name="ESF_SPLINES"> F  </i>
   <i name="ESF_CONV">      0.01000000</i>
   <i type="int" name="ESF_NINTER">    15</i>
   <i type="int" name="LMAXMP2">    -1</i>
   <i name="SCISSOR">      0.00000000</i>
   <i type="int" name="NOMEGA">     0</i>
   <i type="int" name="NOMEGAR">     0</i>
   <i type="int" name="NBANDSGW">    -1</i>
   <i type="int" name="NBANDSO">    -1</i>
   <i type="int" name="NBANDSV">    -1</i>
   <i type="int" name="NELMGW">     1</i>
   <i type="int" name="NELMHF">     1</i>
   <i type="int" name="DIM">     3</i>
   <i type="int" name="IESPILON">     4</i>
   <i type="int" name="ANTIRES">     0</i>
   <i name="OMEGAMAX">    -30.00000000</i>
   <i name="OMEGAMIN">    -30.00000000</i>
   <i name="OMEGATL">   -200.00000000</i>
   <i type="int" name="OMEGAGRID">     0</i>
   <i name="CSHIFT">     -0.10000000</i>
   <i type="logical" name="LSELFENERGY"> F  </i>
   <i type="logical" name="LSPECTRAL"> F  </i>
   <i type="logical" name="LSPECTRALGW"> F  </i>
   <i type="logical" name="LSINGLES"> F  </i>
   <i type="logical" name="LFERMIGW"> F  </i>
   <i type="logical" name="ODDONLYGW"> F  </i>
   <i type="logical" name="EVENONLYGW"> F  </i>
   <i type="int" name="NKREDLFX">     1</i>
   <i type="int" name="NKREDLFY">     1</i>
   <i type="int" name="NKREDLFZ">     1</i>
   <i type="int" name="MAXMEM">  2800</i>
   <i type="int" name="TELESCOPE">     0</i>
   <i type="int" name="NTAUPAR">    -1</i>
   <i type="int" name="NOMEGAPAR">    -1</i>
   <i name="DAMP_NEWTON">      0.80000001</i>
   <i name="LAMBDA">      1.00000000</i>
  </separator>
  <separator name="External order field" >
   <i name="OFIELD_KAPPA">      0.00000000</i>
   <v name="OFIELD_K">      0.00000000      0.00000000      0.00000000</v>
   <i name="OFIELD_Q6_NEAR">      0.00000000</i>
   <i name="OFIELD_Q6_FAR">      0.00000000</i>
   <i name="OFIELD_A">      0.00000000</i>
  </separator>
  <separator name="optional k-points parameters" >
   <i type="int" name="KPOINTS_OPT_MODE">     1</i>
   <i type="logical" name="LKPOINTS_OPT"> F  </i>
  </separator>
 </parameters>
 <atominfo>
  <atoms>      53 </atoms>
  <types>       2 </types>
  <array name="atoms" >
   <dimension dim="1">ion</dimension>
   <field type="string">element</field>
   <field type="int">atomtype</field>
   <set>
    <rc><c>Cs</c><c>   1</c></rc>
    <rc><c>Cs</c><c>   1</c></rc>
    <rc><c>Cs</c><c>   1</c></rc>
    <rc><c>Cs</c><c>   1</c></rc>
    <rc><c>Cs</c><c>   1</c></rc>
    <rc><c>Cs</c><c>   1</c></rc>
    <rc><c>Cs</c><c>   1</c></rc>
    <rc><c>Cs</c><c>   1</c></rc>
    <rc><c>Cs</c><c>   1</c></rc>
    <rc><c>Cs</c><c>   1</c></rc>
    <rc><c>Cs</c><c>   1</c></rc>
    <rc><c>Cs</c><c>   1</c></rc>
    <rc><c>Cs</c><c>   1</c></rc>
    <rc><c>Cs</c><c>   1</c></rc>
    <rc><c>Cs</c><c>   1</c></rc>
    <rc><c>Cs</c><c>   1</c></rc>
    <rc><c>Cs</c><c>   1</c></rc>
    <rc><c>Cs</c><c>   1</c></rc>
    <rc><c>Cs</c><c>   1</c></rc>
    <rc><c>Cs</c><c>   1</c></rc>
    <rc><c>Cs</c><c>   1</c></rc>
    <rc><c>Cs</c><c>   1</c></rc>
    <rc><c>Cs</c><c>   1</c></rc>
    <rc><c>Cs</c><c>   1</c></rc>
    <rc><c>Cs</c><c>   1</c></rc>
    <rc><c>Cs</c><c>   1</c></rc>
    <rc><c>Cs</c><c>   1</c></rc>
    <rc><c>Cl</c><c>   2</c></rc>
    <rc><c>Cl</c><c>   2</c></rc>
    <rc><c>Cl</c><c>   2</c></rc>
    <rc><c>Cl</c><c>   2</c></rc>
    <rc><c>Cl</c><c>   2</c></rc>
    <rc><c>Cl</c><c>   2</c></rc>
    <rc><c>Cl</c><c>   2</c></rc>
    <rc><c>Cl</c><c>   2</c></rc>
    <rc><c>Cl</c><c>   2</c></rc>
    <rc><c>Cl</c><c>   2</c></rc>
    <rc><c>Cl</c><c>   2</c></rc>
    <rc><c>Cl</c><c>   2</c></rc>
    <rc><c>Cl</c><c>   2</c></rc>
    <rc><c>Cl</c><c>   2</c></rc>
    <rc><c>Cl</c><c>   2</c></rc>
    <rc><c>Cl</c><c>   2</c></rc>
    <rc><c>Cl</c><c>   2</c></rc>
    <rc><c>Cl</c><c>   2</c></rc>
    <rc><c>Cl</c><c>   2</c></rc>
    <rc><c>Cl</c><c>   2</c></rc>
    <rc><c>Cl</c><c>   2</c></rc>
    <rc><c>Cl</c><c>   2</c></rc>
    <rc><c>Cl</c><c>   2</c></rc>
    <rc><c>Cl</c><c>   2</c></rc>
    <rc><c>Cl</c><c>   2</c></rc>
    <rc><c>Cl</c><c>   2</c></rc>
   </set>
  </array>
  <array name="atomtypes" >
   <dimension dim="1">type</dimension>
   <field type="int">atomspertype</field>
   <field type="string">element</field>
   <field>mass</field>
   <field>valence</field>
   <field type="string">pseudopotential</field>
   <set>
    <rc><c>  27</c><c>Cs</c><c>    132.90000000</c><c>      9.00000000</c><c>  PAW_PBE Cs_sv 08Apr2002               </c></rc>
    <rc><c>  26</c><c>Cl</c><c>     35.45300000</c><c>      7.00000000</c><c>  PAW_PBE Cl 06Sep2000                  </c></rc>
   </set>
  </array>
 </atominfo>
 <structure name="initialpos" >
  <crystal>
   <varray name="basis" >
    <v>      12.22634592       0.00000000       0.00000000 </v>
    <v>       0.00000000      12.22634592       0.00000000 </v>
    <v>       0.00000000       0.00000000      12.22634592 </v>
   </varray>
   <i name="volume">   1827.63740156 </i>
   <varray name="rec_basis" >
    <v>       0.08179059       0.00000000       0.00000000 </v>
    <v>       0.00000000       0.08179059       0.00000000 </v>
    <v>       0.00000000       0.00000000       0.08179059 </v>
   </varray>
  </crystal>
  <varray name="positions" >
   <v>       0.99426450       0.00748214       0.99708089 </v>
   <v>       0.00821244       0.00799729       0.33485020 </v>
   <v>       0.00000000       0.00000000       0.66666667 </v>
   <v>       0.99994579       0.33822261       0.99311104 </v>
   <v>       0.98900911       0.33954525       0.32780744 </v>
   <v>       0.00000000       0.33333333       0.66666667 </v>
   <v>       0.00000000       0.66666667       0.00000000 </v>
   <v>       0.00000000       0.66666667       0.33333333 </v>
   <v>       0.00000000       0.66666667       0.66666667 </v>
   <v>       0.33135132       0.00277746       0.00233725 </v>
   <v>       0.33563042       0.98617369       0.34053548 </v>
   <v>       0.33333333       0.00000000       0.66666667 </v>
   <v>       0.32173188       0.34126102       0.99240495 </v>
   <v>       0.33742944       0.33416497       0.32247983 </v>
   <v>       0.33333333       0.33333333       0.66666667 </v>
   <v>       0.33333333       0.66666667       0.00000000 </v>
   <v>       0.33333333       0.66666667       0.33333333 </v>
   <v>       0.33333333       0.66666667       0.66666667 </v>
   <v>       0.66666667       0.00000000       0.00000000 </v>
   <v>       0.66666667       0.00000000       0.33333333 </v>
   <v>       0.66666667       0.00000000       0.66666667 </v>
   <v>       0.66666667       0.33333333       0.00000000 </v>
   <v>       0.66666667       0.33333333       0.33333333 </v>
   <v>       0.66666667       0.33333333       0.66666667 </v>
   <v>       0.66666667       0.66666667       0.00000000 </v>
   <v>       0.66666667       0.66666667       0.33333333 </v>
   <v>       0.66666667       0.66666667       0.66666667 </v>
   <v>       0.16729174       0.17171689       0.49449688 </v>
   <v>       0.17519018       0.16615641       0.83392719 </v>
   <v>       0.16852786       0.50064600       0.17076405 </v>
   <v>       0.16666667       0.50000000       0.50000000 </v>
   <v>       0.16666667       0.50000000       0.83333333 </v>
   <v>       0.16677679       0.84349226       0.17299892 </v>
   <v>       0.16666667       0.83333333       0.50000000 </v>
   <v>       0.16666667       0.83333333       0.83333333 </v>
   <v>       0.49931714       0.16755349       0.16706944 </v>
   <v>       0.50000000       0.16666667       0.50000000 </v>
   <v>       0.50000000       0.16666667       0.83333333 </v>
   <v>       0.50000000       0.50000000       0.16666667 </v>
   <v>       0.50000000       0.50000000       0.50000000 </v>
   <v>       0.50000000       0.50000000       0.83333333 </v>
   <v>       0.50000000       0.83333333       0.16666667 </v>
   <v>       0.50000000       0.83333333       0.50000000 </v>
   <v>       0.50000000       0.83333333       0.83333333 </v>
   <v>       0.83856624       0.16123328       0.16401104 </v>
   <v>       0.83333333       0.16666667       0.50000000 </v>
   <v>       0.83333333       0.16666667       0.83333333 </v>
   <v>       0.83333333       0.50000000       0.16666667 </v>
   <v>       0.83333333       0.50000000       0.50000000 </v>
   <v>       0.83333333       0.50000000       0.83333333 </v>
   <v>       0.83333333       0.83333333       0.16666667 </v>
   <v>       0.83333333       0.83333333       0.50000000 </v>
   <v>       0.83333333       0.83333333       0.83333333 </v>
  </varray>
 </structure>
 <calculation>
  <scstep>
   <time name="dav">    0.58    0.58</time>
   <time name="total">    3.31    3.39</time>
   <energy>
    <i name="alphaZ">   1436.48757412 </i>
    <i name="ewald"> -21813.34278416 </i>
    <i name="hartreedc">  -3540.62809052 </i>
    <i name="XCdc">    832.66554279 </i>
    <i name="pawpsdc">  19905.73909771 </i>
    <i name="pawaedc"> -19710.81889590 </i>
    <i name="eentropy">     -0.11405030 </i>
    <i name="bandstr">   -386.11293197 </i>
    <i name="atom">  25630.00721240 </i>
    <i name="e_fr_energy">   2353.88267417 </i>
    <i name="e_wo_entrp">   2353.99672447 </i>
    <i name="e_0_energy">   2353.93969932 </i>
   </energy>
  </scstep>
  <scstep>
   <time name="dav">    0.55    0.55</time>
   <time name="total">    0.55    0.55</time>
   <energy>
    <i name="e_fr_energy">     39.83939945 </i>
    <i name="e_wo_entrp">     39.87053469 </i>
    <i name="e_0_energy">     39.85496707 </i>
   </energy>
  </scstep>
  <scstep>
   <time name="dav">    0.54    0.54</time>
   <time name="total">    0.54    0.54</time>
   <energy>
    <i name="e_fr_energy">   -170.17155186 </i>
    <i name="e_wo_entrp">   -170.15418363 </i>
    <i name="e_0_energy">   -170.16286775 </i>
   </energy>
  </scstep>
  <scstep>
   <time name="dav">    0.53    0.53</time>
   <time name="total">    0.53    0.53</time>
   <energy>
    <i name="e_fr_energy">   -173.40066411 </i>
    <i name="e_wo_entrp">   -173.38306618 </i>
    <i name="e_0_energy">   -173.39186515 </i>
   </energy>
  </scstep>
  <scstep>
   <time name="dav">    0.53    0.53</time>
   <time name="total">    0.59    0.61</time>
   <energy>
    <i name="e_fr_energy">   -173.46376778 </i>
    <i name="e_wo_entrp">   -173.44570011 </i>
    <i name="e_0_energy">   -173.45473395 </i>
   </energy>
  </scstep>
  <scstep>
   <time name="dav">    0.50    0.51</time>
   <time name="total">    2.96    2.97</time>
   <energy>
    <i name="e_fr_energy">   -167.44632021 </i>
    <i name="e_wo_entrp">   -167.38956108 </i>
    <i name="e_0_energy">   -167.41794064 </i>
   </energy>
  </scstep>
  <scstep>
   <time name="dav">    0.52    0.52</time>
   <time name="total">    2.84    2.85</time>
   <energy>
    <i name="e_fr_energy">   -170.45396307 </i>
    <i name="e_wo_entrp">   -170.39411036 </i>
    <i name="e_0_energy">   -170.42403672 </i>
   </energy>
  </scstep>
  <scstep>
   <time name="dav">    0.54    0.54</time>
   <time name="total">    2.83    2.84</time>
   <energy>
    <i name="e_fr_energy">   -172.02110911 </i>
    <i name="e_wo_entrp">   -171.95387104 </i>
    <i name="e_0_energy">   -171.98749007 </i>
   </energy>
  </scstep>
  <scstep>
   <time name="dav">    0.51    0.52</time>
   <time name="total">    2.77    2.78</time>
   <energy>
    <i name="e_fr_energy">   -173.32917565 </i>
    <i name="e_wo_entrp">   -173.28545276 </i>
    <i name="e_0_energy">   -173.30731420 </i>
   </energy>
  </scstep>
  <scstep>
   <time name="dav">    0.51    0.51</time>
   <time name="total">    2.77    2.78</time>
   <energy>
    <i name="e_fr_energy">   -173.63165987 </i>
    <i name="e_wo_entrp">   -173.61704211 </i>
    <i name="e_0_energy">   -173.62435099 </i>
   </energy>
  </scstep>
  <scstep>
   <time name="dav">    0.54    0.55</time>
   <time name="total">    2.72    2.73</time>
   <energy>
    <i name="e_fr_energy">   -173.69303097 </i>
    <i name="e_wo_entrp">   -173.68431161 </i>
    <i name="e_0_energy">   -173.68867129 </i>
   </energy>
  </scstep>
  <scstep>
   <time name="dav">    0.53    0.53</time>
   <time name="total">    2.71    2.71</time>
   <energy>
    <i name="e_fr_energy">   -173.76132222 </i>
    <i name="e_wo_entrp">   -173.75858908 </i>
    <i name="e_0_energy">   -173.75995565 </i>
   </energy>
  </scstep>
  <scstep>
   <time name="dav">    0.50    0.51</time>
   <time name="total">    2.68    2.69</time>
   <energy>
    <i name="e_fr_energy">   -173.76427358 </i>
    <i name="e_wo_entrp">   -173.76224551 </i>
    <i name="e_0_energy">   -173.76325954 </i>
   </energy>
  </scstep>
  <scstep>
   <time name="dav">    0.55    0.55</time>
   <time name="total">    2.73    2.74</time>
   <energy>
    <i name="e_fr_energy">   -173.76457469 </i>
    <i name="e_wo_entrp">   -173.76280882 </i>
    <i name="e_0_energy">   -173.76369175 </i>
   </energy>
  </scstep>
  <scstep>
   <time name="dav">    0.50    0.50</time>
   <time name="total">    2.67    2.68</time>
   <energy>
    <i name="e_fr_energy">   -173.76674629 </i>
    <i name="e_wo_entrp">   -173.76556502 </i>
    <i name="e_0_energy">   -173.76615566 </i>
   </energy>
  </scstep>
  <scstep>
   <time name="dav">    0.53    0.53</time>
   <time name="total">    2.73    2.73</time>
   <energy>
    <i name="e_fr_energy">   -173.76701311 </i>
    <i name="e_wo_entrp">   -173.76599875 </i>
    <i name="e_0_energy">   -173.76650593 </i>
   </energy>
  </scstep>
  <scstep>
   <time name="dav">    0.51    0.52</time>
   <time name="total">    2.70    2.71</time>
   <energy>
    <i name="e_fr_energy">   -173.76717933 </i>
    <i name="e_wo_entrp">   -173.76620525 </i>
    <i name="e_0_energy">   -173.76669229 </i>
   </energy>
  </scstep>
  <scstep>
   <time name="dav">    0.50    0.50</time>
   <time name="total">    2.69    2.69</time>
   <energy>
    <i name="e_fr_energy">   -173.76729705 </i>
    <i name="e_wo_entrp">   -173.76636798 </i>
    <i name="e_0_energy">   -173.76683251 </i>
   </energy>
  </scstep>
  <scstep>
   <time name="dav">    0.42    0.42</time>
   <time name="total">    2.61    2.61</time>
   <energy>
    <i name="e_fr_energy">   -173.76732343 </i>
    <i name="e_wo_entrp">   -173.76641065 </i>
    <i name="e_0_energy">   -173.76686704 </i>
   </energy>
  </scstep>
  <scstep>
   <time name="dav">    0.40    0.41</time>
   <time name="total">    2.59    2.59</time>
   <energy>
    <i name="e_fr_energy">   -173.76733739 </i>
    <i name="e_wo_entrp">   -173.76642338 </i>
    <i name="e_0_energy">   -173.76688038 </i>
   </energy>
  </scstep>
  <scstep>
   <time name="dav">    0.39    0.39</time>
   <time name="total">    2.48    2.49</time>
   <energy>
    <i name="alphaZ">   1436.48757412 </i>
    <i name="ewald"> -21813.34278416 </i>
    <i name="hartreedc">  -3645.96070687 </i>
    <i name="XCdc">    842.91591973 </i>
    <i name="pawpsdc">  24664.77831650 </i>
    <i name="pawaedc"> -24477.12557224 </i>
    <i name="eentropy">     -0.00091407 </i>
    <i name="bandstr">  -2811.52638499 </i>
    <i name="atom">  25630.00721240 </i>
    <i name="e_fr_energy">   -173.76733958 </i>
    <i name="e_wo_entrp">   -173.76642551 </i>
    <i name="e_0_energy">   -173.76688254 </i>
   </energy>
  </scstep>
  <structure>
   <crystal>
    <varray name="basis" >
     <v>      12.22634592       0.00000000       0.00000000 </v>
     <v>       0.00000000      12.22634592       0.00000000 </v>
     <v>       0.00000000       0.00000000      12.22634592 </v>
    </varray>
    <i name="volume">   1827.63740156 </i>
    <varray name="rec_basis" >
     <v>       0.08179059       0.00000000       0.00000000 </v>
     <v>       0.00000000       0.08179059       0.00000000 </v>
     <v>       0.00000000       0.00000000       0.08179059 </v>
    </varray>
   </crystal>
   <varray name="positions" >
    <v>       0.99426450       0.00748214       0.99708089 </v>
    <v>       0.00821244       0.00799729       0.33485020 </v>
    <v>       0.00000000       0.00000000       0.66666667 </v>
    <v>       0.99994579       0.33822261       0.99311104 </v>
    <v>       0.98900911       0.33954525       0.32780744 </v>
    <v>       0.00000000       0.33333333       0.66666667 </v>
    <v>       0.00000000       0.66666667       0.00000000 </v>
    <v>       0.00000000       0.66666667       0.33333333 </v>
    <v>       0.00000000       0.66666667       0.66666667 </v>
    <v>       0.33135132       0.00277746       0.00233725 </v>
    <v>       0.33563042       0.98617369       0.34053548 </v>
    <v>       0.33333333       0.00000000       0.66666667 </v>
    <v>       0.32173188       0.34126102       0.99240495 </v>
    <v>       0.33742944       0.33416497       0.32247983 </v>
    <v>       0.33333333       0.33333333       0.66666667 </v>
    <v>       0.33333333       0.66666667       0.00000000 </v>
    <v>       0.33333333       0.66666667       0.33333333 </v>
    <v>       0.33333333       0.66666667       0.66666667 </v>
    <v>       0.66666667       0.00000000       0.00000000 </v>
    <v>       0.66666667       0.00000000       0.33333333 </v>
    <v>       0.66666667       0.00000000       0.66666667 </v>
    <v>       0.66666667       0.33333333       0.00000000 </v>
    <v>       0.66666667       0.33333333       0.33333333 </v>
    <v>       0.66666667       0.33333333       0.66666667 </v>
    <v>       0.66666667       0.66666667       0.00000000 </v>
    <v>       0.66666667       0.66666667       0.33333333 </v>
    <v>       0.66666667       0.66666667       0.66666667 </v>
    <v>       0.16729174       0.17171689       0.49449688 </v>
    <v>       0.17519018       0.16615641       0.83392719 </v>
    <v>       0.16852786       0.50064600       0.17076405 </v>
    <v>       0.16666667       0.50000000       0.50000000 </v>
    <v>       0.16666667       0.50000000       0.83333333 </v>
    <v>       0.16677679       0.84349226       0.17299892 </v>
    <v>       0.16666667       0.83333333       0.50000000 </v>
    <v>       0.16666667       0.83333333       0.83333333 </v>
    <v>       0.49931714       0.16755349       0.16706944 </v>
    <v>       0.50000000       0.16666667       0.50000000 </v>
    <v>       0.50000000       0.16666667       0.83333333 </v>
    <v>       0.50000000       0.50000000       0.16666667 </v>
    <v>       0.50000000       0.50000000       0.50000000 </v>
    <v>       0.50000000       0.50000000       0.83333333 </v>
    <v>       0.50000000       0.83333333       0.16666667 </v>
    <v>       0.50000000       0.83333333       0.50000000 </v>
    <v>       0.50000000       0.83333333       0.83333333 </v>
    <v>       0.83856624       0.16123328       0.16401104 </v>
    <v>       0.83333333       0.16666667       0.50000000 </v>
    <v>       0.83333333       0.16666667       0.83333333 </v>
    <v>       0.83333333       0.50000000       0.16666667 </v>
    <v>       0.83333333       0.50000000       0.50000000 </v>
    <v>       0.83333333       0.50000000       0.83333333 </v>
    <v>       0.83333333       0.83333333       0.16666667 </v>
    <v>       0.83333333       0.83333333       0.50000000 </v>
    <v>       0.83333333       0.83333333       0.83333333 </v>
   </varray>
  </structure>
  <varray name="forces" >
   <v>       0.14288828      -0.11112269       0.07815013 </v>
   <v>      -0.07008976      -0.02687449      -0.05937159 </v>
   <v>       0.02196483       0.00418055      -0.02692402 </v>
   <v>      -0.01675696      -0.10636952       0.09259188 </v>
   <v>       0.23482367      -0.11139858       0.07497551 </v>
   <v>       0.03502642      -0.02287178      -0.09296422 </v>
   <v>       0.01158150       0.09965558       0.03803752 </v>
   <v>       0.01187502       0.08456198       0.01252193 </v>
   <v>      -0.00496803       0.01213460      -0.02121821 </v>
   <v>       0.03214354      -0.00087447       0.02909764 </v>
   <v>      -0.01504508       0.31647952      -0.09029303 </v>
   <v>       0.01011274       0.02969739       0.02489931 </v>
   <v>       0.23579183      -0.13887720       0.14193992 </v>
   <v>      -0.12766578      -0.12036538       0.14951987 </v>
   <v>       0.02483726      -0.01635546      -0.11959785 </v>
   <v>       0.01176465       0.08112477       0.02626012 </v>
   <v>      -0.00818704      -0.06458988       0.01191460 </v>
   <v>       0.00931211      -0.00419263      -0.01075967 </v>
   <v>      -0.05329535      -0.00592091       0.01425893 </v>
   <v>       0.04510963       0.01504224      -0.02043784 </v>
   <v>      -0.01127248       0.00018110      -0.00185784 </v>
   <v>      -0.06828373      -0.03746196       0.01838836 </v>
   <v>      -0.05382000      -0.03745592       0.00513482 </v>
   <v>      -0.02695396      -0.00746949      -0.00846298 </v>
   <v>      -0.00778851       0.02048991      -0.00098846 </v>
   <v>       0.00305583       0.01355447       0.00580898 </v>
   <v>      -0.00408197       0.00677141      -0.00302968 </v>
   <v>       0.00347708      -0.05315216       0.14969283 </v>
   <v>      -0.21226508       0.02237786      -0.12845373 </v>
   <v>      -0.07795241       0.13230521      -0.12056667 </v>
   <v>      -0.01819994       0.04664155       0.03082684 </v>
   <v>      -0.05791384       0.08861492      -0.06067635 </v>
   <v>      -0.01983222      -0.23782406      -0.13635611 </v>
   <v>      -0.01744881      -0.04507013       0.08796768 </v>
   <v>      -0.01765910      -0.02967895      -0.00087634 </v>
   <v>       0.10887672      -0.02705377      -0.03184153 </v>
   <v>       0.03719069      -0.01155088       0.02260448 </v>
   <v>       0.04610597       0.02093775      -0.01595140 </v>
   <v>       0.05069653       0.05911984      -0.05398773 </v>
   <v>       0.03809182       0.03012778       0.01632604 </v>
   <v>       0.02430619       0.03848789      -0.01878762 </v>
   <v>       0.02864778      -0.05024716      -0.00074858 </v>
   <v>       0.06545575      -0.07287522       0.06709921 </v>
   <v>       0.01789614      -0.03221471      -0.02185765 </v>
   <v>      -0.17549071       0.15231782       0.03995134 </v>
   <v>      -0.02502218       0.02304712       0.02598129 </v>
   <v>      -0.00866890       0.04227553      -0.05758885 </v>
   <v>      -0.04795069       0.04036581      -0.06303868 </v>
   <v>      -0.04291331       0.03630127       0.04379939 </v>
   <v>      -0.02696248       0.04204400      -0.03310765 </v>
   <v>      -0.00827151      -0.04055238      -0.00719710 </v>
   <v>      -0.00883118      -0.01560293       0.02746056 </v>
   <v>      -0.01744096      -0.03081514      -0.02826782 </v>
  </varray>
  <varray name="stress" >
   <v>       1.13649573      -0.22305410       0.16083347 </v>
   <v>      -0.22305467       0.97252633      -0.10930619 </v>
   <v>       0.16083354      -0.10930639       1.04271459 </v>
  </varray>
  <energy>
   <i name="e_fr_energy">   -173.76733958 </i>
   <i name="e_wo_entrp">   -173.76642551 </i>
   <i name="e_0_energy">   -173.76688254 </i>
  </energy>
  <time name="totalsc">   54.26   54.71</time>
 </calculation>
 <calculation>
  <scstep>
   <time name="dav">    0.48    0.48</time>
   <time name="total">    2.65    2.65</time>
   <energy>
    <i name="alphaZ">   1436.48757412 </i>
    <i name="ewald"> -21815.26886204 </i>
    <i name="hartreedc">  -3644.28335669 </i>
    <i name="XCdc">    842.89094806 </i>
    <i name="pawpsdc">  24664.79290155 </i>
    <i name="pawaedc"> -24477.14016139 </i>
    <i name="eentropy">     -0.00080956 </i>
    <i name="bandstr">  -2811.27972101 </i>
    <i name="atom">  25630.00721240 </i>
    <i name="e_fr_energy">   -173.79427456 </i>
    <i name="e_wo_entrp">   -173.79346500 </i>
    <i name="e_0_energy">   -173.79386978 </i>
   </energy>
  </scstep>
  <scstep>
   <time name="dav">    0.52    0.52</time>
   <time name="total">    2.70    2.70</time>
   <energy>
    <i name="e_fr_energy">   -173.80636656 </i>
    <i name="e_wo_entrp">   -173.80557278 </i>
    <i name="e_0_energy">   -173.80596967 </i>
   </energy>
  </scstep>
  <scstep>
   <time name="dav">    0.54    0.54</time>
   <time name="total">    2.72    2.72</time>
   <energy>
    <i name="e_fr_energy">   -173.80582758 </i>
    <i name="e_wo_entrp">   -173.80504562 </i>
    <i name="e_0_energy">   -173.80543660 </i>
   </energy>
  </scstep>
  <scstep>
   <time name="dav">    0.53    0.53</time>
   <time name="total">    2.72    2.73</time>
   <energy>
    <i name="e_fr_energy">   -173.80544875 </i>
    <i name="e_wo_entrp">   -173.80468081 </i>
    <i name="e_0_energy">   -173.80506478 </i>
   </energy>
  </scstep>
  <scstep>
   <time name="dav">    0.53    0.53</time>
   <time name="total">    2.71    2.72</time>
   <energy>
    <i name="e_fr_energy">   -173.80546601 </i>
    <i name="e_wo_entrp">   -173.80469738 </i>
    <i name="e_0_energy">   -173.80508170 </i>
   </energy>
  </scstep>
  <scstep>
   <time name="dav">    0.46    0.46</time>
   <time name="total">    2.60    2.60</time>
   <energy>
    <i name="alphaZ">   1436.48757412 </i>
    <i name="ewald"> -21815.26886204 </i>
    <i name="hartreedc">  -3644.15774197 </i>
    <i name="XCdc">    842.88630093 </i>
    <i name="pawpsdc">  24654.87351087 </i>
    <i name="pawaedc"> -24467.22018136 </i>
    <i name="eentropy">     -0.00076664 </i>
    <i name="bandstr">  -2811.41250755 </i>
    <i name="atom">  25630.00721240 </i>
    <i name="e_fr_energy">   -173.80546123 </i>
    <i name="e_wo_entrp">   -173.80469459 </i>
    <i name="e_0_energy">   -173.80507791 </i>
   </energy>
  </scstep>
  <structure>
   <crystal>
    <varray name="basis" >
     <v>      12.22634592       0.00000000       0.00000000 </v>
     <v>       0.00000000      12.22634592       0.00000000 </v>
     <v>       0.00000000       0.00000000      12.22634592 </v>
    </varray>
    <i name="volume">   1827.63740156 </i>
    <varray name="rec_basis" >
     <v>       0.08179059       0.00000000       0.00000000 </v>
     <v>       0.00000000       0.08179059       0.00000000 </v>
     <v>       0.00000000       0.00000000       0.08179059 </v>
    </varray>
   </crystal>
   <varray name="positions" >
    <v>       0.99482831       0.00704367       0.99738926 </v>
    <v>       0.00793588       0.00789125       0.33461593 </v>
    <v>       0.00008667       0.00001650       0.66656043 </v>
    <v>       0.99987967       0.33780289       0.99347638 </v>
    <v>       0.98993567       0.33910570       0.32810328 </v>
    <v>       0.00013821       0.33324309       0.66629985 </v>
    <v>       0.00004570       0.66705989       0.00015009 </v>
    <v>       0.00004686       0.66700033       0.33338274 </v>
    <v>       0.99998040       0.66671455       0.66658294 </v>
    <v>       0.33147815       0.00277401       0.00245207 </v>
    <v>       0.33557105       0.98742246       0.34017920 </v>
    <v>       0.33337324       0.00011718       0.66676491 </v>
    <v>       0.32266227       0.34071303       0.99296502 </v>
    <v>       0.33692569       0.33369004       0.32306981 </v>
    <v>       0.33343134       0.33326880       0.66619476 </v>
    <v>       0.33337975       0.66698677       0.00010362 </v>
    <v>       0.33330103       0.66641181       0.33338035 </v>
    <v>       0.33337008       0.66665012       0.66662421 </v>
    <v>       0.66645637       0.99997664       0.00005626 </v>
    <v>       0.66684466       0.00005935       0.33325269 </v>
    <v>       0.66662219       0.00000071       0.66665934 </v>
    <v>       0.66639723       0.33318552       0.00007256 </v>
    <v>       0.66645430       0.33318554       0.33335359 </v>
    <v>       0.66656031       0.33330386       0.66663327 </v>
    <v>       0.66663593       0.66674752       0.99999610 </v>
    <v>       0.66667872       0.66672015       0.33335625 </v>
    <v>       0.66665056       0.66669339       0.66665471 </v>
    <v>       0.16730546       0.17150716       0.49508754 </v>
    <v>       0.17435263       0.16624471       0.83342034 </v>
    <v>       0.16822028       0.50116805       0.17028832 </v>
    <v>       0.16659485       0.50018404       0.50012164 </v>
    <v>       0.16643815       0.50034966       0.83309392 </v>
    <v>       0.16669854       0.84255385       0.17246089 </v>
    <v>       0.16659782       0.83315550       0.50034710 </v>
    <v>       0.16659699       0.83321623       0.83332988 </v>
    <v>       0.49974674       0.16744674       0.16694380 </v>
    <v>       0.50014675       0.16662109       0.50008919 </v>
    <v>       0.50018192       0.16674928       0.83327039 </v>
    <v>       0.50020004       0.50023327       0.16645364 </v>
    <v>       0.50015030       0.50011888       0.50006442 </v>
    <v>       0.50009591       0.50015187       0.83325920 </v>
    <v>       0.50011304       0.83313507       0.16666371 </v>
    <v>       0.50025827       0.83304578       0.50026476 </v>
    <v>       0.50007061       0.83320622       0.83324709 </v>
    <v>       0.83787379       0.16183429       0.16416868 </v>
    <v>       0.83323460       0.16675761       0.50010252 </v>
    <v>       0.83329913       0.16683348       0.83310610 </v>
    <v>       0.83314413       0.50015928       0.16641793 </v>
    <v>       0.83316401       0.50014324       0.50017282 </v>
    <v>       0.83322694       0.50016590       0.83320270 </v>
    <v>       0.83330070       0.83317332       0.16663827 </v>
    <v>       0.83329849       0.83327177       0.50010835 </v>
    <v>       0.83326451       0.83321174       0.83322179 </v>
   </varray>
  </structure>
  <varray name="forces" >
   <v>       0.13154603      -0.10184834       0.07056612 </v>
   <v>      -0.06578274      -0.02823547      -0.05589474 </v>
   <v>       0.01554758       0.00178045      -0.02054633 </v>
   <v>      -0.01627114      -0.09658048       0.08351396 </v>
   <v>       0.20391561      -0.09851657       0.06887507 </v>
   <v>       0.02693918      -0.01465682      -0.07690982 </v>
   <v>       0.00852537       0.08401231       0.03004041 </v>
   <v>       0.00597489       0.07282955       0.01125277 </v>
   <v>      -0.00799785       0.00852188      -0.01409660 </v>
   <v>       0.02707798      -0.00302296       0.02069255 </v>
   <v>      -0.01473607       0.27978604      -0.08576149 </v>
   <v>       0.00891641       0.02080510       0.02484230 </v>
   <v>       0.20553057      -0.11869323       0.11917148 </v>
   <v>      -0.11980198      -0.09788374       0.12955464 </v>
   <v>       0.02146132      -0.00839706      -0.09906476 </v>
   <v>       0.00838092       0.06998346       0.01928584 </v>
   <v>      -0.00540103      -0.05494213       0.01144974 </v>
   <v>       0.00844618      -0.00409775      -0.00568286 </v>
   <v>      -0.04188776      -0.00727790       0.00842174 </v>
   <v>       0.04223942       0.00871976      -0.01548560 </v>
   <v>      -0.00628706      -0.00293848      -0.00002414 </v>
   <v>      -0.05499849      -0.02702556       0.01240893 </v>
   <v>      -0.04236218      -0.02641459       0.00424831 </v>
   <v>      -0.01871195      -0.00100893      -0.00421984 </v>
   <v>      -0.00374510       0.01460635      -0.00476748 </v>
   <v>       0.00469387       0.00947952       0.00608230 </v>
   <v>      -0.00111021       0.00418143      -0.00036689 </v>
   <v>       0.00425533      -0.05215098       0.13578987 </v>
   <v>      -0.18850134       0.02213850      -0.11676420 </v>
   <v>      -0.06624640       0.11942309      -0.10721311 </v>
   <v>      -0.01497129       0.04012964       0.02336199 </v>
   <v>      -0.04529630       0.07232662      -0.04930171 </v>
   <v>      -0.01439867      -0.21587980      -0.11750426 </v>
   <v>      -0.01056997      -0.03406118       0.07386775 </v>
   <v>      -0.01403196      -0.02194701      -0.00003178 </v>
   <v>       0.09833536      -0.02328299      -0.02552978 </v>
   <v>       0.03220843      -0.01194499       0.01834154 </v>
   <v>       0.03794389       0.01811852      -0.01470628 </v>
   <v>       0.03967029       0.04813613      -0.04422003 </v>
   <v>       0.03284757       0.02523121       0.01287247 </v>
   <v>       0.01973823       0.03439499      -0.01869158 </v>
   <v>       0.02393947      -0.04114098       0.00293326 </v>
   <v>       0.05433272      -0.06010633       0.05558852 </v>
   <v>       0.01536507      -0.02628817      -0.01962145 </v>
   <v>      -0.15903212       0.13393475       0.03526512 </v>
   <v>      -0.02189713       0.02003496       0.02065165 </v>
   <v>      -0.00710624       0.03441213      -0.04996027 </v>
   <v>      -0.04037737       0.03281877      -0.05097573 </v>
   <v>      -0.03833906       0.03168360       0.03546800 </v>
   <v>      -0.02493541       0.03703553      -0.03011773 </v>
   <v>      -0.00775274      -0.03096326      -0.00500712 </v>
   <v>      -0.00844802      -0.01124935       0.02352969 </v>
   <v>      -0.01683409      -0.02396924      -0.02561045 </v>
  </varray>
  <varray name="stress" >
   <v>       0.98711974      -0.19466017       0.13806745 </v>
   <v>      -0.19465971       0.83581025      -0.09557867 </v>
   <v>       0.13806709      -0.09557825       0.89536722 </v>
  </varray>
  <energy>
   <i name="e_fr_energy">   -173.80546123 </i>
   <i name="e_wo_entrp">   -173.80469459 </i>
   <i name="e_0_energy">   -173.80507791 </i>
  </energy>
  <time name="totalsc">   21.31   21.36</time>
 </calculation>
 <calculation>
  <scstep>
   <time name="dav">    0.47    0.47</time>
   <time name="total">    2.66    2.67</time>
   <energy>
    <i name="alphaZ">   1436.48757412 </i>
    <i name="ewald"> -21819.36230168 </i>
    <i name="hartreedc">  -3640.62894869 </i>
    <i name="XCdc">    842.84499685 </i>
    <i name="pawpsdc">  24654.29214717 </i>
    <i name="pawaedc"> -24466.63874460 </i>
    <i name="eentropy">     -0.00052089 </i>
    <i name="bandstr">  -2810.78759992 </i>
    <i name="atom">  25630.00721240 </i>
    <i name="e_fr_energy">   -173.78618524 </i>
    <i name="e_wo_entrp">   -173.78566435 </i>
    <i name="e_0_energy">   -173.78592479 </i>
   </energy>
  </scstep>
  <scstep>
   <time name="dav">    0.51    0.51</time>
   <time name="total">    2.78    2.79</time>
   <energy>
    <i name="e_fr_energy">   -173.89639549 </i>
    <i name="e_wo_entrp">   -173.89591165 </i>
    <i name="e_0_energy">   -173.89615357 </i>
   </energy>
  </scstep>
  <scstep>
   <time name="dav">    0.54    0.54</time>
   <time name="total">    2.80    2.81</time>
   <energy>
    <i name="e_fr_energy">   -173.89154462 </i>
    <i name="e_wo_entrp">   -173.89108268 </i>
    <i name="e_0_energy">   -173.89131365 </i>
   </energy>
  </scstep>
  <scstep>
   <time name="dav">    0.54    0.54</time>
   <time name="total">    2.80    2.81</time>
   <energy>
    <i name="e_fr_energy">   -173.88821513 </i>
    <i name="e_wo_entrp">   -173.88777655 </i>
    <i name="e_0_energy">   -173.88799584 </i>
   </energy>
  </scstep>
  <scstep>
   <time name="dav">    0.53    0.53</time>
   <time name="total">    2.81    2.81</time>
   <energy>
    <i name="e_fr_energy">   -173.88825177 </i>
    <i name="e_wo_entrp">   -173.88781368 </i>
    <i name="e_0_energy">   -173.88803273 </i>
   </energy>
  </scstep>
  <scstep>
   <time name="dav">    0.50    0.51</time>
   <time name="total">    2.77    2.78</time>
   <energy>
    <i name="e_fr_energy">   -173.88818987 </i>
    <i name="e_wo_entrp">   -173.88775591 </i>
    <i name="e_0_energy">   -173.88797289 </i>
   </energy>
  </scstep>
  <scstep>
   <time name="dav">    0.53    0.53</time>
   <time name="total">    2.72    2.72</time>
   <energy>
    <i name="e_fr_energy">   -173.88813578 </i>
    <i name="e_wo_entrp">   -173.88769879 </i>
    <i name="e_0_energy">   -173.88791729 </i>
   </energy>
  </scstep>
  <scstep>
   <time name="dav">    0.52    0.52</time>
   <time name="total">    2.67    2.67</time>
   <energy>
    <i name="alphaZ">   1436.48757412 </i>
    <i name="ewald"> -21819.36230168 </i>
    <i name="hartreedc">  -3640.41365777 </i>
    <i name="XCdc">    842.85424547 </i>
    <i name="pawpsdc">  24629.47420799 </i>
    <i name="pawaedc"> -24441.82997280 </i>
    <i name="eentropy">     -0.00043660 </i>
    <i name="bandstr">  -2811.10500921 </i>
    <i name="atom">  25630.00721240 </i>
    <i name="e_fr_energy">   -173.88813807 </i>
    <i name="e_wo_entrp">   -173.88770147 </i>
    <i name="e_0_energy">   -173.88791977 </i>
   </energy>
  </scstep>
  <structure>
   <crystal>
    <varray name="basis" >
     <v>      12.22634592       0.00000000       0.00000000 </v>
     <v>       0.00000000      12.22634592       0.00000000 </v>
     <v>       0.00000000       0.00000000      12.22634592 </v>
    </varray>
    <i name="volume">   1827.63740156 </i>
    <varray name="rec_basis" >
     <v>       0.08179059       0.00000000       0.00000000 </v>
     <v>       0.00000000       0.08179059       0.00000000 </v>
     <v>       0.00000000       0.00000000       0.08179059 </v>
    </varray>
   </crystal>
   <varray name="positions" >
    <v>       0.99651974       0.00572827       0.99831435 </v>
    <v>       0.00710620       0.00757312       0.33391313 </v>
    <v>       0.00034667       0.00006598       0.66624172 </v>
    <v>       0.99968131       0.33654376       0.99457243 </v>
    <v>       0.99271537       0.33778703       0.32899079 </v>
    <v>       0.00055283       0.33297234       0.66519940 </v>
    <v>       0.00018279       0.66823955       0.00060035 </v>
    <v>       0.00018743       0.66800132       0.33353097 </v>
    <v>       0.99992159       0.66685819       0.66633178 </v>
    <v>       0.33185865       0.00276366       0.00279651 </v>
    <v>       0.33539296       0.99116875       0.33911037 </v>
    <v>       0.33349294       0.00046872       0.66705966 </v>
    <v>       0.32545343       0.33906909       0.99464521 </v>
    <v>       0.33541447       0.33226522       0.32483973 </v>
    <v>       0.33372534       0.33307519       0.66477903 </v>
    <v>       0.33351902       0.66794707       0.00041447 </v>
    <v>       0.33320412       0.66564723       0.33352138 </v>
    <v>       0.33348031       0.66660049       0.66649684 </v>
    <v>       0.66582550       0.99990655       0.00022505 </v>
    <v>       0.66737864       0.00023741       0.33301076 </v>
    <v>       0.66648875       0.00000286       0.66663734 </v>
    <v>       0.66558893       0.33274206       0.00029023 </v>
    <v>       0.66581722       0.33274216       0.33341438 </v>
    <v>       0.66624125       0.33321544       0.66653309 </v>
    <v>       0.66654374       0.66699006       0.99998440 </v>
    <v>       0.66671490       0.66688060       0.33342502 </v>
    <v>       0.66660224       0.66677354       0.66661885 </v>
    <v>       0.16734662       0.17087798       0.49685951 </v>
    <v>       0.17183996       0.16650960       0.83189978 </v>
    <v>       0.16729752       0.50273420       0.16886113 </v>
    <v>       0.16637941       0.50073615       0.50048655 </v>
    <v>       0.16575260       0.50139863       0.83237567 </v>
    <v>       0.16646378       0.83973864       0.17084679 </v>
    <v>       0.16639127       0.83262198       0.50138841 </v>
    <v>       0.16638795       0.83286491       0.83331950 </v>
    <v>       0.50103556       0.16712650       0.16656688 </v>
    <v>       0.50058699       0.16648436       0.50035677 </v>
    <v>       0.50072770       0.16699713       0.83308157 </v>
    <v>       0.50080015       0.50093310       0.16581457 </v>
    <v>       0.50060121       0.50047551       0.50025768 </v>
    <v>       0.50038363       0.50060746       0.83303680 </v>
    <v>       0.50045215       0.83254027       0.16665485 </v>
    <v>       0.50103310       0.83218313       0.50105904 </v>
    <v>       0.50028246       0.83282488       0.83298835 </v>
    <v>       0.83579644       0.16363734       0.16464160 </v>
    <v>       0.83293840       0.16703042       0.50041007 </v>
    <v>       0.83319651       0.16733391       0.83242440 </v>
    <v>       0.83257652       0.50063710       0.16567172 </v>
    <v>       0.83265602       0.50057295       0.50069129 </v>
    <v>       0.83290778       0.50066359       0.83281079 </v>
    <v>       0.83320278       0.83269329       0.16655307 </v>
    <v>       0.83319395       0.83308707       0.50043341 </v>
    <v>       0.83305806       0.83284697       0.83288718 </v>
   </varray>
  </structure>
  <varray name="forces" >
   <v>       0.09562431      -0.06982302       0.04623189 </v>
   <v>      -0.05561817      -0.03489596      -0.04091197 </v>
   <v>      -0.00337942      -0.00484942      -0.00406108 </v>
   <v>      -0.01174331      -0.05865809       0.05777301 </v>
   <v>       0.12316925      -0.05647468       0.04828214 </v>
   <v>      -0.00120960       0.01316740      -0.02373602 </v>
   <v>      -0.00397607       0.03122760       0.00082179 </v>
   <v>      -0.01045533       0.03323910       0.00792421 </v>
   <v>      -0.01709362      -0.00020223       0.00415613 </v>
   <v>       0.01329729      -0.00655376      -0.00342785 </v>
   <v>      -0.01921028       0.14656601      -0.06781027 </v>
   <v>       0.00624090      -0.00275532       0.02469545 </v>
   <v>       0.11702276      -0.07551812       0.07149023 </v>
   <v>      -0.09046812      -0.03300124       0.07459175 </v>
   <v>       0.00901604       0.01723543      -0.03450817 </v>
   <v>      -0.00029828       0.03043255      -0.00386170 </v>
   <v>       0.00254036      -0.02100116       0.00960921 </v>
   <v>       0.00635397      -0.00296180       0.00802695 </v>
   <v>      -0.00553766      -0.01087615      -0.00989620 </v>
   <v>       0.03257155      -0.00924853      -0.00083075 </v>
   <v>       0.00826603      -0.01056369       0.00474266 </v>
   <v>      -0.01075360       0.00733669      -0.00786121 </v>
   <v>      -0.00675889       0.00956917       0.00147308 </v>
   <v>       0.00366172       0.01826047       0.00672473 </v>
   <v>       0.00734169       0.00055634      -0.01619952 </v>
   <v>       0.00923974      -0.00061581       0.00624392 </v>
   <v>       0.00775641      -0.00247880       0.00717155 </v>
   <v>       0.00645077      -0.05056578       0.09739406 </v>
   <v>      -0.11359143       0.01933382      -0.08417432 </v>
   <v>      -0.03411429       0.07984034      -0.06803024 </v>
   <v>      -0.00250963       0.01759762      -0.00285553 </v>
   <v>      -0.00731641       0.02440085      -0.01784241 </v>
   <v>       0.00206121      -0.15016835      -0.06687624 </v>
   <v>       0.01021086       0.00226759       0.02575078 </v>
   <v>      -0.00170704       0.00444587       0.00190836 </v>
   <v>       0.06580021      -0.01648170      -0.00745127 </v>
   <v>       0.01447182      -0.01170338       0.00313878 </v>
   <v>       0.00992700       0.00840075      -0.01039409 </v>
   <v>       0.00462221       0.01379821      -0.01290397 </v>
   <v>       0.01401175       0.00883410       0.00057719 </v>
   <v>       0.00392467       0.01974261      -0.01779891 </v>
   <v>       0.00788708      -0.00881647       0.01345001 </v>
   <v>       0.02005028      -0.01868977       0.01939457 </v>
   <v>       0.00677652      -0.00486829      -0.01229594 </v>
   <v>      -0.11375897       0.08380880       0.02547557 </v>
   <v>      -0.01170310       0.01097606       0.00213613 </v>
   <v>      -0.00382353       0.00976858      -0.02517849 </v>
   <v>      -0.01656249       0.01008226      -0.01352270 </v>
   <v>      -0.02202684       0.01588093       0.00686838 </v>
   <v>      -0.01738513       0.01886764      -0.01909185 </v>
   <v>      -0.00585150       0.00126544       0.00230904 </v>
   <v>      -0.00697080       0.00434093       0.00962679 </v>
   <v>      -0.01447287       0.00052835      -0.01646763 </v>
  </varray>
  <varray name="stress" >
   <v>       0.61761749      -0.12345901       0.08693751 </v>
   <v>      -0.12345931       0.53065329      -0.06632170 </v>
   <v>       0.08693735      -0.06632161       0.54794866 </v>
  </varray>
  <energy>
   <i name="e_fr_energy">   -173.88813807 </i>
   <i name="e_wo_entrp">   -173.88770147 </i>
   <i name="e_0_energy">   -173.88791977 </i>
  </energy>
  <time name="totalsc">   27.24   27.30</time>
 </calculation>
 <calculation>
  <scstep>
   <time name="dav">    0.47    0.47</time>
   <time name="total">    2.67    2.67</time>
   <energy>
    <i name="alphaZ">   1436.48757412 </i>
    <i name="ewald"> -21819.97008415 </i>
    <i name="hartreedc">  -3640.21993848 </i>
    <i name="XCdc">    842.86720263 </i>
    <i name="pawpsdc">  24629.62005131 </i>
    <i name="pawaedc"> -24441.97575244 </i>
    <i name="eentropy">     -0.00017968 </i>
    <i name="bandstr">  -2810.32149955 </i>
    <i name="atom">  25630.00721240 </i>
    <i name="e_fr_energy">   -173.50541383 </i>
    <i name="e_wo_entrp">   -173.50523414 </i>
    <i name="e_0_energy">   -173.50532398 </i>
   </energy>
  </scstep>
  <scstep>
   <time name="dav">    0.51    0.51</time>
   <time name="total">    2.70    2.70</time>
   <energy>
    <i name="e_fr_energy">   -173.96286203 </i>
    <i name="e_wo_entrp">   -173.96271465 </i>
    <i name="e_0_energy">   -173.96278834 </i>
   </energy>
  </scstep>
  <scstep>
   <time name="dav">    0.54    0.54</time>
   <time name="total">    2.72    2.72</time>
   <energy>
    <i name="e_fr_energy">   -173.94290341 </i>
    <i name="e_wo_entrp">   -173.94277045 </i>
    <i name="e_0_energy">   -173.94283693 </i>
   </energy>
  </scstep>
  <scstep>
   <time name="dav">    0.53    0.53</time>
   <time name="total">    2.72    2.72</time>
   <energy>
    <i name="e_fr_energy">   -173.93034168 </i>
    <i name="e_wo_entrp">   -173.93022151 </i>
    <i name="e_0_energy">   -173.93028159 </i>
   </energy>
  </scstep>
  <scstep>
   <time name="dav">    0.54    0.54</time>
   <time name="total">    2.73    2.74</time>
   <energy>
    <i name="e_fr_energy">   -173.92940584 </i>
    <i name="e_wo_entrp">   -173.92928782 </i>
    <i name="e_0_energy">   -173.92934683 </i>
   </energy>
  </scstep>
  <scstep>
   <time name="dav">    0.55    0.55</time>
   <time name="total">    2.74    2.75</time>
   <energy>
    <i name="e_fr_energy">   -173.92894163 </i>
    <i name="e_wo_entrp">   -173.92882618 </i>
    <i name="e_0_energy">   -173.92888390 </i>
   </energy>
  </scstep>
  <scstep>
   <time name="dav">    0.56    0.56</time>
   <time name="total">    2.82    2.83</time>
   <energy>
    <i name="e_fr_energy">   -173.92882561 </i>
    <i name="e_wo_entrp">   -173.92870931 </i>
    <i name="e_0_energy">   -173.92876746 </i>
   </energy>
  </scstep>
  <scstep>
   <time name="dav">    0.52    0.53</time>
   <time name="total">    2.79    2.79</time>
   <energy>
    <i name="e_fr_energy">   -173.92883680 </i>
    <i name="e_wo_entrp">   -173.92872055 </i>
    <i name="e_0_energy">   -173.92877867 </i>
   </energy>
  </scstep>
  <scstep>
   <time name="dav">    0.37    0.37</time>
   <time name="total">    2.57    2.58</time>
   <energy>
    <i name="alphaZ">   1436.48757412 </i>
    <i name="ewald"> -21819.97008415 </i>
    <i name="hartreedc">  -3640.40540531 </i>
    <i name="XCdc">    842.92372656 </i>
    <i name="pawpsdc">  24597.62332084 </i>
    <i name="pawaedc"> -24410.02089757 </i>
    <i name="eentropy">     -0.00011629 </i>
    <i name="bandstr">  -2810.57416465 </i>
    <i name="atom">  25630.00721240 </i>
    <i name="e_fr_energy">   -173.92883404 </i>
    <i name="e_wo_entrp">   -173.92871775 </i>
    <i name="e_0_energy">   -173.92877589 </i>
   </energy>
  </scstep>
  <structure>
   <crystal>
    <varray name="basis" >
     <v>      12.22634592       0.00000000       0.00000000 </v>
     <v>       0.00000000      12.22634592       0.00000000 </v>
     <v>       0.00000000       0.00000000      12.22634592 </v>
    </varray>
    <i name="volume">   1827.63740156 </i>
    <varray name="rec_basis" >
     <v>       0.08179059       0.00000000       0.00000000 </v>
     <v>       0.00000000       0.08179059       0.00000000 </v>
     <v>       0.00000000       0.00000000       0.08179059 </v>
    </varray>
   </crystal>
   <varray name="positions" >
    <v>       0.99990258       0.00309746       0.00016454 </v>
    <v>       0.00544684       0.00693687       0.33250752 </v>
    <v>       0.00086669       0.00016496       0.66560430 </v>
    <v>       0.99928460       0.33402548       0.99676452 </v>
    <v>       0.99827477       0.33514969       0.33076582 </v>
    <v>       0.00138207       0.33243086       0.66299849 </v>
    <v>       0.00045698       0.67059887       0.00150088 </v>
    <v>       0.00046856       0.67000331       0.33382742 </v>
    <v>       0.99980397       0.66714547       0.66582944 </v>
    <v>       0.33261964       0.00274295       0.00348539 </v>
    <v>       0.33503677       0.99866133       0.33697270 </v>
    <v>       0.33373236       0.00117180       0.66764914 </v>
    <v>       0.33103575       0.33578121       0.99800561 </v>
    <v>       0.33239201       0.32941560       0.32837958 </v>
    <v>       0.33431336       0.33268798       0.66194758 </v>
    <v>       0.33379754       0.66986768       0.00103617 </v>
    <v>       0.33301029       0.66411808       0.33380346 </v>
    <v>       0.33370077       0.66650123       0.66624211 </v>
    <v>       0.66456374       0.99976637       0.00056263 </v>
    <v>       0.66844660       0.00059354       0.33252690 </v>
    <v>       0.66622188       0.00000715       0.66659336 </v>
    <v>       0.66397233       0.33185516       0.00072557 </v>
    <v>       0.66454304       0.33185540       0.33353594 </v>
    <v>       0.66560312       0.33303860       0.66633273 </v>
    <v>       0.66635935       0.66747516       0.99996100 </v>
    <v>       0.66678724       0.66720150       0.33356254 </v>
    <v>       0.66650560       0.66693385       0.66654712 </v>
    <v>       0.16742894       0.16961961       0.50040345 </v>
    <v>       0.16681464       0.16703940       0.82885867 </v>
    <v>       0.16545202       0.50586650       0.16600674 </v>
    <v>       0.16594853       0.50184038       0.50121636 </v>
    <v>       0.16438151       0.50349656       0.83093917 </v>
    <v>       0.16599425       0.83410821       0.16761859 </v>
    <v>       0.16597817       0.83155496       0.50347102 </v>
    <v>       0.16596987       0.83216226       0.83329875 </v>
    <v>       0.50361319       0.16648600       0.16581304 </v>
    <v>       0.50146747       0.16621089       0.50089193 </v>
    <v>       0.50181925       0.16749283       0.83270392 </v>
    <v>       0.50200038       0.50233275       0.16453642 </v>
    <v>       0.50150303       0.50118878       0.50064419 </v>
    <v>       0.50095907       0.50151865       0.83259201 </v>
    <v>       0.50113038       0.83135068       0.16663713 </v>
    <v>       0.50258275       0.83045783       0.50264760 </v>
    <v>       0.50070614       0.83206221       0.83247088 </v>
    <v>       0.83164174       0.16724343       0.16558744 </v>
    <v>       0.83234601       0.16757606       0.50102517 </v>
    <v>       0.83299128       0.16833477       0.83106100 </v>
    <v>       0.83144130       0.50159275       0.16417929 </v>
    <v>       0.83164006       0.50143237       0.50172823 </v>
    <v>       0.83226945       0.50165897       0.83202697 </v>
    <v>       0.83300696       0.83173322       0.16638268 </v>
    <v>       0.83298487       0.83271767       0.50108354 </v>
    <v>       0.83264515       0.83211743       0.83221794 </v>
   </varray>
  </structure>
  <varray name="forces" >
   <v>      -0.00825461      -0.03394970      -0.01827821 </v>
   <v>      -0.05993417      -0.05176454      -0.00329664 </v>
   <v>      -0.04741409      -0.02594862       0.03230303 </v>
   <v>      -0.00994152       0.03745419       0.01915498 </v>
   <v>       0.01342398       0.03031803       0.00710502 </v>
   <v>      -0.05878053       0.06779483       0.05818171 </v>
   <v>      -0.03545406      -0.05440542      -0.06299085 </v>
   <v>      -0.04321332      -0.02934971       0.00386189 </v>
   <v>      -0.03730014      -0.02211105       0.04670918 </v>
   <v>      -0.01151655      -0.02812784      -0.04900213 </v>
   <v>      -0.01195884      -0.01216641      -0.04847933 </v>
   <v>       0.00145758      -0.05577389       0.02447629 </v>
   <v>       0.01439556      -0.00169571      -0.00866141 </v>
   <v>      -0.00771969       0.07117876       0.01795442 </v>
   <v>      -0.01492318       0.06845304       0.05246936 </v>
   <v>      -0.01210195      -0.03570081      -0.05016925 </v>
   <v>       0.01809016       0.02585558       0.00496067 </v>
   <v>       0.00222130      -0.00357525       0.03731259 </v>
   <v>       0.06177384      -0.02390898      -0.04648627 </v>
   <v>       0.01366176      -0.04779609       0.02863694 </v>
   <v>       0.03597488      -0.02922609       0.01436540 </v>
   <v>       0.06902892       0.07342375      -0.04953633 </v>
   <v>       0.05099335       0.07747922       0.00232658 </v>
   <v>       0.05262141       0.05619776       0.03168397 </v>
   <v>       0.03205062      -0.03364327      -0.04064510 </v>
   <v>       0.01972042      -0.02402766       0.00781970 </v>
   <v>       0.02619252      -0.01785457       0.02408599 </v>
   <v>       0.01326765      -0.05042097       0.02173528 </v>
   <v>       0.01870506       0.00686320      -0.00826601 </v>
   <v>       0.02291049      -0.01986418       0.00816257 </v>
   <v>       0.02140734      -0.03070617      -0.05421052 </v>
   <v>       0.04899569      -0.05594772       0.02391528 </v>
   <v>       0.03385664      -0.01605649       0.02355839 </v>
   <v>       0.04213125       0.06292866      -0.06005260 </v>
   <v>       0.02615647       0.05926712       0.00509901 </v>
   <v>      -0.00903880      -0.00945923       0.02893305 </v>
   <v>      -0.02381305      -0.01289620      -0.02788749 </v>
   <v>      -0.04763193      -0.01488878      -0.00197799 </v>
   <v>      -0.05498611      -0.04609851       0.04112984 </v>
   <v>      -0.02485066      -0.02652518      -0.02481551 </v>
   <v>      -0.02840739      -0.01446876      -0.01297103 </v>
   <v>      -0.02236996       0.05472032       0.03344566 </v>
   <v>      -0.03665826       0.05102260      -0.04071817 </v>
   <v>      -0.01334980       0.03892632       0.00566450 </v>
   <v>      -0.03073465      -0.00685653       0.01604730 </v>
   <v>       0.01141691      -0.01161953      -0.03833507 </v>
   <v>      -0.00590812      -0.03355582       0.01948968 </v>
   <v>       0.01776014      -0.02403368       0.04904845 </v>
   <v>       0.00692968      -0.01341814      -0.04464134 </v>
   <v>      -0.00683354      -0.01733917       0.00087565 </v>
   <v>      -0.00182518       0.06928947       0.01894070 </v>
   <v>      -0.00202615       0.03563889      -0.02205995 </v>
   <v>      -0.00819734       0.04836898       0.00402812 </v>
  </varray>
  <varray name="stress" >
   <v>       0.19238783      -0.02947765       0.02365294 </v>
   <v>      -0.02947718       0.19587378      -0.01759970 </v>
   <v>       0.02365305      -0.01759956       0.16299281 </v>
  </varray>
  <energy>
   <i name="e_fr_energy">   -173.92883404 </i>
   <i name="e_wo_entrp">   -173.92871775 </i>
   <i name="e_0_energy">   -173.92877589 </i>
  </energy>
  <time name="totalsc">   29.83   29.91</time>
 </calculation>
 <calculation>
  <scstep>
   <time name="dav">    0.47    0.47</time>
   <time name="total">    2.74    2.74</time>
   <energy>
    <i name="alphaZ">   1436.48757412 </i>
    <i name="ewald"> -21820.73833571 </i>
    <i name="hartreedc">  -3639.51840548 </i>
    <i name="XCdc">    842.93726060 </i>
    <i name="pawpsdc">  24598.53323531 </i>
    <i name="pawaedc"> -24410.92970802 </i>
    <i name="eentropy">     -0.00014692 </i>
    <i name="bandstr">  -2810.68917381 </i>
    <i name="atom">  25630.00721240 </i>
    <i name="e_fr_energy">   -173.91048749 </i>
    <i name="e_wo_entrp">   -173.91034057 </i>
    <i name="e_0_energy">   -173.91041403 </i>
   </energy>
  </scstep>
  <scstep>
   <time name="dav">    0.50    0.51</time>
   <time name="total">    2.59    2.59</time>
   <energy>
    <i name="e_fr_energy">   -173.93488660 </i>
    <i name="e_wo_entrp">   -173.93473371 </i>
    <i name="e_0_energy">   -173.93481015 </i>
   </energy>
  </scstep>
  <scstep>
   <time name="dav">    0.54    0.54</time>
   <time name="total">    2.62    2.62</time>
   <energy>
    <i name="e_fr_energy">   -173.93380821 </i>
    <i name="e_wo_entrp">   -173.93365104 </i>
    <i name="e_0_energy">   -173.93372963 </i>
   </energy>
  </scstep>
  <scstep>
   <time name="dav">    0.54    0.54</time>
   <time name="total">    2.61    2.62</time>
   <energy>
    <i name="e_fr_energy">   -173.93309486 </i>
    <i name="e_wo_entrp">   -173.93293241 </i>
    <i name="e_0_energy">   -173.93301364 </i>
   </energy>
  </scstep>
  <scstep>
   <time name="dav">    0.53    0.53</time>
   <time name="total">    2.61    2.61</time>
   <energy>
    <i name="e_fr_energy">   -173.93310395 </i>
    <i name="e_wo_entrp">   -173.93294073 </i>
    <i name="e_0_energy">   -173.93302234 </i>
   </energy>
  </scstep>
  <scstep>
   <time name="dav">    0.46    0.46</time>
   <time name="total">    2.54    2.55</time>
   <energy>
    <i name="e_fr_energy">   -173.93309241 </i>
    <i name="e_wo_entrp">   -173.93292817 </i>
    <i name="e_0_energy">   -173.93301029 </i>
   </energy>
  </scstep>
  <scstep>
   <time name="dav">    0.45    0.45</time>
   <time name="total">    2.73    2.73</time>
   <energy>
    <i name="e_fr_energy">   -173.93308177 </i>
    <i name="e_wo_entrp">   -173.93291833 </i>
    <i name="e_0_energy">   -173.93300005 </i>
   </energy>
  </scstep>
  <scstep>
   <time name="dav">    0.38    0.38</time>
   <time name="total">    2.59    2.60</time>
   <energy>
    <i name="alphaZ">   1436.48757412 </i>
    <i name="ewald"> -21820.73833571 </i>
    <i name="hartreedc">  -3639.51049160 </i>
    <i name="XCdc">    842.93525786 </i>
    <i name="pawpsdc">  24609.40032052 </i>
    <i name="pawaedc"> -24421.79265946 </i>
    <i name="eentropy">     -0.00016358 </i>
    <i name="bandstr">  -2810.72179699 </i>
    <i name="atom">  25630.00721240 </i>
    <i name="e_fr_energy">   -173.93308244 </i>
    <i name="e_wo_entrp">   -173.93291885 </i>
    <i name="e_0_energy">   -173.93300064 </i>
   </energy>
  </scstep>
  <structure>
   <crystal>
    <varray name="basis" >
     <v>      12.22634592       0.00000000       0.00000000 </v>
     <v>       0.00000000      12.22634592       0.00000000 </v>
     <v>       0.00000000       0.00000000      12.22634592 </v>
    </varray>
    <i name="volume">   1827.63740156 </i>
    <varray name="rec_basis" >
     <v>       0.08179059       0.00000000       0.00000000 </v>
     <v>       0.00000000       0.08179059       0.00000000 </v>
     <v>       0.00000000       0.00000000       0.08179059 </v>
    </varray>
   </crystal>
   <varray name="positions" >
    <v>       0.99910282       0.00371943       0.99972712 </v>
    <v>       0.00583914       0.00708729       0.33283983 </v>
    <v>       0.00074375       0.00014156       0.66575500 </v>
    <v>       0.99937839       0.33462084       0.99624627 </v>
    <v>       0.99696044       0.33577320       0.33034617 </v>
    <v>       0.00118602       0.33255888       0.66351882 </v>
[...]
        <r>  0.0000  0.0004  0.0000 </r>
        <r>  0.0000  0.0024  0.0000 </r>
        <r>  0.0000  0.0023  0.0000 </r>
        <r>  0.0000  0.0019  0.0000 </r>
        <r>  0.0000  0.0026  0.0000 </r>
        <r>  0.0000  0.0007  0.0000 </r>
        <r>  0.0000  0.0034  0.0000 </r>
        <r>  0.0000  0.0014  0.0000 </r>
        <r>  0.0000  0.0013  0.0000 </r>
       </set>
       <set comment="band 276">
        <r>  0.0000  0.0001  0.0061 </r>
        <r>  0.0000  0.0001  0.0068 </r>
        <r>  0.0000  0.0001  0.0087 </r>
        <r>  0.0000  0.0001  0.0089 </r>
        <r>  0.0000  0.0000  0.0081 </r>
        <r>  0.0000  0.0001  0.0106 </r>
        <r>  0.0000  0.0002  0.0170 </r>
        <r>  0.0000  0.0001  0.0082 </r>
        <r>  0.0000  0.0001  0.0056 </r>
        <r>  0.0000  0.0000  0.0016 </r>
        <r>  0.0000  0.0001  0.0244 </r>
        <r>  0.0000  0.0001  0.0175 </r>
        <r>  0.0000  0.0000  0.0140 </r>
        <r>  0.0000  0.0000  0.0045 </r>
        <r>  0.0000  0.0000  0.0127 </r>
        <r>  0.0000  0.0000  0.0146 </r>
        <r>  0.0000  0.0000  0.0144 </r>
        <r>  0.0000  0.0001  0.0058 </r>
        <r>  0.0000  0.0002  0.0052 </r>
        <r>  0.0000  0.0001  0.0208 </r>
        <r>  0.0000  0.0001  0.0071 </r>
        <r>  0.0000  0.0001  0.0274 </r>
        <r>  0.0000  0.0000  0.0062 </r>
        <r>  0.0000  0.0001  0.0091 </r>
        <r>  0.0000  0.0001  0.0082 </r>
        <r>  0.0000  0.0001  0.0079 </r>
        <r>  0.0000  0.0000  0.0005 </r>
        <r>  0.0000  0.0008  0.0000 </r>
        <r>  0.0000  0.0009  0.0000 </r>
        <r>  0.0000  0.0011  0.0000 </r>
        <r>  0.0000  0.0015  0.0000 </r>
        <r>  0.0000  0.0013  0.0000 </r>
        <r>  0.0000  0.0012  0.0000 </r>
        <r>  0.0000  0.0008  0.0000 </r>
        <r>  0.0000  0.0002  0.0000 </r>
        <r>  0.0000  0.0005  0.0000 </r>
        <r>  0.0000  0.0015  0.0000 </r>
        <r>  0.0000  0.0006  0.0000 </r>
        <r>  0.0000  0.0007  0.0000 </r>
        <r>  0.0000  0.0009  0.0000 </r>
        <r>  0.0000  0.0009  0.0000 </r>
        <r>  0.0000  0.0006  0.0000 </r>
        <r>  0.0000  0.0005  0.0000 </r>
        <r>  0.0000  0.0001  0.0000 </r>
        <r>  0.0000  0.0006  0.0000 </r>
        <r>  0.0000  0.0004  0.0000 </r>
        <r>  0.0000  0.0004  0.0000 </r>
        <r>  0.0000  0.0006  0.0000 </r>
        <r>  0.0000  0.0003  0.0000 </r>
        <r>  0.0000  0.0006  0.0000 </r>
        <r>  0.0000  0.0003  0.0000 </r>
        <r>  0.0000  0.0003  0.0000 </r>
        <r>  0.0000  0.0001  0.0000 </r>
       </set>
       <set comment="band 277">
        <r>  0.0000  0.0002  0.0057 </r>
        <r>  0.0000  0.0000  0.0191 </r>
        <r>  0.0000  0.0004  0.0167 </r>
        <r>  0.0000  0.0000  0.0076 </r>
        <r>  0.0000  0.0003  0.0090 </r>
        <r>  0.0000  0.0004  0.0074 </r>
        <r>  0.0000  0.0002  0.0090 </r>
        <r>  0.0000  0.0003  0.0088 </r>
        <r>  0.0000  0.0002  0.0043 </r>
        <r>  0.0000  0.0005  0.0060 </r>
        <r>  0.0000  0.0000  0.0056 </r>
        <r>  0.0000  0.0004  0.0186 </r>
        <r>  0.0000  0.0001  0.0051 </r>
        <r>  0.0000  0.0004  0.0043 </r>
        <r>  0.0000  0.0006  0.0065 </r>
        <r>  0.0000  0.0003  0.0099 </r>
        <r>  0.0000  0.0005  0.0049 </r>
        <r>  0.0000  0.0002  0.0054 </r>
        <r>  0.0000  0.0002  0.0183 </r>
        <r>  0.0000  0.0000  0.0107 </r>
        <r>  0.0000  0.0001  0.0079 </r>
        <r>  0.0000  0.0001  0.0157 </r>
        <r>  0.0000  0.0003  0.0126 </r>
        <r>  0.0000  0.0001  0.0206 </r>
        <r>  0.0000  0.0003  0.0055 </r>
        <r>  0.0000  0.0003  0.0233 </r>
        <r>  0.0000  0.0000  0.0003 </r>
        <r>  0.0000  0.0019  0.0000 </r>
        <r>  0.0000  0.0019  0.0000 </r>
        <r>  0.0000  0.0009  0.0000 </r>
        <r>  0.0000  0.0012  0.0000 </r>
        <r>  0.0000  0.0001  0.0000 </r>
        <r>  0.0000  0.0009  0.0000 </r>
        <r>  0.0000  0.0011  0.0000 </r>
        <r>  0.0000  0.0024  0.0000 </r>
        <r>  0.0000  0.0016  0.0000 </r>
        <r>  0.0000  0.0019  0.0000 </r>
        <r>  0.0000  0.0025  0.0000 </r>
        <r>  0.0000  0.0030  0.0000 </r>
        <r>  0.0000  0.0018  0.0000 </r>
        <r>  0.0000  0.0003  0.0000 </r>
        <r>  0.0000  0.0033  0.0000 </r>
        <r>  0.0000  0.0003  0.0000 </r>
        <r>  0.0000  0.0028  0.0000 </r>
        <r>  0.0000  0.0018  0.0000 </r>
        <r>  0.0000  0.0024  0.0000 </r>
        <r>  0.0000  0.0040  0.0000 </r>
        <r>  0.0000  0.0030  0.0000 </r>
        <r>  0.0000  0.0034  0.0000 </r>
        <r>  0.0000  0.0002  0.0000 </r>
        <r>  0.0000  0.0052  0.0000 </r>
        <r>  0.0000  0.0008  0.0000 </r>
        <r>  0.0000  0.0035  0.0000 </r>
       </set>
       <set comment="band 278">
        <r>  0.0000  0.0003  0.0253 </r>
        <r>  0.0000  0.0003  0.0082 </r>
        <r>  0.0000  0.0000  0.0175 </r>
        <r>  0.0000  0.0002  0.0048 </r>
        <r>  0.0000  0.0002  0.0014 </r>
        <r>  0.0000  0.0001  0.0030 </r>
        <r>  0.0000  0.0001  0.0097 </r>
        <r>  0.0000  0.0004  0.0105 </r>
        <r>  0.0000  0.0001  0.0056 </r>
        <r>  0.0000  0.0001  0.0025 </r>
        <r>  0.0000  0.0002  0.0072 </r>
        <r>  0.0000  0.0001  0.0113 </r>
        <r>  0.0000  0.0002  0.0106 </r>
        <r>  0.0000  0.0004  0.0191 </r>
        <r>  0.0000  0.0001  0.0046 </r>
        <r>  0.0000  0.0003  0.0112 </r>
        <r>  0.0000  0.0005  0.0093 </r>
        <r>  0.0000  0.0001  0.0127 </r>
        <r>  0.0000  0.0002  0.0301 </r>
        <r>  0.0000  0.0003  0.0221 </r>
        <r>  0.0000  0.0000  0.0062 </r>
        <r>  0.0000  0.0005  0.0022 </r>
        <r>  0.0000  0.0005  0.0213 </r>
        <r>  0.0000  0.0000  0.0030 </r>
        <r>  0.0000  0.0001  0.0092 </r>
        <r>  0.0000  0.0001  0.0031 </r>
        <r>  0.0000  0.0000  0.0016 </r>
        <r>  0.0000  0.0006  0.0000 </r>
        <r>  0.0000  0.0006  0.0000 </r>
        <r>  0.0000  0.0003  0.0000 </r>
        <r>  0.0000  0.0014  0.0000 </r>
        <r>  0.0000  0.0020  0.0000 </r>
        <r>  0.0000  0.0003  0.0000 </r>
        <r>  0.0000  0.0039  0.0000 </r>
        <r>  0.0000  0.0040  0.0000 </r>
        <r>  0.0000  0.0006  0.0000 </r>
        <r>  0.0000  0.0013  0.0000 </r>
        <r>  0.0000  0.0027  0.0000 </r>
        <r>  0.0000  0.0003  0.0000 </r>
        <r>  0.0000  0.0026  0.0000 </r>
        <r>  0.0000  0.0020  0.0000 </r>
        <r>  0.0000  0.0011  0.0000 </r>
        <r>  0.0000  0.0012  0.0000 </r>
        <r>  0.0000  0.0011  0.0000 </r>
        <r>  0.0000  0.0006  0.0000 </r>
        <r>  0.0000  0.0026  0.0000 </r>
        <r>  0.0000  0.0039  0.0000 </r>
        <r>  0.0000  0.0006  0.0000 </r>
        <r>  0.0000  0.0006  0.0000 </r>
        <r>  0.0000  0.0013  0.0000 </r>
        <r>  0.0000  0.0009  0.0000 </r>
        <r>  0.0000  0.0016  0.0000 </r>
        <r>  0.0000  0.0026  0.0000 </r>
       </set>
       <set comment="band 279">
        <r>  0.0000  0.0001  0.0053 </r>
        <r>  0.0000  0.0001  0.0094 </r>
        <r>  0.0000  0.0002  0.0028 </r>
        <r>  0.0000  0.0001  0.0054 </r>
        <r>  0.0000  0.0001  0.0159 </r>
        <r>  0.0000  0.0000  0.0075 </r>
        <r>  0.0000  0.0002  0.0315 </r>
        <r>  0.0000  0.0002  0.0071 </r>
        <r>  0.0000  0.0001  0.0113 </r>
        <r>  0.0000  0.0002  0.0080 </r>
        <r>  0.0000  0.0004  0.0143 </r>
        <r>  0.0000  0.0003  0.0064 </r>
        <r>  0.0000  0.0001  0.0077 </r>
        <r>  0.0000  0.0000  0.0053 </r>
        <r>  0.0000  0.0001  0.0045 </r>
        <r>  0.0000  0.0002  0.0144 </r>
        <r>  0.0000  0.0003  0.0060 </r>
        <r>  0.0000  0.0001  0.0176 </r>
        <r>  0.0000  0.0002  0.0202 </r>
        <r>  0.0000  0.0004  0.0048 </r>
        <r>  0.0000  0.0002  0.0150 </r>
        <r>  0.0000  0.0002  0.0330 </r>
        <r>  0.0000  0.0003  0.0100 </r>
        <r>  0.0000  0.0002  0.0043 </r>
        <r>  0.0000  0.0000  0.0053 </r>
        <r>  0.0000  0.0000  0.0020 </r>
        <r>  0.0000  0.0000  0.0011 </r>
        <r>  0.0000  0.0002  0.0000 </r>
        <r>  0.0000  0.0003  0.0000 </r>
        <r>  0.0000  0.0015  0.0000 </r>
        <r>  0.0000  0.0015  0.0000 </r>
        <r>  0.0000  0.0029  0.0000 </r>
        <r>  0.0000  0.0014  0.0000 </r>
        <r>  0.0000  0.0015  0.0000 </r>
        <r>  0.0000  0.0024  0.0000 </r>
        <r>  0.0000  0.0009  0.0000 </r>
        <r>  0.0000  0.0016  0.0000 </r>
        <r>  0.0000  0.0014  0.0000 </r>
        <r>  0.0000  0.0017  0.0000 </r>
        <r>  0.0000  0.0009  0.0000 </r>
        <r>  0.0000  0.0006  0.0000 </r>
        <r>  0.0000  0.0003  0.0000 </r>
        <r>  0.0000  0.0006  0.0000 </r>
        <r>  0.0000  0.0014  0.0000 </r>
        <r>  0.0000  0.0009  0.0000 </r>
        <r>  0.0000  0.0019  0.0000 </r>
        <r>  0.0000  0.0024  0.0000 </r>
        <r>  0.0000  0.0019  0.0000 </r>
        <r>  0.0000  0.0018  0.0000 </r>
        <r>  0.0000  0.0035  0.0000 </r>
        <r>  0.0000  0.0008  0.0000 </r>
        <r>  0.0000  0.0006  0.0000 </r>
        <r>  0.0000  0.0003  0.0000 </r>
       </set>
       <set comment="band 280">
        <r>  0.0000  0.0002  0.0100 </r>
        <r>  0.0000  0.0001  0.0044 </r>
        <r>  0.0000  0.0002  0.0103 </r>
        <r>  0.0000  0.0003  0.0012 </r>
        <r>  0.0000  0.0001  0.0140 </r>
        <r>  0.0000  0.0002  0.0105 </r>
        <r>  0.0000  0.0005  0.0071 </r>
        <r>  0.0000  0.0000  0.0346 </r>
        <r>  0.0000  0.0004  0.0074 </r>
        <r>  0.0000  0.0003  0.0112 </r>
        <r>  0.0000  0.0002  0.0070 </r>
        <r>  0.0000  0.0007  0.0030 </r>
        <r>  0.0000  0.0001  0.0038 </r>
        <r>  0.0000  0.0002  0.0106 </r>
        <r>  0.0000  0.0002  0.0099 </r>
        <r>  0.0000  0.0004  0.0053 </r>
        <r>  0.0000  0.0001  0.0227 </r>
        <r>  0.0000  0.0004  0.0054 </r>
        <r>  0.0000  0.0003  0.0057 </r>
        <r>  0.0000  0.0001  0.0189 </r>
        <r>  0.0000  0.0003  0.0114 </r>
        <r>  0.0000  0.0004  0.0158 </r>
        <r>  0.0000  0.0001  0.0180 </r>
        <r>  0.0000  0.0004  0.0095 </r>
        <r>  0.0000  0.0000  0.0072 </r>
        <r>  0.0000  0.0000  0.0037 </r>
        <r>  0.0000  0.0000  0.0033 </r>
        <r>  0.0000  0.0003  0.0000 </r>
        <r>  0.0000  0.0004  0.0000 </r>
        <r>  0.0000  0.0021  0.0000 </r>
        <r>  0.0000  0.0017  0.0000 </r>
        <r>  0.0000  0.0011  0.0000 </r>
        <r>  0.0000  0.0022  0.0000 </r>
        <r>  0.0000  0.0024  0.0000 </r>
        <r>  0.0000  0.0008  0.0000 </r>
        <r>  0.0000  0.0028  0.0000 </r>
        <r>  0.0000  0.0038  0.0000 </r>
        <r>  0.0000  0.0004  0.0000 </r>
        <r>  0.0000  0.0020  0.0000 </r>
        <r>  0.0000  0.0016  0.0000 </r>
        <r>  0.0000  0.0007  0.0000 </r>
        <r>  0.0000  0.0010  0.0000 </r>
        <r>  0.0000  0.0021  0.0000 </r>
        <r>  0.0000  0.0011  0.0000 </r>
        <r>  0.0000  0.0029  0.0000 </r>
        <r>  0.0000  0.0031  0.0000 </r>
        <r>  0.0000  0.0005  0.0000 </r>
        <r>  0.0000  0.0053  0.0000 </r>
        <r>  0.0000  0.0023  0.0000 </r>
        <r>  0.0000  0.0015  0.0000 </r>
        <r>  0.0000  0.0014  0.0000 </r>
        <r>  0.0000  0.0007  0.0000 </r>
        <r>  0.0000  0.0011  0.0000 </r>
       </set>
       <set comment="band 281">
        <r>  0.0000  0.0000  0.0048 </r>
        <r>  0.0000  0.0002  0.0099 </r>
        <r>  0.0000  0.0003  0.0080 </r>
        <r>  0.0000  0.0001  0.0042 </r>
        <r>  0.0000  0.0002  0.0045 </r>
        <r>  0.0000  0.0002  0.0331 </r>
        <r>  0.0000  0.0001  0.0163 </r>
        <r>  0.0000  0.0003  0.0072 </r>
        <r>  0.0000  0.0005  0.0091 </r>
        <r>  0.0000  0.0004  0.0075 </r>
        <r>  0.0000  0.0002  0.0053 </r>
        <r>  0.0000  0.0007  0.0027 </r>
        <r>  0.0000  0.0001  0.0059 </r>
        <r>  0.0000  0.0001  0.0049 </r>
        <r>  0.0000  0.0001  0.0177 </r>
        <r>  0.0000  0.0002  0.0139 </r>
        <r>  0.0000  0.0003  0.0075 </r>
        <r>  0.0000  0.0005  0.0089 </r>
        <r>  0.0000  0.0003  0.0097 </r>
        <r>  0.0000  0.0002  0.0037 </r>
        <r>  0.0000  0.0004  0.0052 </r>
        <r>  0.0000  0.0002  0.0172 </r>
        <r>  0.0000  0.0003  0.0325 </r>
        <r>  0.0000  0.0003  0.0051 </r>
        <r>  0.0000  0.0002  0.0055 </r>
        <r>  0.0000  0.0002  0.0163 </r>
        <r>  0.0000  0.0000  0.0054 </r>
        <r>  0.0000  0.0017  0.0000 </r>
        <r>  0.0000  0.0018  0.0000 </r>
        <r>  0.0000  0.0025  0.0000 </r>
        <r>  0.0000  0.0024  0.0000 </r>
        <r>  0.0000  0.0014  0.0000 </r>
        <r>  0.0000  0.0025  0.0000 </r>
        <r>  0.0000  0.0011  0.0000 </r>
        <r>  0.0000  0.0019  0.0000 </r>
        <r>  0.0000  0.0034  0.0000 </r>
        <r>  0.0000  0.0005  0.0000 </r>
        <r>  0.0000  0.0022  0.0000 </r>
        <r>  0.0000  0.0023  0.0000 </r>
        <r>  0.0000  0.0001  0.0000 </r>
        <r>  0.0000  0.0018  0.0000 </r>
        <r>  0.0000  0.0014  0.0000 </r>
        <r>  0.0000  0.0005  0.0000 </r>
        <r>  0.0000  0.0015  0.0000 </r>
        <r>  0.0000  0.0034  0.0000 </r>
        <r>  0.0000  0.0011  0.0000 </r>
        <r>  0.0000  0.0021  0.0000 </r>
        <r>  0.0000  0.0049  0.0000 </r>
        <r>  0.0000  0.0028  0.0000 </r>
        <r>  0.0000  0.0015  0.0000 </r>
        <r>  0.0000  0.0010  0.0000 </r>
        <r>  0.0000  0.0011  0.0000 </r>
        <r>  0.0000  0.0005  0.0000 </r>
       </set>
       <set comment="band 282">
        <r>  0.0000  0.0001  0.0035 </r>
        <r>  0.0000  0.0000  0.0048 </r>
        <r>  0.0000  0.0002  0.0181 </r>
        <r>  0.0000  0.0002  0.0038 </r>
        <r>  0.0000  0.0002  0.0019 </r>
        <r>  0.0000  0.0004  0.0160 </r>
        <r>  0.0000  0.0004  0.0165 </r>
        <r>  0.0000  0.0003  0.0182 </r>
        <r>  0.0000  0.0003  0.0020 </r>
        <r>  0.0000  0.0001  0.0009 </r>
        <r>  0.0000  0.0000  0.0064 </r>
        <r>  0.0000  0.0002  0.0212 </r>
        <r>  0.0000  0.0002  0.0013 </r>
        <r>  0.0000  0.0004  0.0019 </r>
        <r>  0.0000  0.0006  0.0144 </r>
        <r>  0.0000  0.0005  0.0285 </r>
        <r>  0.0000  0.0002  0.0163 </r>
        <r>  0.0000  0.0003  0.0050 </r>
        <r>  0.0000  0.0002  0.0076 </r>
        <r>  0.0000  0.0001  0.0096 </r>
        <r>  0.0000  0.0005  0.0099 </r>
        <r>  0.0000  0.0004  0.0047 </r>
        <r>  0.0000  0.0009  0.0080 </r>
        <r>  0.0000  0.0004  0.0169 </r>
        <r>  0.0000  0.0006  0.0084 </r>
        <r>  0.0000  0.0005  0.0208 </r>
        <r>  0.0000  0.0000  0.0020 </r>
        <r>  0.0000  0.0041  0.0000 </r>
        <r>  0.0000  0.0038  0.0000 </r>
        <r>  0.0000  0.0038  0.0000 </r>
        <r>  0.0000  0.0012  0.0000 </r>
        <r>  0.0000  0.0010  0.0000 </r>
        <r>  0.0000  0.0034  0.0000 </r>
        <r>  0.0000  0.0020  0.0000 </r>
        <r>  0.0000  0.0059  0.0000 </r>
        <r>  0.0000  0.0023  0.0000 </r>
        <r>  0.0000  0.0020  0.0000 </r>
        <r>  0.0000  0.0016  0.0000 </r>
        <r>  0.0000  0.0014  0.0000 </r>
        <r>  0.0000  0.0004  0.0000 </r>
        <r>  0.0000  0.0004  0.0000 </r>
        <r>  0.0000  0.0020  0.0000 </r>
        <r>  0.0000  0.0018  0.0000 </r>
        <r>  0.0000  0.0011  0.0000 </r>
        <r>  0.0000  0.0022  0.0000 </r>
        <r>  0.0000  0.0030  0.0000 </r>
        <r>  0.0000  0.0016  0.0000 </r>
        <r>  0.0000  0.0014  0.0000 </r>
        <r>  0.0000  0.0009  0.0000 </r>
        <r>  0.0000  0.0003  0.0000 </r>
        <r>  0.0000  0.0038  0.0000 </r>
        <r>  0.0000  0.0014  0.0000 </r>
        <r>  0.0000  0.0028  0.0000 </r>
       </set>
      </set>
     </set>
    </set>
   </array>
  </projected>
 </calculation>
 <structure name="finalpos" >
  <crystal>
   <varray name="basis" >
    <v>      12.22634592       0.00000000       0.00000000 </v>
    <v>       0.00000000      12.22634592       0.00000000 </v>
    <v>       0.00000000       0.00000000      12.22634592 </v>
   </varray>
   <i name="volume">   1827.63740156 </i>
   <varray name="rec_basis" >
    <v>       0.08179059       0.00000000       0.00000000 </v>
    <v>       0.00000000       0.08179059       0.00000000 </v>
    <v>       0.00000000       0.00000000       0.08179059 </v>
   </varray>
  </crystal>
  <varray name="positions" >
   <v>       0.00061952       0.00106918       0.00023915 </v>
   <v>       0.00079491       0.00306487       0.33246571 </v>
   <v>       0.99958222       0.00017951       0.66612265 </v>
   <v>       0.00010119       0.33379892       0.00000486 </v>
   <v>       0.00067297       0.33469206       0.33208995 </v>
   <v>       0.99944995       0.33412283       0.66597065 </v>
   <v>       0.99950896       0.66736776       0.99949072 </v>
   <v>       0.99941885       0.66877370       0.33379585 </v>
   <v>       0.99959557       0.66707594       0.66671600 </v>
   <v>       0.33288198       0.00149961       0.00064362 </v>
   <v>       0.33446314       0.00039098       0.33297368 </v>
   <v>       0.33390671       0.99971302       0.66711013 </v>
   <v>       0.33329763       0.33321746       0.99894218 </v>
   <v>       0.33254264       0.33333051       0.33111093 </v>
   <v>       0.33372819       0.33406498       0.66525387 </v>
   <v>       0.33342224       0.66770177       0.99960041 </v>
   <v>       0.33403699       0.66724937       0.33387747 </v>
   <v>       0.33370182       0.66721388       0.66668689 </v>
   <v>       0.66704727       0.00011933       0.99950301 </v>
   <v>       0.66769226       0.99947377       0.33403280 </v>
   <v>       0.66654834       0.00012168       0.66596860 </v>
   <v>       0.66696361       0.33388276       0.99937912 </v>
   <v>       0.66654638       0.33399138       0.33349734 </v>
   <v>       0.66669055       0.33362868       0.66632875 </v>
   <v>       0.66632558       0.66668630       0.99961264 </v>
   <v>       0.66631747       0.66684125       0.33364248 </v>
   <v>       0.66612959       0.66715013       0.66608121 </v>
   <v>       0.16715544       0.16687968       0.50305576 </v>
   <v>       0.16604504       0.16819964       0.82811174 </v>
   <v>       0.16581305       0.50545545       0.16518714 </v>
   <v>       0.16627012       0.50107681       0.49893726 </v>
   <v>       0.16648051       0.50130063       0.83206562 </v>
   <v>       0.16699311       0.83080802       0.16724511 </v>
   <v>       0.16735755       0.83374959       0.50082223 </v>
   <v>       0.16641278       0.83424555       0.83352569 </v>
   <v>       0.50388682       0.16663211       0.16637994 </v>
   <v>       0.50085369       0.16647448       0.50011104 </v>
   <v>       0.50006807       0.16730253       0.83253374 </v>
   <v>       0.49958264       0.50056417       0.16590470 </v>
   <v>       0.50080122       0.50063040       0.50010884 </v>
   <v>       0.50038455       0.50171455       0.83165744 </v>
   <v>       0.50067940       0.83312137       0.16730304 </v>
   <v>       0.50128476       0.83206017       0.50121554 </v>
   <v>       0.50095374       0.83293128       0.83285495 </v>
   <v>       0.82904698       0.16806357       0.16589755 </v>
   <v>       0.83333032       0.16776710       0.49970220 </v>
   <v>       0.83254496       0.16698250       0.83225515 </v>
   <v>       0.83257776       0.50155973       0.16626698 </v>
   <v>       0.83229455       0.50183133       0.50011703 </v>
   <v>       0.83193968       0.50180291       0.83186363 </v>
   <v>       0.83316066       0.83438262       0.16644246 </v>
   <v>       0.83308959       0.83324097       0.50084258 </v>
   <v>       0.83225132       0.83322401       0.83232657 </v>
  </varray>
 </structure>
</modeling>
