 vasp.6.5.1 10Mar25 (build May 13 2025 11:33:44) complex                         
 executed on              LinuxNV date 2026.05.13  01:43:03
 running    2 mpi-ranks, on    1 nodes
 distrk:  each k-point on    1 cores,    2 groups
 distr:  one band on NCORE=   1 cores,    1 groups
 Offloading initialized ...    2 GPUs detected


--------------------------------------------------------------------------------------------------------


 INCAR:
   ALGO = Normal
   PREC = Normal
   LREAL = False
   EDIFF = 1e-05
   ENCUT = 262.472
   LASPH = True
   NELM = 100
   ISIF = 0
   IBRION = 2
   NSW = 1
   ISMEAR = 0
   SIGMA = 0.1
   LWAVE = False
   LCHARG = False
   NBANDS = 21
   LORBIT = 10
   GGA = Ps
   KPAR = 4

 POTCAR:    PAW_PBE Cs_sv 08Apr2002               
 POTCAR:    PAW_PBE Cl 06Sep2000                  
 POTCAR:    PAW_PBE Cs_sv 08Apr2002               
   SHA256 =  c1463496f0f6037ed62c6012a8013a89ee9ad6ffb38599dcd6c079e7ed31779b Cs_sv/POTCAR          
   COPYR  = (c) Copyright 08Apr2002 Georg Kresse                                                    
   COPYR  = This file is part of the software VASP. Any use, copying, and all other rights are regul
   COPYR  = If you do not have a valid VASP license, you may not use, copy or distribute this file. 
   VRHFIN =Cs: 5s5p6s                                                                               
   LEXCH  = PE                                                                                      
   EATOM  =   555.6835 eV,   40.8416 Ry                                                             
                                                                                                    
   TITEL  = PAW_PBE Cs_sv 08Apr2002                                                                 
   LULTRA =        F    use ultrasoft PP ?                                                          
   IUNSCR =        1    unscreen: 0-lin 1-nonlin 2-no                                               
   RPACOR =    2.200    partial core radius                                                         
   POMASS =  132.900; ZVAL   =    9.000    mass and valenz                                          
   RCORE  =    2.500    outmost cutoff radius                                                       
   RWIGS  =    2.500; RWIGS  =    1.323    wigner-seitz radius (au A)                               
   ENMAX  =  220.318; ENMIN  =  165.238 eV                                                          
   RCLOC  =    2.207    cutoff for local pot                                                        
   LCOR   =        T    correct aug charges                                                         
   LPAW   =        T    paw PP                                                                      
   EAUG   =  407.933                                                                                
   DEXC   =    0.000                                                                                
   RMAX   =    2.554    core radius for proj-oper                                                   
   RAUG   =    1.300    factor for augmentation sphere                                              
   RDEP   =    2.590    radius for radial grids                                                     
   RDEPT  =    2.117    core radius for aug-charge                                                  
                                                                                                    
   Atomic configuration                                                                             
   13 entries                                                                                       
     n  l   j            E        occ.                                                              
     1  0  0.50    -35790.1377   2.0000                                                             
     2  0  0.50     -5613.6201   2.0000                                                             
     2  1  1.50     -5035.0101   6.0000                                                             
     3  0  0.50     -1167.0767   2.0000                                                             
     3  1  1.50      -980.9754   6.0000                                                             
     3  2  2.50      -708.0703  10.0000                                                             
     4  0  0.50      -220.2386   2.0000                                                             
     4  1  1.50      -160.7596   6.0000                                                             
     4  2  2.50       -74.2354  10.0000                                                             
     5  0  0.50       -26.7287   2.0000                                                             
     6  0  0.50        -2.0862   1.0000                                                             
     5  1  1.50       -13.5159   6.0000                                                             
     5  2  2.50        -0.4136   0.0000                                                             
   Description                                                                                      
     l       E           TYP  RCUT    TYP  RCUT                                                     
     0    -26.7287425     23  1.900                                                                 
     0     -2.0862306     23  1.900                                                                 
     1    -13.5158719     23  2.500                                                                 
     1     -2.7211652     23  2.500                                                                 
     2     -0.4136171     23  2.500                                                                 
  local pseudopotential read in
  partial core-charges read in
  partial kinetic energy density read in
  atomic valenz-charges read in
  non local Contribution for L=            0  read in
    real space projection operators read in
  non local Contribution for L=            0  read in
    real space projection operators read in
  non local Contribution for L=            1  read in
    real space projection operators read in
  non local Contribution for L=            1  read in
    real space projection operators read in
  non local Contribution for L=            2  read in
    real space projection operators read in
    PAW grid and wavefunctions read in
 
   number of l-projection  operators is LMAX  =            5
   number of lm-projection operators is LMMAX =           13
 
 POTCAR:    PAW_PBE Cl 06Sep2000                  
   SHA256 =  9f1b6e6ed4247ac726a768b330d26d7667cc3c95a39ff49c1d064c2d9dcce931 Cl/POTCAR             
   COPYR  = (c) Copyright 06Sep2000 Georg Kresse                                                    
   COPYR  = This file is part of the software VASP. Any use, copying, and all other rights are regul
   COPYR  = If you do not have a valid VASP license, you may not use, copy or distribute this file. 
   VRHFIN =Cl: s2p5                                                                                 
   LEXCH  = PE                                                                                      
   EATOM  =   409.7259 eV,   30.1140 Ry                                                             
                                                                                                    
   TITEL  = PAW_PBE Cl 06Sep2000                                                                    
   LULTRA =        F    use ultrasoft PP ?                                                          
   IUNSCR =        1    unscreen: 0-lin 1-nonlin 2-no                                               
   RPACOR =    1.500    partial core radius                                                         
   POMASS =   35.453; ZVAL   =    7.000    mass and valenz                                          
   RCORE  =    1.900    outmost cutoff radius                                                       
   RWIGS  =    2.100; RWIGS  =    1.111    wigner-seitz radius (au A)                               
   ENMAX  =  262.472; ENMIN  =  196.854 eV                                                          
   ICORE  =        2    local potential                                                             
   LCOR   =        T    correct aug charges                                                         
   LPAW   =        T    paw PP                                                                      
   EAUG   =  356.192                                                                                
   DEXC   =    0.000                                                                                
   RMAX   =    1.945    core radius for proj-oper                                                   
   RAUG   =    1.300    factor for augmentation sphere                                              
   RDEP   =    2.020    radius for radial grids                                                     
   RDEPT  =    1.678    core radius for aug-charge                                                  
                                                                                                    
   Atomic configuration                                                                             
    6 entries                                                                                       
     n  l   j            E        occ.                                                              
     1  0  0.50     -2751.1850   2.0000                                                             
     2  0  0.50      -252.6861   2.0000                                                             
     2  1  1.50      -191.6157   6.0000                                                             
     3  0  0.50       -20.6916   2.0000                                                             
     3  1  0.50        -8.5949   5.0000                                                             
     3  2  1.50        -8.1635   0.0000                                                             
   Description                                                                                      
     l       E           TYP  RCUT    TYP  RCUT                                                     
     0    -20.6915656     23  1.900                                                                 
     0    -22.0521482     23  1.900                                                                 
     1     -8.5948577     23  1.900                                                                 
     1     -5.3847331     23  1.900                                                                 
     2     -8.1634956     23  1.900                                                                 
  local pseudopotential read in
  partial core-charges read in
  partial kinetic energy density read in
  atomic valenz-charges read in
  non local Contribution for L=            0  read in
    real space projection operators read in
  non local Contribution for L=            0  read in
    real space projection operators read in
  non local Contribution for L=            1  read in
    real space projection operators read in
  non local Contribution for L=            1  read in
    real space projection operators read in
    PAW grid and wavefunctions read in
 
   number of l-projection  operators is LMAX  =            4
   number of lm-projection operators is LMMAX =            8
 
 -----------------------------------------------------------------------------
|                                                                             |
|               ----> ADVICE to this user running VASP <----                  |
|                                                                             |
|     You enforced a specific xc type in the INCAR file but a different       |
|     type was found in the POTCAR file.                                      |
|     I HOPE YOU KNOW WHAT YOU ARE DOING!                                     |
|                                                                             |
 -----------------------------------------------------------------------------

  PAW_PBE Cs_sv 08Apr2002               :
 energy of atom  1       EATOM= -555.6835
 kinetic energy error for atom=    0.0137 (will be added to EATOM!!)
  PAW_PBE Cl 06Sep2000                  :
 energy of atom  2       EATOM= -409.7259
 kinetic energy error for atom=    0.0483 (will be added to EATOM!!)
 
 
 POSCAR: Cs1 Cl1
  positions in direct lattice
  No initial velocities read in


 exchange-correlation table for PS
   RHO(1)=    0.500       N(1)  =     2000
   RHO(2)=  100.500       N(2)  =     4000
 


--------------------------------------------------------------------------------------------------------


 ion  position               nearest neighbor table
   1  0.000  0.000  0.000-
   2  0.500  0.500  0.500-
 
  LATTYP: Found a simple cubic cell.
 ALAT       =     4.0754486391
  
  Lattice vectors:
  
 A1 = (   4.0754486391,   0.0000000000,   0.0000000000)
 A2 = (   0.0000000000,   4.0754486391,   0.0000000000)
 A3 = (   0.0000000000,   0.0000000000,   4.0754486391)


Analysis of symmetry for initial positions (statically):
=====================================================================
 Subroutine PRICEL returns:
 Original cell was already a primitive cell.
 

 Routine SETGRP: Setting up the symmetry group for a 
 simple cubic supercell.


 Subroutine GETGRP returns: Found 48 space group operations
 (whereof 48 operations were pure point group operations)
 out of a pool of 48 trial point group operations.


The static configuration has the point symmetry O_h .


Analysis of symmetry for dynamics (positions and initial velocities):
=====================================================================
 Subroutine PRICEL returns:
 Original cell was already a primitive cell.
 

 Routine SETGRP: Setting up the symmetry group for a 
 simple cubic supercell.


 Subroutine GETGRP returns: Found 48 space group operations
 (whereof 48 operations were pure point group operations)
 out of a pool of 48 trial point group operations.


The dynamic configuration has the point symmetry O_h .


 Subroutine INISYM returns: Found 48 space group operations
 (whereof 48 operations are pure point group operations),
 and found     1 'primitive' translations


----------------------------------------------------------------------------------------

                                     Primitive cell                                     

  volume of cell :      67.6903

  direct lattice vectors                    reciprocal lattice vectors
     4.075448639  0.000000000  0.000000000     0.245371759  0.000000000  0.000000000
     0.000000000  4.075448639  0.000000000     0.000000000  0.245371759  0.000000000
     0.000000000  0.000000000  4.075448639     0.000000000  0.000000000  0.245371759

  length of vectors
     4.075448639  4.075448639  4.075448639     0.245371759  0.245371759  0.245371759

  position of ions in fractional coordinates (direct lattice)
     0.000000000  0.000000000  0.000000000
     0.500000000  0.500000000  0.500000000

  ion indices of the primitive-cell ions
   primitive index   ion index
                 1           1
                 2           2

----------------------------------------------------------------------------------------

 
 
 KPOINTS: k-path added by seekpath. Formula: CsCl 

Read explicit list of k-points.

 Found    229 k-points:

 Following reciprocal coordinates:
            Coordinates               Weight
  0.125000  0.125000  0.125000      0.125000
  0.375000  0.125000  0.125000      0.375000
  0.375000  0.375000  0.125000      0.375000
  0.375000  0.375000  0.375000      0.125000
  0.000000  0.000000  0.000000      0.000000
  0.000000  0.017241  0.000000      0.000000
  0.000000  0.034483  0.000000      0.000000
  0.000000  0.051724  0.000000      0.000000
  0.000000  0.068966  0.000000      0.000000
  0.000000  0.086207  0.000000      0.000000
  0.000000  0.103448  0.000000      0.000000
  0.000000  0.120690  0.000000      0.000000
  0.000000  0.137931  0.000000      0.000000
  0.000000  0.155172  0.000000      0.000000
  0.000000  0.172414  0.000000      0.000000
  0.000000  0.189655  0.000000      0.000000
  0.000000  0.206897  0.000000      0.000000
  0.000000  0.224138  0.000000      0.000000
  0.000000  0.241379  0.000000      0.000000
  0.000000  0.258621  0.000000      0.000000
  0.000000  0.275862  0.000000      0.000000
  0.000000  0.293103  0.000000      0.000000
  0.000000  0.310345  0.000000      0.000000
  0.000000  0.327586  0.000000      0.000000
  0.000000  0.344828  0.000000      0.000000
  0.000000  0.362069  0.000000      0.000000
  0.000000  0.379310  0.000000      0.000000
  0.000000  0.396552  0.000000      0.000000
  0.000000  0.413793  0.000000      0.000000
  0.000000  0.431034  0.000000      0.000000
  0.000000  0.448276  0.000000      0.000000
  0.000000  0.465517  0.000000      0.000000
  0.000000  0.482759  0.000000      0.000000
  0.000000  0.500000  0.000000      0.000000
  0.017241  0.500000  0.000000      0.000000
  0.034483  0.500000  0.000000      0.000000
  0.051724  0.500000  0.000000      0.000000
  0.068966  0.500000  0.000000      0.000000
  0.086207  0.500000  0.000000      0.000000
  0.103448  0.500000  0.000000      0.000000
  0.120690  0.500000  0.000000      0.000000
  0.137931  0.500000  0.000000      0.000000
  0.155172  0.500000  0.000000      0.000000
  0.172414  0.500000  0.000000      0.000000
  0.189655  0.500000  0.000000      0.000000
  0.206897  0.500000  0.000000      0.000000
  0.224138  0.500000  0.000000      0.000000
  0.241379  0.500000  0.000000      0.000000
  0.258621  0.500000  0.000000      0.000000
  0.275862  0.500000  0.000000      0.000000
  0.293103  0.500000  0.000000      0.000000
  0.310345  0.500000  0.000000      0.000000
  0.327586  0.500000  0.000000      0.000000
  0.344828  0.500000  0.000000      0.000000
  0.362069  0.500000  0.000000      0.000000
  0.379310  0.500000  0.000000      0.000000
  0.396552  0.500000  0.000000      0.000000
  0.413793  0.500000  0.000000      0.000000
  0.431034  0.500000  0.000000      0.000000
  0.448276  0.500000  0.000000      0.000000
  0.465517  0.500000  0.000000      0.000000
  0.482759  0.500000  0.000000      0.000000
  0.500000  0.500000  0.000000      0.000000
  0.488095  0.488095  0.000000      0.000000
  0.476190  0.476190  0.000000      0.000000
  0.464286  0.464286  0.000000      0.000000
  0.452381  0.452381  0.000000      0.000000
  0.440476  0.440476  0.000000      0.000000
  0.428571  0.428571  0.000000      0.000000
  0.416667  0.416667  0.000000      0.000000
  0.404762  0.404762  0.000000      0.000000
  0.392857  0.392857  0.000000      0.000000
  0.380952  0.380952  0.000000      0.000000
  0.369048  0.369048  0.000000      0.000000
  0.357143  0.357143  0.000000      0.000000
  0.345238  0.345238  0.000000      0.000000
  0.333333  0.333333  0.000000      0.000000
  0.321429  0.321429  0.000000      0.000000
  0.309524  0.309524  0.000000      0.000000
  0.297619  0.297619  0.000000      0.000000
  0.285714  0.285714  0.000000      0.000000
  0.273810  0.273810  0.000000      0.000000
  0.261905  0.261905  0.000000      0.000000
  0.250000  0.250000  0.000000      0.000000
  0.238095  0.238095  0.000000      0.000000
  0.226190  0.226190  0.000000      0.000000
  0.214286  0.214286  0.000000      0.000000
  0.202381  0.202381  0.000000      0.000000
  0.190476  0.190476  0.000000      0.000000
  0.178571  0.178571  0.000000      0.000000
  0.166667  0.166667  0.000000      0.000000
  0.154762  0.154762  0.000000      0.000000
  0.142857  0.142857  0.000000      0.000000
  0.130952  0.130952  0.000000      0.000000
  0.119048  0.119048  0.000000      0.000000
  0.107143  0.107143  0.000000      0.000000
  0.095238  0.095238  0.000000      0.000000
  0.083333  0.083333  0.000000      0.000000
  0.071429  0.071429  0.000000      0.000000
  0.059524  0.059524  0.000000      0.000000
  0.047619  0.047619  0.000000      0.000000
  0.035714  0.035714  0.000000      0.000000
  0.023810  0.023810  0.000000      0.000000
  0.011905  0.011905  0.000000      0.000000
  0.000000  0.000000  0.000000      0.000000
  0.009615  0.009615  0.009615      0.000000
  0.019231  0.019231  0.019231      0.000000
  0.028846  0.028846  0.028846      0.000000
  0.038462  0.038462  0.038462      0.000000
  0.048077  0.048077  0.048077      0.000000
  0.057692  0.057692  0.057692      0.000000
  0.067308  0.067308  0.067308      0.000000
  0.076923  0.076923  0.076923      0.000000
  0.086538  0.086538  0.086538      0.000000
  0.096154  0.096154  0.096154      0.000000
  0.105769  0.105769  0.105769      0.000000
  0.115385  0.115385  0.115385      0.000000
  0.125000  0.125000  0.125000      0.000000
  0.134615  0.134615  0.134615      0.000000
  0.144231  0.144231  0.144231      0.000000
  0.153846  0.153846  0.153846      0.000000
  0.163462  0.163462  0.163462      0.000000
  0.173077  0.173077  0.173077      0.000000
  0.182692  0.182692  0.182692      0.000000
  0.192308  0.192308  0.192308      0.000000
  0.201923  0.201923  0.201923      0.000000
  0.211538  0.211538  0.211538      0.000000
  0.221154  0.221154  0.221154      0.000000
  0.230769  0.230769  0.230769      0.000000
  0.240385  0.240385  0.240385      0.000000
  0.250000  0.250000  0.250000      0.000000
  0.259615  0.259615  0.259615      0.000000
  0.269231  0.269231  0.269231      0.000000
  0.278846  0.278846  0.278846      0.000000
  0.288462  0.288462  0.288462      0.000000
  0.298077  0.298077  0.298077      0.000000
  0.307692  0.307692  0.307692      0.000000
  0.317308  0.317308  0.317308      0.000000
  0.326923  0.326923  0.326923      0.000000
  0.336538  0.336538  0.336538      0.000000
  0.346154  0.346154  0.346154      0.000000
  0.355769  0.355769  0.355769      0.000000
  0.365385  0.365385  0.365385      0.000000
  0.375000  0.375000  0.375000      0.000000
  0.384615  0.384615  0.384615      0.000000
  0.394231  0.394231  0.394231      0.000000
  0.403846  0.403846  0.403846      0.000000
  0.413462  0.413462  0.413462      0.000000
  0.423077  0.423077  0.423077      0.000000
  0.432692  0.432692  0.432692      0.000000
  0.442308  0.442308  0.442308      0.000000
  0.451923  0.451923  0.451923      0.000000
  0.461538  0.461538  0.461538      0.000000
  0.471154  0.471154  0.471154      0.000000
  0.480769  0.480769  0.480769      0.000000
  0.490385  0.490385  0.490385      0.000000
  0.500000  0.500000  0.500000      0.000000
  0.488095  0.500000  0.488095      0.000000
  0.476190  0.500000  0.476190      0.000000
  0.464286  0.500000  0.464286      0.000000
  0.452381  0.500000  0.452381      0.000000
  0.440476  0.500000  0.440476      0.000000
  0.428571  0.500000  0.428571      0.000000
  0.416667  0.500000  0.416667      0.000000
  0.404762  0.500000  0.404762      0.000000
  0.392857  0.500000  0.392857      0.000000
  0.380952  0.500000  0.380952      0.000000
  0.369048  0.500000  0.369048      0.000000
  0.357143  0.500000  0.357143      0.000000
  0.345238  0.500000  0.345238      0.000000
  0.333333  0.500000  0.333333      0.000000
  0.321429  0.500000  0.321429      0.000000
  0.309524  0.500000  0.309524      0.000000
  0.297619  0.500000  0.297619      0.000000
  0.285714  0.500000  0.285714      0.000000
  0.273810  0.500000  0.273810      0.000000
  0.261905  0.500000  0.261905      0.000000
  0.250000  0.500000  0.250000      0.000000
  0.238095  0.500000  0.238095      0.000000
  0.226190  0.500000  0.226190      0.000000
  0.214286  0.500000  0.214286      0.000000
  0.202381  0.500000  0.202381      0.000000
  0.190476  0.500000  0.190476      0.000000
  0.178571  0.500000  0.178571      0.000000
  0.166667  0.500000  0.166667      0.000000
  0.154762  0.500000  0.154762      0.000000
  0.142857  0.500000  0.142857      0.000000
  0.130952  0.500000  0.130952      0.000000
  0.119048  0.500000  0.119048      0.000000
  0.107143  0.500000  0.107143      0.000000
  0.095238  0.500000  0.095238      0.000000
  0.083333  0.500000  0.083333      0.000000
  0.071429  0.500000  0.071429      0.000000
  0.059524  0.500000  0.059524      0.000000
  0.047619  0.500000  0.047619      0.000000
  0.035714  0.500000  0.035714      0.000000
  0.023810  0.500000  0.023810      0.000000
  0.011905  0.500000  0.011905      0.000000
  0.000000  0.500000  0.000000      0.000000
  0.500000  0.500000  0.500000      0.000000
  0.500000  0.500000  0.482759      0.000000
  0.500000  0.500000  0.465517      0.000000
  0.500000  0.500000  0.448276      0.000000
  0.500000  0.500000  0.431034      0.000000
  0.500000  0.500000  0.413793      0.000000
  0.500000  0.500000  0.396552      0.000000
  0.500000  0.500000  0.379310      0.000000
  0.500000  0.500000  0.362069      0.000000
  0.500000  0.500000  0.344828      0.000000
  0.500000  0.500000  0.327586      0.000000
  0.500000  0.500000  0.310345      0.000000
  0.500000  0.500000  0.293103      0.000000
  0.500000  0.500000  0.275862      0.000000
  0.500000  0.500000  0.258621      0.000000
  0.500000  0.500000  0.241379      0.000000
  0.500000  0.500000  0.224138      0.000000
  0.500000  0.500000  0.206897      0.000000
  0.500000  0.500000  0.189655      0.000000
  0.500000  0.500000  0.172414      0.000000
  0.500000  0.500000  0.155172      0.000000
  0.500000  0.500000  0.137931      0.000000
  0.500000  0.500000  0.120690      0.000000
  0.500000  0.500000  0.103448      0.000000
  0.500000  0.500000  0.086207      0.000000
  0.500000  0.500000  0.068966      0.000000
  0.500000  0.500000  0.051724      0.000000
  0.500000  0.500000  0.034483      0.000000
  0.500000  0.500000  0.017241      0.000000
  0.500000  0.500000  0.000000      0.000000

 Following cartesian coordinates:
            Coordinates               Weight
  0.030671  0.030671  0.030671      0.125000
  0.092014  0.030671  0.030671      0.375000
  0.092014  0.092014  0.030671      0.375000
  0.092014  0.092014  0.092014      0.125000
  0.000000  0.000000  0.000000      0.000000
  0.000000  0.004231  0.000000      0.000000
  0.000000  0.008461  0.000000      0.000000
  0.000000  0.012692  0.000000      0.000000
  0.000000  0.016922  0.000000      0.000000
  0.000000  0.021153  0.000000      0.000000
  0.000000  0.025383  0.000000      0.000000
  0.000000  0.029614  0.000000      0.000000
  0.000000  0.033844  0.000000      0.000000
  0.000000  0.038075  0.000000      0.000000
  0.000000  0.042305  0.000000      0.000000
  0.000000  0.046536  0.000000      0.000000
  0.000000  0.050767  0.000000      0.000000
  0.000000  0.054997  0.000000      0.000000
  0.000000  0.059228  0.000000      0.000000
  0.000000  0.063458  0.000000      0.000000
  0.000000  0.067689  0.000000      0.000000
  0.000000  0.071919  0.000000      0.000000
  0.000000  0.076150  0.000000      0.000000
  0.000000  0.080380  0.000000      0.000000
  0.000000  0.084611  0.000000      0.000000
  0.000000  0.088841  0.000000      0.000000
  0.000000  0.093072  0.000000      0.000000
  0.000000  0.097303  0.000000      0.000000
  0.000000  0.101533  0.000000      0.000000
  0.000000  0.105764  0.000000      0.000000
  0.000000  0.109994  0.000000      0.000000
  0.000000  0.114225  0.000000      0.000000
  0.000000  0.118455  0.000000      0.000000
  0.000000  0.122686  0.000000      0.000000
  0.004231  0.122686  0.000000      0.000000
  0.008461  0.122686  0.000000      0.000000
  0.012692  0.122686  0.000000      0.000000
  0.016922  0.122686  0.000000      0.000000
  0.021153  0.122686  0.000000      0.000000
  0.025383  0.122686  0.000000      0.000000
  0.029614  0.122686  0.000000      0.000000
  0.033844  0.122686  0.000000      0.000000
  0.038075  0.122686  0.000000      0.000000
  0.042305  0.122686  0.000000      0.000000
  0.046536  0.122686  0.000000      0.000000
  0.050767  0.122686  0.000000      0.000000
  0.054997  0.122686  0.000000      0.000000
  0.059228  0.122686  0.000000      0.000000
  0.063458  0.122686  0.000000      0.000000
  0.067689  0.122686  0.000000      0.000000
  0.071919  0.122686  0.000000      0.000000
  0.076150  0.122686  0.000000      0.000000
  0.080380  0.122686  0.000000      0.000000
  0.084611  0.122686  0.000000      0.000000
  0.088841  0.122686  0.000000      0.000000
  0.093072  0.122686  0.000000      0.000000
  0.097303  0.122686  0.000000      0.000000
  0.101533  0.122686  0.000000      0.000000
  0.105764  0.122686  0.000000      0.000000
  0.109994  0.122686  0.000000      0.000000
  0.114225  0.122686  0.000000      0.000000
  0.118455  0.122686  0.000000      0.000000
  0.122686  0.122686  0.000000      0.000000
  0.119765  0.119765  0.000000      0.000000
  0.116844  0.116844  0.000000      0.000000
  0.113923  0.113923  0.000000      0.000000
  0.111002  0.111002  0.000000      0.000000
  0.108080  0.108080  0.000000      0.000000
  0.105159  0.105159  0.000000      0.000000
  0.102238  0.102238  0.000000      0.000000
  0.099317  0.099317  0.000000      0.000000
  0.096396  0.096396  0.000000      0.000000
  0.093475  0.093475  0.000000      0.000000
  0.090554  0.090554  0.000000      0.000000
  0.087633  0.087633  0.000000      0.000000
  0.084712  0.084712  0.000000      0.000000
  0.081791  0.081791  0.000000      0.000000
  0.078869  0.078869  0.000000      0.000000
  0.075948  0.075948  0.000000      0.000000
  0.073027  0.073027  0.000000      0.000000
  0.070106  0.070106  0.000000      0.000000
  0.067185  0.067185  0.000000      0.000000
  0.064264  0.064264  0.000000      0.000000
  0.061343  0.061343  0.000000      0.000000
  0.058422  0.058422  0.000000      0.000000
  0.055501  0.055501  0.000000      0.000000
  0.052580  0.052580  0.000000      0.000000
  0.049659  0.049659  0.000000      0.000000
  0.046737  0.046737  0.000000      0.000000
  0.043816  0.043816  0.000000      0.000000
  0.040895  0.040895  0.000000      0.000000
  0.037974  0.037974  0.000000      0.000000
  0.035053  0.035053  0.000000      0.000000
  0.032132  0.032132  0.000000      0.000000
  0.029211  0.029211  0.000000      0.000000
  0.026290  0.026290  0.000000      0.000000
  0.023369  0.023369  0.000000      0.000000
  0.020448  0.020448  0.000000      0.000000
  0.017527  0.017527  0.000000      0.000000
  0.014605  0.014605  0.000000      0.000000
  0.011684  0.011684  0.000000      0.000000
  0.008763  0.008763  0.000000      0.000000
  0.005842  0.005842  0.000000      0.000000
  0.002921  0.002921  0.000000      0.000000
  0.000000  0.000000  0.000000      0.000000
  0.002359  0.002359  0.002359      0.000000
  0.004719  0.004719  0.004719      0.000000
  0.007078  0.007078  0.007078      0.000000
  0.009437  0.009437  0.009437      0.000000
  0.011797  0.011797  0.011797      0.000000
  0.014156  0.014156  0.014156      0.000000
  0.016515  0.016515  0.016515      0.000000
  0.018875  0.018875  0.018875      0.000000
  0.021234  0.021234  0.021234      0.000000
  0.023593  0.023593  0.023593      0.000000
  0.025953  0.025953  0.025953      0.000000
  0.028312  0.028312  0.028312      0.000000
  0.030671  0.030671  0.030671      0.000000
  0.033031  0.033031  0.033031      0.000000
  0.035390  0.035390  0.035390      0.000000
  0.037750  0.037750  0.037750      0.000000
  0.040109  0.040109  0.040109      0.000000
  0.042468  0.042468  0.042468      0.000000
  0.044828  0.044828  0.044828      0.000000
  0.047187  0.047187  0.047187      0.000000
  0.049546  0.049546  0.049546      0.000000
  0.051906  0.051906  0.051906      0.000000
  0.054265  0.054265  0.054265      0.000000
  0.056624  0.056624  0.056624      0.000000
  0.058984  0.058984  0.058984      0.000000
  0.061343  0.061343  0.061343      0.000000
  0.063702  0.063702  0.063702      0.000000
  0.066062  0.066062  0.066062      0.000000
  0.068421  0.068421  0.068421      0.000000
  0.070780  0.070780  0.070780      0.000000
  0.073140  0.073140  0.073140      0.000000
  0.075499  0.075499  0.075499      0.000000
  0.077858  0.077858  0.077858      0.000000
  0.080218  0.080218  0.080218      0.000000
  0.082577  0.082577  0.082577      0.000000
  0.084936  0.084936  0.084936      0.000000
  0.087296  0.087296  0.087296      0.000000
  0.089655  0.089655  0.089655      0.000000
  0.092014  0.092014  0.092014      0.000000
  0.094374  0.094374  0.094374      0.000000
  0.096733  0.096733  0.096733      0.000000
  0.099092  0.099092  0.099092      0.000000
  0.101452  0.101452  0.101452      0.000000
  0.103811  0.103811  0.103811      0.000000
  0.106170  0.106170  0.106170      0.000000
  0.108530  0.108530  0.108530      0.000000
  0.110889  0.110889  0.110889      0.000000
  0.113249  0.113249  0.113249      0.000000
  0.115608  0.115608  0.115608      0.000000
  0.117967  0.117967  0.117967      0.000000
  0.120327  0.120327  0.120327      0.000000
  0.122686  0.122686  0.122686      0.000000
  0.119765  0.122686  0.119765      0.000000
  0.116844  0.122686  0.116844      0.000000
  0.113923  0.122686  0.113923      0.000000
  0.111002  0.122686  0.111002      0.000000
  0.108080  0.122686  0.108080      0.000000
  0.105159  0.122686  0.105159      0.000000
  0.102238  0.122686  0.102238      0.000000
  0.099317  0.122686  0.099317      0.000000
  0.096396  0.122686  0.096396      0.000000
  0.093475  0.122686  0.093475      0.000000
  0.090554  0.122686  0.090554      0.000000
  0.087633  0.122686  0.087633      0.000000
  0.084712  0.122686  0.084712      0.000000
  0.081791  0.122686  0.081791      0.000000
  0.078869  0.122686  0.078869      0.000000
  0.075948  0.122686  0.075948      0.000000
  0.073027  0.122686  0.073027      0.000000
  0.070106  0.122686  0.070106      0.000000
  0.067185  0.122686  0.067185      0.000000
  0.064264  0.122686  0.064264      0.000000
  0.061343  0.122686  0.061343      0.000000
  0.058422  0.122686  0.058422      0.000000
  0.055501  0.122686  0.055501      0.000000
  0.052580  0.122686  0.052580      0.000000
  0.049659  0.122686  0.049659      0.000000
  0.046737  0.122686  0.046737      0.000000
  0.043816  0.122686  0.043816      0.000000
  0.040895  0.122686  0.040895      0.000000
  0.037974  0.122686  0.037974      0.000000
  0.035053  0.122686  0.035053      0.000000
  0.032132  0.122686  0.032132      0.000000
  0.029211  0.122686  0.029211      0.000000
  0.026290  0.122686  0.026290      0.000000
  0.023369  0.122686  0.023369      0.000000
  0.020448  0.122686  0.020448      0.000000
  0.017527  0.122686  0.017527      0.000000
  0.014605  0.122686  0.014605      0.000000
  0.011684  0.122686  0.011684      0.000000
  0.008763  0.122686  0.008763      0.000000
  0.005842  0.122686  0.005842      0.000000
  0.002921  0.122686  0.002921      0.000000
  0.000000  0.122686  0.000000      0.000000
  0.122686  0.122686  0.122686      0.000000
  0.122686  0.122686  0.118455      0.000000
  0.122686  0.122686  0.114225      0.000000
  0.122686  0.122686  0.109994      0.000000
  0.122686  0.122686  0.105764      0.000000
  0.122686  0.122686  0.101533      0.000000
  0.122686  0.122686  0.097303      0.000000
  0.122686  0.122686  0.093072      0.000000
  0.122686  0.122686  0.088841      0.000000
  0.122686  0.122686  0.084611      0.000000
  0.122686  0.122686  0.080380      0.000000
  0.122686  0.122686  0.076150      0.000000
  0.122686  0.122686  0.071919      0.000000
  0.122686  0.122686  0.067689      0.000000
  0.122686  0.122686  0.063458      0.000000
  0.122686  0.122686  0.059228      0.000000
  0.122686  0.122686  0.054997      0.000000
  0.122686  0.122686  0.050767      0.000000
  0.122686  0.122686  0.046536      0.000000
  0.122686  0.122686  0.042305      0.000000
  0.122686  0.122686  0.038075      0.000000
  0.122686  0.122686  0.033844      0.000000
  0.122686  0.122686  0.029614      0.000000
  0.122686  0.122686  0.025383      0.000000
  0.122686  0.122686  0.021153      0.000000
  0.122686  0.122686  0.016922      0.000000
  0.122686  0.122686  0.012692      0.000000
  0.122686  0.122686  0.008461      0.000000
  0.122686  0.122686  0.004231      0.000000
  0.122686  0.122686  0.000000      0.000000
 


--------------------------------------------------------------------------------------------------------




 Dimension of arrays:
   k-points           NKPTS =    229   k-points in BZ     NKDIM =    229   number of bands    NBANDS=     21
   number of dos      NEDOS =    301   number of ions     NIONS =      2
   non local maximal  LDIM  =      5   non local SUM 2l+1 LMDIM =     13
   total plane-waves  NPLWV =   4096
   max r-space proj   IRMAX =      1   max aug-charges    IRDMAX=   3224
   dimension x,y,z NGX =    16 NGY =   16 NGZ =   16
   dimension x,y,z NGXF=    32 NGYF=   32 NGZF=   32
   support grid    NGXF=    32 NGYF=   32 NGZF=   32
   ions per type =               1   1
   NGX,Y,Z   is equivalent  to a cutoff of   6.53,  6.53,  6.53 a.u.
   NGXF,Y,Z  is equivalent  to a cutoff of  13.05, 13.05, 13.05 a.u.

 SYSTEM =  unknown system                          
 POSCAR =  Cs1 Cl1                                 

 Startparameter for this run:
   NWRITE =      2    write-flag & timer
   PREC   = normal    normal or accurate (medium, high low for compatibility)
   ISTART =      0    job   : 0-new  1-cont  2-samecut
   ICHARG =      2    charge: 1-file 2-atom 10-const
   ISPIN  =      1    spin polarized calculation?
   LNONCOLLINEAR =      F non collinear calculations
   LSORBIT =      F    spin-orbit coupling
   INIWAV =      1    electr: 0-lowe 1-rand  2-diag
   LASPH  =      T    aspherical Exc in radial PAW
 Electronic Relaxation 1
   ENCUT  =  262.5 eV  19.29 Ry    4.39 a.u.   5.38  5.38  5.38*2*pi/ulx,y,z
   ENINI  =  262.5     initial cutoff
   ENAUG  =  407.9 eV  augmentation charge cutoff
   NELM   =    100;   NELMIN=  2; NELMDL= -5     # of ELM steps 
   EDIFF  = 0.1E-04   stopping-criterion for ELM
   LREAL  =      F    real-space projection
   NLSPLINE    = F    spline interpolate recip. space projectors
   LCOMPAT=      F    compatible to vasp.4.4
   GGA_COMPAT  = T    GGA compatible to vasp.4.4-vasp.4.6
   LMAXPAW     = -100 max onsite density
   LMAXMIX     =    2 max onsite mixed and CHGCAR
   VOSKOWN=      0    Vosko Wilk Nusair interpolation
   ROPT   =    0.00000   0.00000
 Ionic relaxation
   EDIFFG = 0.1E-03   stopping-criterion for IOM
   NSW    =      1    number of steps for IOM
   NBLOCK =      1;   KBLOCK =      1    inner block; outer block 
   IBRION =      2    ionic relax: 0-MD 1-quasi-New 2-CG
   NFREE  =      1    steps in history (QN), initial steepest desc. (CG)
   ISIF   =      0    stress and relaxation
   IWAVPR =     11    prediction:  0-non 1-charg 2-wave 3-comb
   ISYM   =      2    0-nonsym 1-usesym 2-fastsym
   LCORR  =      T    Harris-Foulkes like correction to forces

   POTIM  = 0.5000    time-step for ionic-motion
   TEIN   =    0.0    initial temperature
   TEBEG  =    0.0;   TEEND  =   0.0 temperature during run
   SMASS  =  -3.00    Nose mass-parameter (am)
   estimated Nose-frequenzy (Omega)   =  0.10E-29 period in steps = 0.13E+47 mass=  -0.380E-27a.u.
   SCALEE = 1.0000    scale energy and forces
   NPACO  =    256;   APACO  = 10.0  distance and # of slots for P.C.
   PSTRESS=    0.0 pullay stress

  Mass of Ions in am
   POMASS = 132.90 35.45
  Ionic Valenz
   ZVAL   =   9.00  7.00
  Atomic Wigner-Seitz radii
   RWIGS  =  -1.00 -1.00
  virtual crystal weights 
   VCA    =   1.00  1.00
   NELECT =      16.0000    total number of electrons
   NUPDOWN=      -1.0000    fix difference up-down

 DOS related values:
   EMIN   =  10.00;   EMAX   =-10.00  energy-range for DOS
   EFERMI =   0.00;   METHOD = LEGACY      
   ISMEAR =     0;   SIGMA  =   0.10  broadening in eV -4-tet -1-fermi 0-gaus
   EFERMI_NEDOS =   21; number of points for ismear=-14 and -15

 Electronic relaxation 2 (details)
   IALGO  =     38    algorithm
   LDIAG  =      T    sub-space diagonalisation (order eigenvalues)
   LSUBROT=      F    optimize rotation matrix (better conditioning)
   LROBUST=      F    robust break criterion during scf (extrapolated energy error)
   ISEARCH=      0    line search for conjugate gradient (0, 1=use gradient)
   TURBO    =      0    0=normal 1=particle mesh
   IRESTART =      0    0=no restart 2=restart with 2 vectors
   NREBOOT  =      0    no. of reboots
   NMIN     =      0    reboot dimension
   EREF     =   0.00    reference energy to select bands
   IMIX   =      4    mixing-type and parameters
     AMIX     =   0.40;   BMIX     =  1.00
     AMIX_MAG =   1.60;   BMIX_MAG =  1.00
     AMIN     =   0.10
     WC   =   100.;   INIMIX=   1;  MIXPRE=   1;  MAXMIX= -45

 Intra band minimization:
   WEIMIN = 0.0010     energy-eigenvalue tresh-hold
   EBREAK =  0.12E-06  absolut break condition
   DEPER  =   0.30     relativ break condition  

   TIME   =   0.40     timestep for ELM

  volume/ion in A,a.u.               =      33.85       228.40
  Fermi-wavevector in a.u.,A,eV,Ry     =   1.012215  1.912809 13.940244  1.024579
  Thomas-Fermi vector in A             =   2.145311
 
 Write flags
   LWAVE        =      F    write WAVECAR
   LDOWNSAMPLE  =      F    k-point downsampling of WAVECAR
   LCHARG       =      F    write CHGCAR
   LVTOT        =      F    write LOCPOT, total local potential
   LVHAR        =      F    write LOCPOT, Hartree potential only
   WRT_POTENTIAL= false  ! write potential to hdf5 file
   LELF         =      F    write electronic localiz. function (ELF)
   LORBIT       =     10    0 simple, 1 ext, 2 COOP (PROOUT), +10 PAW based schemes


 Python interface
   PLUGINS active      =      F    recompile with -DPLUGINS to activate
 
 Dipole corrections
   LMONO      =      F    monopole corrections only (constant potential shift)
   LDIPOL     =      F    correct potential (dipole corrections)
   IDIPOL     =      0    1-x, 2-y, 3-z, 4-all directions 
   EPSILON    =  1.0000000 bulk dielectric constant
   LVACPOTAV  =      F  vacuum potentials using an averaging scheme for the charge density
   VACPOTFLAT =  0.1000000 required flatness to determine vacuum potential
 
Coulomb truncation method
  LTRUNCATE          =      F  Coulomb kernel truncation to be used

 
 Exchange correlation treatment:
   GGA     = PS    functional components
   XC_C    = 1    coefficients multiplying the functional components
   LIBXC   =     F    Libxc                    
   VOSKOWN =     0    Vosko Wilk Nusair interpolation
   LHFCALC =     F    Hartree Fock is set to
   LHFONE  =     F    Hartree Fock one center treatment
   AEXX    =    0.0000 exact exchange contribution

 Parameters of functionals:
   PS:
     No parameter
 
 Van der Waals corrections
   IVDW    =     0    specifies the selected vdW correction

 Linear response parameters
   LEPSILON=     F    determine dielectric tensor
   LRPA    =     F    only Hartree local field effects (RPA)
   LNABLA  =     F    use nabla operator in PAW spheres
   LVEL    =     F    velocity operator in full k-point grid
   CSHIFT  =0.1000    complex shift for real part using Kramers Kronig
   OMEGAMAX=  -1.0    maximum frequency
   DEG_THRESHOLD= 0.2000000E-02 threshold for treating states as degnerate
   RTIME   =   -0.100 relaxation time in fs
  (WPLASMAI=    0.000 imaginary part of plasma frequency in eV, 0.658/RTIME)
   DFIELD  = 0.0000000 0.0000000 0.0000000 field for delta impulse in time
 
  Optional k-point grid parameters
   LKPOINTS_OPT  =     F    use optional k-point grid
   KPOINTS_OPT_MODE=     1    mode for optional k-point grid
 
 Orbital magnetization related:
   ORBITALMAG=     F  switch on orbital magnetization
   LCHIMAG   =     F  perturbation theory with respect to B field
   DQ        =  0.001000  dq finite difference perturbation B field
   LLRAUG    =     F  two centre corrections for induced B field
   LBONE     =     F  B-component reconstruction in AE one-centre
   LVGVCALC  =     T  calculate vGv susceptibility
   LVGVAPPL  =     F  apply vGv susceptibility instead of pGv for G=0

 Random number generation:
   RANDOM_GENERATOR = DEFAULT
   PCG_SEED         = not used


--------------------------------------------------------------------------------------------------------


 conjugate gradient relaxation of ions
 charge density and potential will be updated during run
 non-spin polarized calculation
 Variant of blocked Davidson
 Davidson routine will perform the subspace rotation
 perform sub-space diagonalisation
    after iterative eigenvector-optimisation
 modified Broyden-mixing scheme, WC =      100.0
 initial mixing is a Kerker type mixing with AMIX =  0.4000 and BMIX =      1.0000
 Hartree-type preconditioning will be used
 using additional bands            13
 reciprocal scheme for non local part
 use partial core corrections
 calculate Harris-corrections to forces 
   (improved forces if not selfconsistent)
 use gradient corrections 
 use of overlap-Matrix (Vanderbilt PP)
 Gauss-broadening in eV      SIGMA  =   0.10


--------------------------------------------------------------------------------------------------------


  energy-cutoff  :      262.47
  volume of cell :       67.69
      direct lattice vectors                 reciprocal lattice vectors
     4.075448639  0.000000000  0.000000000     0.245371759  0.000000000  0.000000000
     0.000000000  4.075448639  0.000000000     0.000000000  0.245371759  0.000000000
     0.000000000  0.000000000  4.075448639     0.000000000  0.000000000  0.245371759

  length of vectors
     4.075448639  4.075448639  4.075448639     0.245371759  0.245371759  0.245371759


 
 k-points in units of 2pi/SCALE and weight: k-path added by seekpath. Formula: CsCl 
   0.03067147  0.03067147  0.03067147       0.125
   0.09201441  0.03067147  0.03067147       0.375
   0.09201441  0.09201441  0.03067147       0.375
   0.09201441  0.09201441  0.09201441       0.125
   0.00000000  0.00000000  0.00000000       0.000
   0.00000000  0.00423055  0.00000000       0.000
   0.00000000  0.00846110  0.00000000       0.000
   0.00000000  0.01269164  0.00000000       0.000
   0.00000000  0.01692219  0.00000000       0.000
   0.00000000  0.02115274  0.00000000       0.000
   0.00000000  0.02538329  0.00000000       0.000
   0.00000000  0.02961383  0.00000000       0.000
   0.00000000  0.03384438  0.00000000       0.000
   0.00000000  0.03807493  0.00000000       0.000
   0.00000000  0.04230548  0.00000000       0.000
   0.00000000  0.04653602  0.00000000       0.000
   0.00000000  0.05076657  0.00000000       0.000
   0.00000000  0.05499712  0.00000000       0.000
   0.00000000  0.05922767  0.00000000       0.000
   0.00000000  0.06345821  0.00000000       0.000
   0.00000000  0.06768876  0.00000000       0.000
   0.00000000  0.07191931  0.00000000       0.000
   0.00000000  0.07614986  0.00000000       0.000
   0.00000000  0.08038040  0.00000000       0.000
   0.00000000  0.08461095  0.00000000       0.000
   0.00000000  0.08884150  0.00000000       0.000
   0.00000000  0.09307205  0.00000000       0.000
   0.00000000  0.09730259  0.00000000       0.000
   0.00000000  0.10153314  0.00000000       0.000
   0.00000000  0.10576369  0.00000000       0.000
   0.00000000  0.10999424  0.00000000       0.000
   0.00000000  0.11422478  0.00000000       0.000
   0.00000000  0.11845533  0.00000000       0.000
   0.00000000  0.12268588  0.00000000       0.000
   0.00423055  0.12268588  0.00000000       0.000
   0.00846110  0.12268588  0.00000000       0.000
   0.01269164  0.12268588  0.00000000       0.000
   0.01692219  0.12268588  0.00000000       0.000
   0.02115274  0.12268588  0.00000000       0.000
   0.02538329  0.12268588  0.00000000       0.000
   0.02961383  0.12268588  0.00000000       0.000
   0.03384438  0.12268588  0.00000000       0.000
   0.03807493  0.12268588  0.00000000       0.000
   0.04230548  0.12268588  0.00000000       0.000
   0.04653602  0.12268588  0.00000000       0.000
   0.05076657  0.12268588  0.00000000       0.000
   0.05499712  0.12268588  0.00000000       0.000
   0.05922767  0.12268588  0.00000000       0.000
   0.06345821  0.12268588  0.00000000       0.000
   0.06768876  0.12268588  0.00000000       0.000
   0.07191931  0.12268588  0.00000000       0.000
   0.07614986  0.12268588  0.00000000       0.000
   0.08038040  0.12268588  0.00000000       0.000
   0.08461095  0.12268588  0.00000000       0.000
   0.08884150  0.12268588  0.00000000       0.000
   0.09307205  0.12268588  0.00000000       0.000
   0.09730259  0.12268588  0.00000000       0.000
   0.10153314  0.12268588  0.00000000       0.000
   0.10576369  0.12268588  0.00000000       0.000
   0.10999424  0.12268588  0.00000000       0.000
   0.11422478  0.12268588  0.00000000       0.000
   0.11845533  0.12268588  0.00000000       0.000
   0.12268588  0.12268588  0.00000000       0.000
   0.11976479  0.11976479  0.00000000       0.000
   0.11684369  0.11684369  0.00000000       0.000
   0.11392260  0.11392260  0.00000000       0.000
   0.11100151  0.11100151  0.00000000       0.000
   0.10808042  0.10808042  0.00000000       0.000
   0.10515933  0.10515933  0.00000000       0.000
   0.10223823  0.10223823  0.00000000       0.000
   0.09931714  0.09931714  0.00000000       0.000
   0.09639605  0.09639605  0.00000000       0.000
   0.09347496  0.09347496  0.00000000       0.000
   0.09055386  0.09055386  0.00000000       0.000
   0.08763277  0.08763277  0.00000000       0.000
   0.08471168  0.08471168  0.00000000       0.000
   0.08179059  0.08179059  0.00000000       0.000
   0.07886949  0.07886949  0.00000000       0.000
   0.07594840  0.07594840  0.00000000       0.000
   0.07302731  0.07302731  0.00000000       0.000
   0.07010622  0.07010622  0.00000000       0.000
   0.06718512  0.06718512  0.00000000       0.000
   0.06426403  0.06426403  0.00000000       0.000
   0.06134294  0.06134294  0.00000000       0.000
   0.05842185  0.05842185  0.00000000       0.000
   0.05550075  0.05550075  0.00000000       0.000
   0.05257966  0.05257966  0.00000000       0.000
   0.04965857  0.04965857  0.00000000       0.000
   0.04673748  0.04673748  0.00000000       0.000
   0.04381639  0.04381639  0.00000000       0.000
   0.04089529  0.04089529  0.00000000       0.000
   0.03797420  0.03797420  0.00000000       0.000
   0.03505311  0.03505311  0.00000000       0.000
   0.03213202  0.03213202  0.00000000       0.000
   0.02921092  0.02921092  0.00000000       0.000
   0.02628983  0.02628983  0.00000000       0.000
   0.02336874  0.02336874  0.00000000       0.000
   0.02044765  0.02044765  0.00000000       0.000
   0.01752655  0.01752655  0.00000000       0.000
   0.01460546  0.01460546  0.00000000       0.000
   0.01168437  0.01168437  0.00000000       0.000
   0.00876328  0.00876328  0.00000000       0.000
   0.00584218  0.00584218  0.00000000       0.000
   0.00292109  0.00292109  0.00000000       0.000
   0.00000000  0.00000000  0.00000000       0.000
   0.00235934  0.00235934  0.00235934       0.000
   0.00471869  0.00471869  0.00471869       0.000
   0.00707803  0.00707803  0.00707803       0.000
   0.00943738  0.00943738  0.00943738       0.000
   0.01179672  0.01179672  0.01179672       0.000
   0.01415606  0.01415606  0.01415606       0.000
   0.01651541  0.01651541  0.01651541       0.000
   0.01887475  0.01887475  0.01887475       0.000
   0.02123409  0.02123409  0.02123409       0.000
   0.02359344  0.02359344  0.02359344       0.000
   0.02595278  0.02595278  0.02595278       0.000
   0.02831213  0.02831213  0.02831213       0.000
   0.03067147  0.03067147  0.03067147       0.000
   0.03303081  0.03303081  0.03303081       0.000
   0.03539016  0.03539016  0.03539016       0.000
   0.03774950  0.03774950  0.03774950       0.000
   0.04010885  0.04010885  0.04010885       0.000
   0.04246819  0.04246819  0.04246819       0.000
   0.04482753  0.04482753  0.04482753       0.000
   0.04718688  0.04718688  0.04718688       0.000
   0.04954622  0.04954622  0.04954622       0.000
   0.05190556  0.05190556  0.05190556       0.000
   0.05426491  0.05426491  0.05426491       0.000
   0.05662425  0.05662425  0.05662425       0.000
   0.05898360  0.05898360  0.05898360       0.000
   0.06134294  0.06134294  0.06134294       0.000
   0.06370228  0.06370228  0.06370228       0.000
   0.06606163  0.06606163  0.06606163       0.000
   0.06842097  0.06842097  0.06842097       0.000
   0.07078032  0.07078032  0.07078032       0.000
   0.07313966  0.07313966  0.07313966       0.000
   0.07549900  0.07549900  0.07549900       0.000
   0.07785835  0.07785835  0.07785835       0.000
   0.08021769  0.08021769  0.08021769       0.000
   0.08257703  0.08257703  0.08257703       0.000
   0.08493638  0.08493638  0.08493638       0.000
   0.08729572  0.08729572  0.08729572       0.000
   0.08965507  0.08965507  0.08965507       0.000
   0.09201441  0.09201441  0.09201441       0.000
   0.09437375  0.09437375  0.09437375       0.000
   0.09673310  0.09673310  0.09673310       0.000
   0.09909244  0.09909244  0.09909244       0.000
   0.10145178  0.10145178  0.10145178       0.000
   0.10381113  0.10381113  0.10381113       0.000
   0.10617047  0.10617047  0.10617047       0.000
   0.10852982  0.10852982  0.10852982       0.000
   0.11088916  0.11088916  0.11088916       0.000
   0.11324850  0.11324850  0.11324850       0.000
   0.11560785  0.11560785  0.11560785       0.000
   0.11796719  0.11796719  0.11796719       0.000
   0.12032654  0.12032654  0.12032654       0.000
   0.12268588  0.12268588  0.12268588       0.000
   0.11976479  0.12268588  0.11976479       0.000
   0.11684369  0.12268588  0.11684369       0.000
   0.11392260  0.12268588  0.11392260       0.000
   0.11100151  0.12268588  0.11100151       0.000
   0.10808042  0.12268588  0.10808042       0.000
   0.10515933  0.12268588  0.10515933       0.000
   0.10223823  0.12268588  0.10223823       0.000
   0.09931714  0.12268588  0.09931714       0.000
   0.09639605  0.12268588  0.09639605       0.000
   0.09347496  0.12268588  0.09347496       0.000
   0.09055386  0.12268588  0.09055386       0.000
   0.08763277  0.12268588  0.08763277       0.000
   0.08471168  0.12268588  0.08471168       0.000
   0.08179059  0.12268588  0.08179059       0.000
   0.07886949  0.12268588  0.07886949       0.000
   0.07594840  0.12268588  0.07594840       0.000
   0.07302731  0.12268588  0.07302731       0.000
   0.07010622  0.12268588  0.07010622       0.000
   0.06718512  0.12268588  0.06718512       0.000
   0.06426403  0.12268588  0.06426403       0.000
   0.06134294  0.12268588  0.06134294       0.000
   0.05842185  0.12268588  0.05842185       0.000
   0.05550075  0.12268588  0.05550075       0.000
   0.05257966  0.12268588  0.05257966       0.000
   0.04965857  0.12268588  0.04965857       0.000
   0.04673748  0.12268588  0.04673748       0.000
   0.04381639  0.12268588  0.04381639       0.000
   0.04089529  0.12268588  0.04089529       0.000
   0.03797420  0.12268588  0.03797420       0.000
   0.03505311  0.12268588  0.03505311       0.000
   0.03213202  0.12268588  0.03213202       0.000
   0.02921092  0.12268588  0.02921092       0.000
   0.02628983  0.12268588  0.02628983       0.000
   0.02336874  0.12268588  0.02336874       0.000
   0.02044765  0.12268588  0.02044765       0.000
   0.01752655  0.12268588  0.01752655       0.000
   0.01460546  0.12268588  0.01460546       0.000
   0.01168437  0.12268588  0.01168437       0.000
   0.00876328  0.12268588  0.00876328       0.000
   0.00584218  0.12268588  0.00584218       0.000
   0.00292109  0.12268588  0.00292109       0.000
   0.00000000  0.12268588  0.00000000       0.000
   0.12268588  0.12268588  0.12268588       0.000
   0.12268588  0.12268588  0.11845533       0.000
   0.12268588  0.12268588  0.11422478       0.000
   0.12268588  0.12268588  0.10999424       0.000
   0.12268588  0.12268588  0.10576369       0.000
   0.12268588  0.12268588  0.10153314       0.000
   0.12268588  0.12268588  0.09730259       0.000
   0.12268588  0.12268588  0.09307205       0.000
   0.12268588  0.12268588  0.08884150       0.000
   0.12268588  0.12268588  0.08461095       0.000
   0.12268588  0.12268588  0.08038040       0.000
   0.12268588  0.12268588  0.07614986       0.000
   0.12268588  0.12268588  0.07191931       0.000
   0.12268588  0.12268588  0.06768876       0.000
   0.12268588  0.12268588  0.06345821       0.000
   0.12268588  0.12268588  0.05922767       0.000
   0.12268588  0.12268588  0.05499712       0.000
   0.12268588  0.12268588  0.05076657       0.000
   0.12268588  0.12268588  0.04653602       0.000
   0.12268588  0.12268588  0.04230548       0.000
   0.12268588  0.12268588  0.03807493       0.000
   0.12268588  0.12268588  0.03384438       0.000
   0.12268588  0.12268588  0.02961383       0.000
   0.12268588  0.12268588  0.02538329       0.000
   0.12268588  0.12268588  0.02115274       0.000
   0.12268588  0.12268588  0.01692219       0.000
   0.12268588  0.12268588  0.01269164       0.000
   0.12268588  0.12268588  0.00846110       0.000
   0.12268588  0.12268588  0.00423055       0.000
   0.12268588  0.12268588  0.00000000       0.000
 
 k-points in reciprocal lattice and weights: k-path added by seekpath. Formula: CsCl 
   0.12500000  0.12500000  0.12500000       0.125
   0.37500000  0.12500000  0.12500000       0.375
   0.37500000  0.37500000  0.12500000       0.375
   0.37500000  0.37500000  0.37500000       0.125
   0.00000000  0.00000000  0.00000000       0.000
   0.00000000  0.01724138  0.00000000       0.000
   0.00000000  0.03448276  0.00000000       0.000
   0.00000000  0.05172414  0.00000000       0.000
   0.00000000  0.06896552  0.00000000       0.000
   0.00000000  0.08620690  0.00000000       0.000
   0.00000000  0.10344828  0.00000000       0.000
   0.00000000  0.12068966  0.00000000       0.000
   0.00000000  0.13793103  0.00000000       0.000
   0.00000000  0.15517241  0.00000000       0.000
   0.00000000  0.17241379  0.00000000       0.000
   0.00000000  0.18965517  0.00000000       0.000
   0.00000000  0.20689655  0.00000000       0.000
   0.00000000  0.22413793  0.00000000       0.000
   0.00000000  0.24137931  0.00000000       0.000
   0.00000000  0.25862069  0.00000000       0.000
   0.00000000  0.27586207  0.00000000       0.000
   0.00000000  0.29310345  0.00000000       0.000
   0.00000000  0.31034483  0.00000000       0.000
   0.00000000  0.32758621  0.00000000       0.000
   0.00000000  0.34482759  0.00000000       0.000
   0.00000000  0.36206897  0.00000000       0.000
   0.00000000  0.37931034  0.00000000       0.000
   0.00000000  0.39655172  0.00000000       0.000
   0.00000000  0.41379310  0.00000000       0.000
   0.00000000  0.43103448  0.00000000       0.000
   0.00000000  0.44827586  0.00000000       0.000
   0.00000000  0.46551724  0.00000000       0.000
   0.00000000  0.48275862  0.00000000       0.000
   0.00000000  0.50000000  0.00000000       0.000
   0.01724138  0.50000000  0.00000000       0.000
   0.03448276  0.50000000  0.00000000       0.000
   0.05172414  0.50000000  0.00000000       0.000
   0.06896552  0.50000000  0.00000000       0.000
   0.08620690  0.50000000  0.00000000       0.000
   0.10344828  0.50000000  0.00000000       0.000
   0.12068966  0.50000000  0.00000000       0.000
   0.13793103  0.50000000  0.00000000       0.000
   0.15517241  0.50000000  0.00000000       0.000
   0.17241379  0.50000000  0.00000000       0.000
   0.18965517  0.50000000  0.00000000       0.000
   0.20689655  0.50000000  0.00000000       0.000
   0.22413793  0.50000000  0.00000000       0.000
   0.24137931  0.50000000  0.00000000       0.000
   0.25862069  0.50000000  0.00000000       0.000
   0.27586207  0.50000000  0.00000000       0.000
   0.29310345  0.50000000  0.00000000       0.000
   0.31034483  0.50000000  0.00000000       0.000
   0.32758621  0.50000000  0.00000000       0.000
   0.34482759  0.50000000  0.00000000       0.000
   0.36206897  0.50000000  0.00000000       0.000
   0.37931034  0.50000000  0.00000000       0.000
   0.39655172  0.50000000  0.00000000       0.000
   0.41379310  0.50000000  0.00000000       0.000
   0.43103448  0.50000000  0.00000000       0.000
   0.44827586  0.50000000  0.00000000       0.000
   0.46551724  0.50000000  0.00000000       0.000
   0.48275862  0.50000000  0.00000000       0.000
   0.50000000  0.50000000  0.00000000       0.000
   0.48809524  0.48809524  0.00000000       0.000
   0.47619048  0.47619048  0.00000000       0.000
   0.46428571  0.46428571  0.00000000       0.000
   0.45238095  0.45238095  0.00000000       0.000
   0.44047619  0.44047619  0.00000000       0.000
   0.42857143  0.42857143  0.00000000       0.000
   0.41666667  0.41666667  0.00000000       0.000
   0.40476190  0.40476190  0.00000000       0.000
   0.39285714  0.39285714  0.00000000       0.000
   0.38095238  0.38095238  0.00000000       0.000
   0.36904762  0.36904762  0.00000000       0.000
   0.35714286  0.35714286  0.00000000       0.000
   0.34523810  0.34523810  0.00000000       0.000
   0.33333333  0.33333333  0.00000000       0.000
   0.32142857  0.32142857  0.00000000       0.000
   0.30952381  0.30952381  0.00000000       0.000
   0.29761905  0.29761905  0.00000000       0.000
   0.28571429  0.28571429  0.00000000       0.000
   0.27380952  0.27380952  0.00000000       0.000
   0.26190476  0.26190476  0.00000000       0.000
   0.25000000  0.25000000  0.00000000       0.000
   0.23809524  0.23809524  0.00000000       0.000
   0.22619048  0.22619048  0.00000000       0.000
   0.21428571  0.21428571  0.00000000       0.000
   0.20238095  0.20238095  0.00000000       0.000
   0.19047619  0.19047619  0.00000000       0.000
   0.17857143  0.17857143  0.00000000       0.000
   0.16666667  0.16666667  0.00000000       0.000
   0.15476190  0.15476190  0.00000000       0.000
   0.14285714  0.14285714  0.00000000       0.000
   0.13095238  0.13095238  0.00000000       0.000
   0.11904762  0.11904762  0.00000000       0.000
   0.10714286  0.10714286  0.00000000       0.000
   0.09523810  0.09523810  0.00000000       0.000
   0.08333333  0.08333333  0.00000000       0.000
   0.07142857  0.07142857  0.00000000       0.000
   0.05952381  0.05952381  0.00000000       0.000
   0.04761905  0.04761905  0.00000000       0.000
   0.03571429  0.03571429  0.00000000       0.000
   0.02380952  0.02380952  0.00000000       0.000
   0.01190476  0.01190476  0.00000000       0.000
   0.00000000  0.00000000  0.00000000       0.000
   0.00961538  0.00961538  0.00961538       0.000
   0.01923077  0.01923077  0.01923077       0.000
   0.02884615  0.02884615  0.02884615       0.000
   0.03846154  0.03846154  0.03846154       0.000
   0.04807692  0.04807692  0.04807692       0.000
   0.05769231  0.05769231  0.05769231       0.000
   0.06730769  0.06730769  0.06730769       0.000
   0.07692308  0.07692308  0.07692308       0.000
   0.08653846  0.08653846  0.08653846       0.000
   0.09615385  0.09615385  0.09615385       0.000
   0.10576923  0.10576923  0.10576923       0.000
   0.11538462  0.11538462  0.11538462       0.000
   0.12500000  0.12500000  0.12500000       0.000
   0.13461538  0.13461538  0.13461538       0.000
   0.14423077  0.14423077  0.14423077       0.000
   0.15384615  0.15384615  0.15384615       0.000
   0.16346154  0.16346154  0.16346154       0.000
   0.17307692  0.17307692  0.17307692       0.000
   0.18269231  0.18269231  0.18269231       0.000
   0.19230769  0.19230769  0.19230769       0.000
   0.20192308  0.20192308  0.20192308       0.000
   0.21153846  0.21153846  0.21153846       0.000
   0.22115385  0.22115385  0.22115385       0.000
   0.23076923  0.23076923  0.23076923       0.000
   0.24038462  0.24038462  0.24038462       0.000
   0.25000000  0.25000000  0.25000000       0.000
   0.25961538  0.25961538  0.25961538       0.000
   0.26923077  0.26923077  0.26923077       0.000
   0.27884615  0.27884615  0.27884615       0.000
   0.28846154  0.28846154  0.28846154       0.000
   0.29807692  0.29807692  0.29807692       0.000
   0.30769231  0.30769231  0.30769231       0.000
   0.31730769  0.31730769  0.31730769       0.000
   0.32692308  0.32692308  0.32692308       0.000
   0.33653846  0.33653846  0.33653846       0.000
   0.34615385  0.34615385  0.34615385       0.000
   0.35576923  0.35576923  0.35576923       0.000
   0.36538462  0.36538462  0.36538462       0.000
   0.37500000  0.37500000  0.37500000       0.000
   0.38461538  0.38461538  0.38461538       0.000
   0.39423077  0.39423077  0.39423077       0.000
   0.40384615  0.40384615  0.40384615       0.000
   0.41346154  0.41346154  0.41346154       0.000
   0.42307692  0.42307692  0.42307692       0.000
   0.43269231  0.43269231  0.43269231       0.000
   0.44230769  0.44230769  0.44230769       0.000
   0.45192308  0.45192308  0.45192308       0.000
   0.46153846  0.46153846  0.46153846       0.000
   0.47115385  0.47115385  0.47115385       0.000
   0.48076923  0.48076923  0.48076923       0.000
   0.49038462  0.49038462  0.49038462       0.000
   0.50000000  0.50000000  0.50000000       0.000
   0.48809524  0.50000000  0.48809524       0.000
   0.47619048  0.50000000  0.47619048       0.000
   0.46428571  0.50000000  0.46428571       0.000
   0.45238095  0.50000000  0.45238095       0.000
   0.44047619  0.50000000  0.44047619       0.000
   0.42857143  0.50000000  0.42857143       0.000
   0.41666667  0.50000000  0.41666667       0.000
   0.40476190  0.50000000  0.40476190       0.000
   0.39285714  0.50000000  0.39285714       0.000
   0.38095238  0.50000000  0.38095238       0.000
   0.36904762  0.50000000  0.36904762       0.000
   0.35714286  0.50000000  0.35714286       0.000
   0.34523810  0.50000000  0.34523810       0.000
   0.33333333  0.50000000  0.33333333       0.000
   0.32142857  0.50000000  0.32142857       0.000
   0.30952381  0.50000000  0.30952381       0.000
   0.29761905  0.50000000  0.29761905       0.000
   0.28571429  0.50000000  0.28571429       0.000
   0.27380952  0.50000000  0.27380952       0.000
   0.26190476  0.50000000  0.26190476       0.000
   0.25000000  0.50000000  0.25000000       0.000
   0.23809524  0.50000000  0.23809524       0.000
   0.22619048  0.50000000  0.22619048       0.000
   0.21428571  0.50000000  0.21428571       0.000
   0.20238095  0.50000000  0.20238095       0.000
   0.19047619  0.50000000  0.19047619       0.000
   0.17857143  0.50000000  0.17857143       0.000
   0.16666667  0.50000000  0.16666667       0.000
   0.15476190  0.50000000  0.15476190       0.000
   0.14285714  0.50000000  0.14285714       0.000
   0.13095238  0.50000000  0.13095238       0.000
   0.11904762  0.50000000  0.11904762       0.000
   0.10714286  0.50000000  0.10714286       0.000
   0.09523810  0.50000000  0.09523810       0.000
   0.08333333  0.50000000  0.08333333       0.000
   0.07142857  0.50000000  0.07142857       0.000
   0.05952381  0.50000000  0.05952381       0.000
   0.04761905  0.50000000  0.04761905       0.000
   0.03571429  0.50000000  0.03571429       0.000
   0.02380952  0.50000000  0.02380952       0.000
   0.01190476  0.50000000  0.01190476       0.000
   0.00000000  0.50000000  0.00000000       0.000
   0.50000000  0.50000000  0.50000000       0.000
   0.50000000  0.50000000  0.48275862       0.000
   0.50000000  0.50000000  0.46551724       0.000
   0.50000000  0.50000000  0.44827586       0.000
   0.50000000  0.50000000  0.43103448       0.000
   0.50000000  0.50000000  0.41379310       0.000
   0.50000000  0.50000000  0.39655172       0.000
   0.50000000  0.50000000  0.37931034       0.000
   0.50000000  0.50000000  0.36206897       0.000
   0.50000000  0.50000000  0.34482759       0.000
   0.50000000  0.50000000  0.32758621       0.000
   0.50000000  0.50000000  0.31034483       0.000
   0.50000000  0.50000000  0.29310345       0.000
   0.50000000  0.50000000  0.27586207       0.000
   0.50000000  0.50000000  0.25862069       0.000
   0.50000000  0.50000000  0.24137931       0.000
   0.50000000  0.50000000  0.22413793       0.000
   0.50000000  0.50000000  0.20689655       0.000
   0.50000000  0.50000000  0.18965517       0.000
   0.50000000  0.50000000  0.17241379       0.000
   0.50000000  0.50000000  0.15517241       0.000
   0.50000000  0.50000000  0.13793103       0.000
   0.50000000  0.50000000  0.12068966       0.000
   0.50000000  0.50000000  0.10344828       0.000
   0.50000000  0.50000000  0.08620690       0.000
   0.50000000  0.50000000  0.06896552       0.000
   0.50000000  0.50000000  0.05172414       0.000
   0.50000000  0.50000000  0.03448276       0.000
   0.50000000  0.50000000  0.01724138       0.000
   0.50000000  0.50000000  0.00000000       0.000
 
 position of ions in fractional coordinates (direct lattice) 
   0.00000000  0.00000000  0.00000000
   0.50000000  0.50000000  0.50000000
 
 position of ions in cartesian coordinates  (Angst):
   0.00000000  0.00000000  0.00000000
   2.03772432  2.03772432  2.03772432
 


--------------------------------------------------------------------------------------------------------


 k-point     1 :   0.1250 0.1250 0.1250  plane waves:     666
 k-point     2 :   0.3750 0.1250 0.1250  plane waves:     655
 k-point     3 :   0.3750 0.3750 0.1250  plane waves:     646
 k-point     4 :   0.3750 0.3750 0.3750  plane waves:     657
 k-point     5 :   0.0000 0.0000 0.0000  plane waves:     619
 k-point     6 :   0.0000 0.0172 0.0000  plane waves:     651
 k-point     7 :   0.0000 0.0345 0.0000  plane waves:     651
 k-point     8 :   0.0000 0.0517 0.0000  plane waves:     651
 k-point     9 :   0.0000 0.0690 0.0000  plane waves:     651
 k-point    10 :   0.0000 0.0862 0.0000  plane waves:     651
 k-point    11 :   0.0000 0.1034 0.0000  plane waves:     659
 k-point    12 :   0.0000 0.1207 0.0000  plane waves:     659
 k-point    13 :   0.0000 0.1379 0.0000  plane waves:     659
 k-point    14 :   0.0000 0.1552 0.0000  plane waves:     659
 k-point    15 :   0.0000 0.1724 0.0000  plane waves:     659
 k-point    16 :   0.0000 0.1897 0.0000  plane waves:     659
 k-point    17 :   0.0000 0.2069 0.0000  plane waves:     655
 k-point    18 :   0.0000 0.2241 0.0000  plane waves:     655
 k-point    19 :   0.0000 0.2414 0.0000  plane waves:     655
 k-point    20 :   0.0000 0.2586 0.0000  plane waves:     655
 k-point    21 :   0.0000 0.2759 0.0000  plane waves:     663
 k-point    22 :   0.0000 0.2931 0.0000  plane waves:     659
 k-point    23 :   0.0000 0.3103 0.0000  plane waves:     659
 k-point    24 :   0.0000 0.3276 0.0000  plane waves:     655
 k-point    25 :   0.0000 0.3448 0.0000  plane waves:     655
 k-point    26 :   0.0000 0.3621 0.0000  plane waves:     647
 k-point    27 :   0.0000 0.3793 0.0000  plane waves:     647
 k-point    28 :   0.0000 0.3966 0.0000  plane waves:     646
 k-point    29 :   0.0000 0.4138 0.0000  plane waves:     650
 k-point    30 :   0.0000 0.4310 0.0000  plane waves:     654
 k-point    31 :   0.0000 0.4483 0.0000  plane waves:     654
 k-point    32 :   0.0000 0.4655 0.0000  plane waves:     646
 k-point    33 :   0.0000 0.4828 0.0000  plane waves:     642
 k-point    34 :   0.0000 0.5000 0.0000  plane waves:     642
 k-point    35 :   0.0172 0.5000 0.0000  plane waves:     642
 k-point    36 :   0.0345 0.5000 0.0000  plane waves:     650
 k-point    37 :   0.0517 0.5000 0.0000  plane waves:     652
 k-point    38 :   0.0690 0.5000 0.0000  plane waves:     656
 k-point    39 :   0.0862 0.5000 0.0000  plane waves:     652
 k-point    40 :   0.1034 0.5000 0.0000  plane waves:     650
 k-point    41 :   0.1207 0.5000 0.0000  plane waves:     650
 k-point    42 :   0.1379 0.5000 0.0000  plane waves:     650
 k-point    43 :   0.1552 0.5000 0.0000  plane waves:     654
 k-point    44 :   0.1724 0.5000 0.0000  plane waves:     652
 k-point    45 :   0.1897 0.5000 0.0000  plane waves:     648
 k-point    46 :   0.2069 0.5000 0.0000  plane waves:     648
 k-point    47 :   0.2241 0.5000 0.0000  plane waves:     652
 k-point    48 :   0.2414 0.5000 0.0000  plane waves:     658
 k-point    49 :   0.2586 0.5000 0.0000  plane waves:     658
 k-point    50 :   0.2759 0.5000 0.0000  plane waves:     654
 k-point    51 :   0.2931 0.5000 0.0000  plane waves:     650
 k-point    52 :   0.3103 0.5000 0.0000  plane waves:     654
 k-point    53 :   0.3276 0.5000 0.0000  plane waves:     650
 k-point    54 :   0.3448 0.5000 0.0000  plane waves:     650
 k-point    55 :   0.3621 0.5000 0.0000  plane waves:     648
 k-point    56 :   0.3793 0.5000 0.0000  plane waves:     648
 k-point    57 :   0.3966 0.5000 0.0000  plane waves:     648
 k-point    58 :   0.4138 0.5000 0.0000  plane waves:     652
 k-point    59 :   0.4310 0.5000 0.0000  plane waves:     652
 k-point    60 :   0.4483 0.5000 0.0000  plane waves:     656
 k-point    61 :   0.4655 0.5000 0.0000  plane waves:     656
 k-point    62 :   0.4828 0.5000 0.0000  plane waves:     656
 k-point    63 :   0.5000 0.5000 0.0000  plane waves:     656
 k-point    64 :   0.4881 0.4881 0.0000  plane waves:     656
 k-point    65 :   0.4762 0.4762 0.0000  plane waves:     656
 k-point    66 :   0.4643 0.4643 0.0000  plane waves:     654
 k-point    67 :   0.4524 0.4524 0.0000  plane waves:     654
 k-point    68 :   0.4405 0.4405 0.0000  plane waves:     652
 k-point    69 :   0.4286 0.4286 0.0000  plane waves:     656
 k-point    70 :   0.4167 0.4167 0.0000  plane waves:     652
 k-point    71 :   0.4048 0.4048 0.0000  plane waves:     654
 k-point    72 :   0.3929 0.3929 0.0000  plane waves:     650
 k-point    73 :   0.3810 0.3810 0.0000  plane waves:     654
 k-point    74 :   0.3690 0.3690 0.0000  plane waves:     652
 k-point    75 :   0.3571 0.3571 0.0000  plane waves:     652
 k-point    76 :   0.3452 0.3452 0.0000  plane waves:     652
 k-point    77 :   0.3333 0.3333 0.0000  plane waves:     658
 k-point    78 :   0.3214 0.3214 0.0000  plane waves:     656
 k-point    79 :   0.3095 0.3095 0.0000  plane waves:     656
 k-point    80 :   0.2976 0.2976 0.0000  plane waves:     652
 k-point    81 :   0.2857 0.2857 0.0000  plane waves:     652
 k-point    82 :   0.2738 0.2738 0.0000  plane waves:     660
 k-point    83 :   0.2619 0.2619 0.0000  plane waves:     662
 k-point    84 :   0.2500 0.2500 0.0000  plane waves:     660
 k-point    85 :   0.2381 0.2381 0.0000  plane waves:     662
 k-point    86 :   0.2262 0.2262 0.0000  plane waves:     666
 k-point    87 :   0.2143 0.2143 0.0000  plane waves:     666
 k-point    88 :   0.2024 0.2024 0.0000  plane waves:     670
 k-point    89 :   0.1905 0.1905 0.0000  plane waves:     669
 k-point    90 :   0.1786 0.1786 0.0000  plane waves:     661
 k-point    91 :   0.1667 0.1667 0.0000  plane waves:     661
 k-point    92 :   0.1548 0.1548 0.0000  plane waves:     667
 k-point    93 :   0.1429 0.1429 0.0000  plane waves:     667
 k-point    94 :   0.1310 0.1310 0.0000  plane waves:     663
 k-point    95 :   0.1190 0.1190 0.0000  plane waves:     663
 k-point    96 :   0.1071 0.1071 0.0000  plane waves:     663
 k-point    97 :   0.0952 0.0952 0.0000  plane waves:     663
 k-point    98 :   0.0833 0.0833 0.0000  plane waves:     659
 k-point    99 :   0.0714 0.0714 0.0000  plane waves:     655
 k-point   100 :   0.0595 0.0595 0.0000  plane waves:     655
 k-point   101 :   0.0476 0.0476 0.0000  plane waves:     655
 k-point   102 :   0.0357 0.0357 0.0000  plane waves:     655
 k-point   103 :   0.0238 0.0238 0.0000  plane waves:     655
 k-point   104 :   0.0119 0.0119 0.0000  plane waves:     655
 k-point   105 :   0.0000 0.0000 0.0000  plane waves:     619
 k-point   106 :   0.0096 0.0096 0.0096  plane waves:     655
 k-point   107 :   0.0192 0.0192 0.0192  plane waves:     655
 k-point   108 :   0.0288 0.0288 0.0288  plane waves:     655
 k-point   109 :   0.0385 0.0385 0.0385  plane waves:     655
 k-point   110 :   0.0481 0.0481 0.0481  plane waves:     655
 k-point   111 :   0.0577 0.0577 0.0577  plane waves:     655
 k-point   112 :   0.0673 0.0673 0.0673  plane waves:     661
 k-point   113 :   0.0769 0.0769 0.0769  plane waves:     661
 k-point   114 :   0.0865 0.0865 0.0865  plane waves:     661
 k-point   115 :   0.0962 0.0962 0.0962  plane waves:     667
 k-point   116 :   0.1058 0.1058 0.1058  plane waves:     667
 k-point   117 :   0.1154 0.1154 0.1154  plane waves:     666
 k-point   118 :   0.1250 0.1250 0.1250  plane waves:     666
 k-point   119 :   0.1346 0.1346 0.1346  plane waves:     672
 k-point   120 :   0.1442 0.1442 0.1442  plane waves:     669
 k-point   121 :   0.1538 0.1538 0.1538  plane waves:     669
 k-point   122 :   0.1635 0.1635 0.1635  plane waves:     669
 k-point   123 :   0.1731 0.1731 0.1731  plane waves:     669
 k-point   124 :   0.1827 0.1827 0.1827  plane waves:     663
 k-point   125 :   0.1923 0.1923 0.1923  plane waves:     657
 k-point   126 :   0.2019 0.2019 0.2019  plane waves:     660
 k-point   127 :   0.2115 0.2115 0.2115  plane waves:     660
 k-point   128 :   0.2212 0.2212 0.2212  plane waves:     660
 k-point   129 :   0.2308 0.2308 0.2308  plane waves:     660
 k-point   130 :   0.2404 0.2404 0.2404  plane waves:     654
 k-point   131 :   0.2500 0.2500 0.2500  plane waves:     654
 k-point   132 :   0.2596 0.2596 0.2596  plane waves:     654
 k-point   133 :   0.2692 0.2692 0.2692  plane waves:     651
 k-point   134 :   0.2788 0.2788 0.2788  plane waves:     651
 k-point   135 :   0.2885 0.2885 0.2885  plane waves:     651
 k-point   136 :   0.2981 0.2981 0.2981  plane waves:     642
 k-point   137 :   0.3077 0.3077 0.3077  plane waves:     645
 k-point   138 :   0.3173 0.3173 0.3173  plane waves:     645
 k-point   139 :   0.3269 0.3269 0.3269  plane waves:     645
 k-point   140 :   0.3365 0.3365 0.3365  plane waves:     645
 k-point   141 :   0.3462 0.3462 0.3462  plane waves:     651
 k-point   142 :   0.3558 0.3558 0.3558  plane waves:     657
 k-point   143 :   0.3654 0.3654 0.3654  plane waves:     654
 k-point   144 :   0.3750 0.3750 0.3750  plane waves:     657
 k-point   145 :   0.3846 0.3846 0.3846  plane waves:     657
 k-point   146 :   0.3942 0.3942 0.3942  plane waves:     657
 k-point   147 :   0.4038 0.4038 0.4038  plane waves:     657
 k-point   148 :   0.4135 0.4135 0.4135  plane waves:     654
 k-point   149 :   0.4231 0.4231 0.4231  plane waves:     654
 k-point   150 :   0.4327 0.4327 0.4327  plane waves:     654
 k-point   151 :   0.4423 0.4423 0.4423  plane waves:     654
 k-point   152 :   0.4519 0.4519 0.4519  plane waves:     654
 k-point   153 :   0.4615 0.4615 0.4615  plane waves:     654
 k-point   154 :   0.4712 0.4712 0.4712  plane waves:     660
 k-point   155 :   0.4808 0.4808 0.4808  plane waves:     666
 k-point   156 :   0.4904 0.4904 0.4904  plane waves:     672
 k-point   157 :   0.5000 0.5000 0.5000  plane waves:     672
 k-point   158 :   0.4881 0.5000 0.4881  plane waves:     672
 k-point   159 :   0.4762 0.5000 0.4762  plane waves:     664
 k-point   160 :   0.4643 0.5000 0.4643  plane waves:     660
 k-point   161 :   0.4524 0.5000 0.4524  plane waves:     656
 k-point   162 :   0.4405 0.5000 0.4405  plane waves:     652
 k-point   163 :   0.4286 0.5000 0.4286  plane waves:     652
 k-point   164 :   0.4167 0.5000 0.4167  plane waves:     652
 k-point   165 :   0.4048 0.5000 0.4048  plane waves:     652
 k-point   166 :   0.3929 0.5000 0.3929  plane waves:     648
 k-point   167 :   0.3810 0.5000 0.3810  plane waves:     648
 k-point   168 :   0.3690 0.5000 0.3690  plane waves:     650
 k-point   169 :   0.3571 0.5000 0.3571  plane waves:     650
 k-point   170 :   0.3452 0.5000 0.3452  plane waves:     658
 k-point   171 :   0.3333 0.5000 0.3333  plane waves:     652
 k-point   172 :   0.3214 0.5000 0.3214  plane waves:     652
[...]
     15      12.5608      0.00000
     16      13.1150      0.00000
     17      15.2479      0.00000
     18      16.1769      0.00000
     19      16.1769      0.00000
     20      16.7160      0.00000
     21      16.7673      0.00000

 k-point   215 :       0.5000    0.5000    0.2414
  band No.  band energies     occupation 
      1     -19.2055      2.00000
      2     -12.1709      2.00000
      3      -6.6084      2.00000
      4      -6.6084      2.00000
      5      -6.0266      2.00000
      6      -0.9047      2.00000
      7      -0.9047      2.00000
      8      -0.7752      2.00000
      9       7.0424      0.00000
     10       7.4092      0.00000
     11       8.0601      0.00000
     12       8.0601      0.00000
     13      11.3461      0.00000
     14      11.3461      0.00000
     15      12.5474      0.00000
     16      13.0965      0.00000
     17      15.1474      0.00000
     18      15.9707      0.00000
     19      15.9707      0.00000
     20      16.6899      0.00000
     21      16.9469      0.00000

 k-point   216 :       0.5000    0.5000    0.2241
  band No.  band energies     occupation 
      1     -19.2096      2.00000
      2     -12.1759      2.00000
      3      -6.6235      2.00000
      4      -6.6235      2.00000
      5      -5.9802      2.00000
      6      -0.8632      2.00000
      7      -0.8632      2.00000
      8      -0.7141      2.00000
      9       6.9036      0.00000
     10       7.1974      0.00000
     11       8.0298      0.00000
     12       8.0298      0.00000
     13      11.4221      0.00000
     14      11.4221      0.00000
     15      12.5342      0.00000
     16      13.0749      0.00000
     17      15.0492      0.00000
     18      15.7735      0.00000
     19      15.7735      0.00000
     20      16.6629      0.00000
     21      17.1316      0.00000

 k-point   217 :       0.5000    0.5000    0.2069
  band No.  band energies     occupation 
      1     -19.2137      2.00000
      2     -12.1808      2.00000
      3      -6.6381      2.00000
      4      -6.6381      2.00000
      5      -5.9340      2.00000
      6      -0.8218      2.00000
      7      -0.8218      2.00000
      8      -0.6519      2.00000
      9       6.7678      0.00000
     10       6.9969      0.00000
     11       8.0023      0.00000
     12       8.0023      0.00000
     13      11.4958      0.00000
     14      11.4958      0.00000
     15      12.5214      0.00000
     16      13.0530      0.00000
     17      14.9583      0.00000
     18      15.5866      0.00000
     19      15.5866      0.00000
     20      16.6377      0.00000
     21      17.3212      0.00000

 k-point   218 :       0.5000    0.5000    0.1897
  band No.  band energies     occupation 
      1     -19.2175      2.00000
      2     -12.1855      2.00000
      3      -6.6521      2.00000
      4      -6.6521      2.00000
      5      -5.8885      2.00000
      6      -0.7809      2.00000
      7      -0.7809      2.00000
      8      -0.5887      2.00000
      9       6.6362      0.00000
     10       6.8084      0.00000
     11       7.9773      0.00000
     12       7.9773      0.00000
     13      11.5678      0.00000
     14      11.5678      0.00000
     15      12.5090      0.00000
     16      13.0312      0.00000
     17      14.8756      0.00000
     18      15.4114      0.00000
     19      15.4114      0.00000
     20      16.6155      0.00000
     21      17.5153      0.00000

 k-point   219 :       0.5000    0.5000    0.1724
  band No.  band energies     occupation 
      1     -19.2212      2.00000
      2     -12.1900      2.00000
      3      -6.6655      2.00000
      4      -6.6655      2.00000
      5      -5.8444      2.00000
      6      -0.7423      2.00000
      7      -0.7423      2.00000
      8      -0.5278      2.00000
      9       6.5100      0.00000
     10       6.6328      0.00000
     11       7.9544      0.00000
     12       7.9544      0.00000
     13      11.6342      0.00000
     14      11.6342      0.00000
     15      12.4972      0.00000
     16      13.0092      0.00000
     17      14.7994      0.00000
     18      15.2483      0.00000
     19      15.2483      0.00000
     20      16.5928      0.00000
     21      17.7123      0.00000

 k-point   220 :       0.5000    0.5000    0.1552
  band No.  band energies     occupation 
      1     -19.2247      2.00000
      2     -12.1942      2.00000
      3      -6.6779      2.00000
      4      -6.6779      2.00000
      5      -5.8022      2.00000
      6      -0.7058      2.00000
      7      -0.7058      2.00000
      8      -0.4688      2.00000
      9       6.3907      0.00000
     10       6.4710      0.00000
     11       7.9338      0.00000
     12       7.9338      0.00000
     13      11.6960      0.00000
     14      11.6960      0.00000
     15      12.4862      0.00000
     16      12.9880      0.00000
     17      14.7306      0.00000
     18      15.0984      0.00000
     19      15.0984      0.00000
     20      16.5716      0.00000
     21      17.9119      0.00000

 k-point   221 :       0.5000    0.5000    0.1379
  band No.  band energies     occupation 
      1     -19.2280      2.00000
      2     -12.1982      2.00000
      3      -6.6894      2.00000
      4      -6.6894      2.00000
      5      -5.7627      2.00000
      6      -0.6718      2.00000
      7      -0.6718      2.00000
      8      -0.4146      2.00000
      9       6.2779      0.00000
     10       6.3238      0.00000
     11       7.9153      0.00000
     12       7.9153      0.00000
     13      11.7527      0.00000
     14      11.7527      0.00000
     15      12.4760      0.00000
     16      12.9680      0.00000
     17      14.6597      0.00000
     18      14.9624      0.00000
     19      14.9624      0.00000
     20      16.5522      0.00000
     21      18.1201      0.00000

 k-point   222 :       0.5000    0.5000    0.1207
  band No.  band energies     occupation 
      1     -19.2309      2.00000
      2     -12.2018      2.00000
      3      -6.6998      2.00000
      4      -6.6998      2.00000
      5      -5.7261      2.00000
      6      -0.6408      2.00000
      7      -0.6408      2.00000
      8      -0.3622      2.00000
      9       6.1761      0.00000
     10       6.1919      0.00000
     11       7.8993      0.00000
     12       7.8993      0.00000
     13      11.8039      0.00000
     14      11.8039      0.00000
     15      12.4667      0.00000
     16      12.9496      0.00000
     17      14.6055      0.00000
     18      14.8411      0.00000
     19      14.8411      0.00000
     20      16.5348      0.00000
     21      18.1418      0.00000

 k-point   223 :       0.5000    0.5000    0.1034
  band No.  band energies     occupation 
      1     -19.2336      2.00000
      2     -12.2050      2.00000
      3      -6.7091      2.00000
      4      -6.7091      2.00000
      5      -5.6931      2.00000
      6      -0.6135      2.00000
      7      -0.6135      2.00000
      8      -0.3146      2.00000
      9       6.0757      0.00000
     10       6.0850      0.00000
     11       7.8855      0.00000
     12       7.8855      0.00000
     13      11.8490      0.00000
     14      11.8490      0.00000
     15      12.4585      0.00000
     16      12.9322      0.00000
     17      14.5583      0.00000
     18      14.7348      0.00000
     19      14.7348      0.00000
     20      16.5195      0.00000
     21      18.1600      0.00000

 k-point   224 :       0.5000    0.5000    0.0862
  band No.  band energies     occupation 
      1     -19.2358      2.00000
      2     -12.2077      2.00000
      3      -6.7169      2.00000
      4      -6.7169      2.00000
      5      -5.6643      2.00000
      6      -0.5887      2.00000
      7      -0.5887      2.00000
      8      -0.2716      2.00000
      9       5.9765      0.00000
     10       6.0056      0.00000
     11       7.8745      0.00000
     12       7.8745      0.00000
     13      11.8886      0.00000
     14      11.8886      0.00000
     15      12.4515      0.00000
     16      12.9180      0.00000
     17      14.5187      0.00000
     18      14.6444      0.00000
     19      14.6444      0.00000
     20      16.5138      0.00000
     21      18.1867      0.00000

 k-point   225 :       0.5000    0.5000    0.0690
  band No.  band energies     occupation 
      1     -19.2377      2.00000
      2     -12.2100      2.00000
      3      -6.7235      2.00000
      4      -6.7235      2.00000
      5      -5.6400      2.00000
      6      -0.5685      2.00000
      7      -0.5685      2.00000
      8      -0.2356      2.00000
      9       5.8946      0.00000
     10       5.9389      0.00000
     11       7.8653      0.00000
     12       7.8653      0.00000
     13      11.9206      0.00000
     14      11.9206      0.00000
     15      12.4456      0.00000
     16      12.9060      0.00000
     17      14.4864      0.00000
     18      14.5698      0.00000
     19      14.5698      0.00000
     20      16.5028      0.00000
     21      18.2082      0.00000

 k-point   226 :       0.5000    0.5000    0.0517
  band No.  band energies     occupation 
      1     -19.2393      2.00000
      2     -12.2118      2.00000
      3      -6.7288      2.00000
      4      -6.7288      2.00000
      5      -5.6207      2.00000
      6      -0.5532      2.00000
      7      -0.5532      2.00000
      8      -0.2076      2.00000
      9       5.8303      0.00000
     10       5.8858      0.00000
     11       7.8572      0.00000
     12       7.8572      0.00000
     13      11.9456      0.00000
     14      11.9456      0.00000
     15      12.4409      0.00000
     16      12.8962      0.00000
     17      14.4621      0.00000
     18      14.5114      0.00000
     19      14.5114      0.00000
     20      16.4915      0.00000
     21      18.2186      0.00000

 k-point   227 :       0.5000    0.5000    0.0345
  band No.  band energies     occupation 
      1     -19.2404      2.00000
      2     -12.2131      2.00000
      3      -6.7325      2.00000
      4      -6.7325      2.00000
      5      -5.6067      2.00000
      6      -0.5418      2.00000
      7      -0.5418      2.00000
      8      -0.1866      2.00000
      9       5.7841      0.00000
     10       5.8475      0.00000
     11       7.8522      0.00000
     12       7.8522      0.00000
     13      11.9635      0.00000
     14      11.9635      0.00000
     15      12.4376      0.00000
     16      12.8894      0.00000
     17      14.4441      0.00000
     18      14.4696      0.00000
     19      14.4696      0.00000
     20      16.4852      0.00000
     21      18.2333      0.00000

 k-point   228 :       0.5000    0.5000    0.0172
  band No.  band energies     occupation 
      1     -19.2410      2.00000
      2     -12.2139      2.00000
      3      -6.7348      2.00000
      4      -6.7348      2.00000
      5      -5.5982      2.00000
      6      -0.5348      2.00000
      7      -0.5348      2.00000
      8      -0.1738      2.00000
      9       5.7563      0.00000
     10       5.8243      0.00000
     11       7.8492      0.00000
     12       7.8492      0.00000
     13      11.9743      0.00000
     14      11.9743      0.00000
     15      12.4356      0.00000
     16      12.8853      0.00000
     17      14.4333      0.00000
     18      14.4445      0.00000
     19      14.4445      0.00000
     20      16.4815      0.00000
     21      18.2428      0.00000

 k-point   229 :       0.5000    0.5000    0.0000
  band No.  band energies     occupation 
      1     -19.2412      2.00000
      2     -12.2142      2.00000
      3      -6.7355      2.00000
      4      -6.7355      2.00000
      5      -5.5953      2.00000
      6      -0.5325      2.00000
      7      -0.5325      2.00000
      8      -0.1695      2.00000
      9       5.7470      0.00000
     10       5.8165      0.00000
     11       7.8482      0.00000
     12       7.8482      0.00000
     13      11.9779      0.00000
     14      11.9779      0.00000
     15      12.4349      0.00000
     16      12.8839      0.00000
     17      14.4297      0.00000
     18      14.4361      0.00000
     19      14.4361      0.00000
     20      16.4802      0.00000
     21      18.2460      0.00000


--------------------------------------------------------------------------------------------------------


 soft charge-density along one line, spin component            1
         0         1         2         3         4         5         6         7         8         9
 total charge-density along one line
 
 pseudopotential strength for first ion, spin component:            1
 17.587  -4.625  -0.000  -0.000   0.000   0.000   0.000  -0.000
 -4.625   1.220   0.000   0.000  -0.000  -0.000  -0.000   0.000
 -0.000   0.000   1.876  -0.000   0.000  -2.226   0.000  -0.000
 -0.000   0.000  -0.000   1.876   0.000   0.000  -2.226  -0.000
  0.000  -0.000   0.000   0.000   1.876  -0.000  -0.000  -2.226
  0.000  -0.000  -2.226   0.000  -0.000   2.588  -0.000   0.000
  0.000  -0.000   0.000  -2.226  -0.000  -0.000   2.588   0.000
 -0.000   0.000  -0.000  -0.000  -2.226   0.000   0.000   2.588
  0.000   0.000  -0.000   0.000  -0.000   0.000  -0.000   0.000
 -0.000   0.000  -0.000  -0.000   0.000   0.000   0.000  -0.000
 -0.000  -0.000   0.000   0.000  -0.000  -0.000  -0.000   0.000
  0.000  -0.000   0.000   0.000  -0.000  -0.000  -0.000   0.000
  0.000   0.000   0.000   0.000   0.000  -0.000  -0.000  -0.000
 total augmentation occupancy for first ion, spin component:            1
  2.292   0.583   0.000   0.000   0.000   0.000   0.000   0.000   0.000  -0.000  -0.000  -0.000   0.000
  0.583   0.356   0.000   0.000   0.000   0.000   0.000   0.000   0.000  -0.000  -0.000   0.000   0.000
  0.000   0.000   2.011   0.000   0.000   0.008   0.000   0.000   0.000   0.000   0.000   0.000   0.000
  0.000   0.000   0.000   2.011  -0.000   0.000   0.008   0.000   0.000   0.000   0.000   0.000   0.000
  0.000   0.000   0.000  -0.000   2.011   0.000   0.000   0.008   0.000   0.000   0.000   0.000   0.000
  0.000   0.000   0.008   0.000  -0.000   0.015   0.000  -0.000   0.000   0.000   0.000   0.000   0.000
  0.000   0.000   0.000   0.008   0.000  -0.000   0.015   0.000   0.000   0.000   0.000   0.000   0.000
  0.000   0.000  -0.000  -0.000   0.008  -0.000  -0.000   0.015   0.000   0.000   0.000   0.000   0.000
  0.000   0.000   0.000   0.000   0.000   0.000   0.000   0.000   0.013  -0.000   0.000   0.000   0.000
  0.000   0.000   0.000   0.000   0.000   0.000   0.000   0.000  -0.000   0.013  -0.000   0.000   0.000
  0.000  -0.000   0.000   0.000   0.000   0.000   0.000   0.000   0.000  -0.000   0.003  -0.000   0.000
 -0.000   0.000   0.000   0.000   0.000   0.000   0.000   0.000   0.000  -0.000   0.000   0.013  -0.000
 -0.000   0.000   0.000   0.000   0.000   0.000   0.000   0.000  -0.000   0.000   0.000  -0.000   0.003


------------------------ aborting loop because EDIFF is reached ----------------------------------------





 total charge

# of ion       s       p       d       tot
------------------------------------------
    1        1.966   4.702   0.035   6.703
    2        1.581   3.553   0.000   5.134
--------------------------------------------------
tot          3.547   8.255   0.035  11.838
 
    CHARGE:  cpu time      0.1648: real time      0.1654
    FORLOC:  cpu time      0.0011: real time      0.0011
    FORNL :  cpu time      0.5030: real time      0.5640
    FORCOR:  cpu time      0.0484: real time      0.0486
    FORHAR:  cpu time      0.0008: real time      0.0008
    MIXING:  cpu time      0.0007: real time      0.0008
    OFIELD:  cpu time      0.0000: real time      0.0000

 VOLUME and BASIS-vectors are now :
 -----------------------------------------------------------------------------
  energy-cutoff  :      262.47
  volume of cell :       67.69
      direct lattice vectors                 reciprocal lattice vectors
     4.075448639  0.000000000  0.000000000     0.245371759  0.000000000  0.000000000
     0.000000000  4.075448639  0.000000000     0.000000000  0.245371759  0.000000000
     0.000000000  0.000000000  4.075448639     0.000000000  0.000000000  0.245371759

  length of vectors
     4.075448639  4.075448639  4.075448639     0.245371759  0.245371759  0.245371759


 FORCES acting on ions
    electron-ion (+dipol)            ewald-force                    non-local-force                 convergence-correction
 -----------------------------------------------------------------------------------------------
   -.154E-14 -.226E-15 -.219E-15   0.119E-14 -.132E-14 -.119E-14   -.766E-25 0.000E+00 0.000E+00   0.359E-14 0.246E-14 0.126E-14
   0.515E-13 0.609E-12 0.149E-12   -.148E-14 0.778E-15 0.119E-14   -.198E-23 0.000E+00 0.000E+00   0.904E-14 0.665E-14 0.212E-14
 -----------------------------------------------------------------------------------------------
   0.499E-13 0.608E-12 0.149E-12   -.291E-15 -.544E-15 0.482E-17   -.205E-23 0.000E+00 0.000E+00   0.126E-13 0.910E-14 0.337E-14
 
 
 POSITION                                       TOTAL-FORCE (eV/Angst)
 -----------------------------------------------------------------------------------
      0.00000      0.00000      0.00000        -0.000000      0.000000      0.000000
      2.03772      2.03772      2.03772         0.000000      0.000000      0.000000
 -----------------------------------------------------------------------------------
    total drift:                                0.000000      0.000000      0.000000


--------------------------------------------------------------------------------------------------------



  FREE ENERGIE OF THE ION-ELECTRON SYSTEM (eV)
  ---------------------------------------------------
  free  energy   TOTEN  =        -6.85436379 eV

  energy  without entropy=       -6.85436379  energy(sigma->0) =       -6.85436379
 


--------------------------------------------------------------------------------------------------------


    POTLOK:  cpu time      0.0500: real time      0.0503


--------------------------------------------------------------------------------------------------------




--------------------------------------------------------------------------------------------------------


  
 reached required accuracy - stopping structural energy minimisation
     LOOP+:  cpu time     30.2512: real time     30.8140
    4ORBIT:  cpu time      0.0000: real time      0.0000



 total charge

# of ion       s       p       d       tot
------------------------------------------
    1        1.966   4.702   0.035   6.703
    2        1.581   3.553   0.000   5.134
--------------------------------------------------
tot          3.547   8.255   0.035  11.838
 

 total amount of memory used by VASP MPI-rank0   118636. kBytes
=======================================================================

   base                                    :      30000. kBytes
   nonl-proj                               :      32030. kBytes
   fftplans                                :       1184. kBytes
   grid                                    :       2084. kBytes
   one-center                              :         16. kBytes
   wavefun                                 :      53322. kBytes
 
  
  
 General timing and accounting informations for this job:
 ========================================================
  
                  Total CPU time used (sec):       33.689
                            User time (sec):       31.568
                          System time (sec):        2.121
                         Elapsed time (sec):       41.178
  
                   Maximum memory used (kb):     2109604.
                   Average memory used (kb):          N/A
  
                          Minor page faults:       290639
                          Major page faults:         7905
                 Voluntary context switches:        15845
