<?xml version="1.0" encoding="ISO-8859-1"?>
<modeling>
 <generator>
  <i name="program" type="string">vasp </i>
  <i name="version" type="string">6.5.1  </i>
  <i name="subversion" type="string">10Mar25 (build May 13 2025 11:33:44) complex                          parallel </i>
  <i name="platform" type="string">LinuxNV </i>
  <i name="date" type="string">2026 05 13 </i>
  <i name="time" type="string">01:43:03 </i>
 </generator>
 <incar>
  <i type="string" name="PREC">Normal</i>
  <i type="string" name="ALGO">Normal</i>
  <i type="int" name="NELM">   100</i>
  <i type="int" name="IBRION">     2</i>
  <i name="EDIFF">      0.00001000</i>
  <i type="int" name="NSW">     1</i>
  <i type="int" name="ISIF">     0</i>
  <i name="ENCUT">    262.47200000</i>
  <i type="int" name="NBANDS">    21</i>
  <i type="logical" name="LREAL"> F  </i>
  <i type="int" name="ISMEAR">     0</i>
  <i name="SIGMA">      0.10000000</i>
  <i type="logical" name="LWAVE"> F  </i>
  <i type="logical" name="LCHARG"> F  </i>
  <i type="int" name="LORBIT">    10</i>
  <i type="logical" name="LASPH"> T  </i>
  <i type="string" name="GGA">Ps</i>
 </incar>
 <primitive_cell>
  <structure name="primitive_cell" >
   <crystal>
    <varray name="basis" >
     <v>       4.07544864       0.00000000       0.00000000 </v>
     <v>       0.00000000       4.07544864       0.00000000 </v>
     <v>       0.00000000       0.00000000       4.07544864 </v>
    </varray>
    <i name="volume">     67.69027413 </i>
    <varray name="rec_basis" >
     <v>       0.24537176       0.00000000       0.00000000 </v>
     <v>       0.00000000       0.24537176       0.00000000 </v>
     <v>       0.00000000       0.00000000       0.24537176 </v>
    </varray>
   </crystal>
   <varray name="positions" >
    <v>       0.00000000       0.00000000       0.00000000 </v>
    <v>       0.50000000       0.50000000       0.50000000 </v>
   </varray>
  </structure>
  <varray name="primitive_index" >
   <v type="int" >        1 </v>
   <v type="int" >        2 </v>
  </varray>
 </primitive_cell>
 <kpoints>
  <varray name="kpointlist" >
   <v>       0.12500000       0.12500000       0.12500000 </v>
   <v>       0.37500000       0.12500000       0.12500000 </v>
   <v>       0.37500000       0.37500000       0.12500000 </v>
   <v>       0.37500000       0.37500000       0.37500000 </v>
   <v>       0.00000000       0.00000000       0.00000000 </v>
   <v>       0.00000000       0.01724138       0.00000000 </v>
   <v>       0.00000000       0.03448276       0.00000000 </v>
   <v>       0.00000000       0.05172414       0.00000000 </v>
   <v>       0.00000000       0.06896552       0.00000000 </v>
   <v>       0.00000000       0.08620690       0.00000000 </v>
   <v>       0.00000000       0.10344828       0.00000000 </v>
   <v>       0.00000000       0.12068966       0.00000000 </v>
   <v>       0.00000000       0.13793103       0.00000000 </v>
   <v>       0.00000000       0.15517241       0.00000000 </v>
   <v>       0.00000000       0.17241379       0.00000000 </v>
   <v>       0.00000000       0.18965517       0.00000000 </v>
   <v>       0.00000000       0.20689655       0.00000000 </v>
   <v>       0.00000000       0.22413793       0.00000000 </v>
   <v>       0.00000000       0.24137931       0.00000000 </v>
   <v>       0.00000000       0.25862069       0.00000000 </v>
   <v>       0.00000000       0.27586207       0.00000000 </v>
   <v>       0.00000000       0.29310345       0.00000000 </v>
   <v>       0.00000000       0.31034483       0.00000000 </v>
   <v>       0.00000000       0.32758621       0.00000000 </v>
   <v>       0.00000000       0.34482759       0.00000000 </v>
   <v>       0.00000000       0.36206897       0.00000000 </v>
   <v>       0.00000000       0.37931034       0.00000000 </v>
   <v>       0.00000000       0.39655172       0.00000000 </v>
   <v>       0.00000000       0.41379310       0.00000000 </v>
   <v>       0.00000000       0.43103448       0.00000000 </v>
   <v>       0.00000000       0.44827586       0.00000000 </v>
   <v>       0.00000000       0.46551724       0.00000000 </v>
   <v>       0.00000000       0.48275862       0.00000000 </v>
   <v>       0.00000000       0.50000000       0.00000000 </v>
   <v>       0.01724138       0.50000000       0.00000000 </v>
   <v>       0.03448276       0.50000000       0.00000000 </v>
   <v>       0.05172414       0.50000000       0.00000000 </v>
   <v>       0.06896552       0.50000000       0.00000000 </v>
   <v>       0.08620690       0.50000000       0.00000000 </v>
   <v>       0.10344828       0.50000000       0.00000000 </v>
   <v>       0.12068966       0.50000000       0.00000000 </v>
   <v>       0.13793103       0.50000000       0.00000000 </v>
   <v>       0.15517241       0.50000000       0.00000000 </v>
   <v>       0.17241379       0.50000000       0.00000000 </v>
   <v>       0.18965517       0.50000000       0.00000000 </v>
   <v>       0.20689655       0.50000000       0.00000000 </v>
   <v>       0.22413793       0.50000000       0.00000000 </v>
   <v>       0.24137931       0.50000000       0.00000000 </v>
   <v>       0.25862069       0.50000000       0.00000000 </v>
   <v>       0.27586207       0.50000000       0.00000000 </v>
   <v>       0.29310345       0.50000000       0.00000000 </v>
   <v>       0.31034483       0.50000000       0.00000000 </v>
   <v>       0.32758621       0.50000000       0.00000000 </v>
   <v>       0.34482759       0.50000000       0.00000000 </v>
   <v>       0.36206897       0.50000000       0.00000000 </v>
   <v>       0.37931034       0.50000000       0.00000000 </v>
   <v>       0.39655172       0.50000000       0.00000000 </v>
   <v>       0.41379310       0.50000000       0.00000000 </v>
   <v>       0.43103448       0.50000000       0.00000000 </v>
   <v>       0.44827586       0.50000000       0.00000000 </v>
   <v>       0.46551724       0.50000000       0.00000000 </v>
   <v>       0.48275862       0.50000000       0.00000000 </v>
   <v>       0.50000000       0.50000000       0.00000000 </v>
   <v>       0.48809524       0.48809524       0.00000000 </v>
   <v>       0.47619048       0.47619048       0.00000000 </v>
   <v>       0.46428571       0.46428571       0.00000000 </v>
   <v>       0.45238095       0.45238095       0.00000000 </v>
   <v>       0.44047619       0.44047619       0.00000000 </v>
   <v>       0.42857143       0.42857143       0.00000000 </v>
   <v>       0.41666667       0.41666667       0.00000000 </v>
   <v>       0.40476190       0.40476190       0.00000000 </v>
   <v>       0.39285714       0.39285714       0.00000000 </v>
   <v>       0.38095238       0.38095238       0.00000000 </v>
   <v>       0.36904762       0.36904762       0.00000000 </v>
   <v>       0.35714286       0.35714286       0.00000000 </v>
   <v>       0.34523810       0.34523810       0.00000000 </v>
   <v>       0.33333333       0.33333333       0.00000000 </v>
   <v>       0.32142857       0.32142857       0.00000000 </v>
   <v>       0.30952381       0.30952381       0.00000000 </v>
   <v>       0.29761905       0.29761905       0.00000000 </v>
   <v>       0.28571429       0.28571429       0.00000000 </v>
   <v>       0.27380952       0.27380952       0.00000000 </v>
   <v>       0.26190476       0.26190476       0.00000000 </v>
   <v>       0.25000000       0.25000000       0.00000000 </v>
   <v>       0.23809524       0.23809524       0.00000000 </v>
   <v>       0.22619048       0.22619048       0.00000000 </v>
   <v>       0.21428571       0.21428571       0.00000000 </v>
   <v>       0.20238095       0.20238095       0.00000000 </v>
   <v>       0.19047619       0.19047619       0.00000000 </v>
   <v>       0.17857143       0.17857143       0.00000000 </v>
   <v>       0.16666667       0.16666667       0.00000000 </v>
   <v>       0.15476190       0.15476190       0.00000000 </v>
   <v>       0.14285714       0.14285714       0.00000000 </v>
   <v>       0.13095238       0.13095238       0.00000000 </v>
   <v>       0.11904762       0.11904762       0.00000000 </v>
   <v>       0.10714286       0.10714286       0.00000000 </v>
   <v>       0.09523810       0.09523810       0.00000000 </v>
   <v>       0.08333333       0.08333333       0.00000000 </v>
   <v>       0.07142857       0.07142857       0.00000000 </v>
   <v>       0.05952381       0.05952381       0.00000000 </v>
   <v>       0.04761905       0.04761905       0.00000000 </v>
   <v>       0.03571429       0.03571429       0.00000000 </v>
   <v>       0.02380952       0.02380952       0.00000000 </v>
   <v>       0.01190476       0.01190476       0.00000000 </v>
   <v>       0.00000000       0.00000000       0.00000000 </v>
   <v>       0.00961538       0.00961538       0.00961538 </v>
   <v>       0.01923077       0.01923077       0.01923077 </v>
   <v>       0.02884615       0.02884615       0.02884615 </v>
   <v>       0.03846154       0.03846154       0.03846154 </v>
   <v>       0.04807692       0.04807692       0.04807692 </v>
   <v>       0.05769231       0.05769231       0.05769231 </v>
   <v>       0.06730769       0.06730769       0.06730769 </v>
   <v>       0.07692308       0.07692308       0.07692308 </v>
   <v>       0.08653846       0.08653846       0.08653846 </v>
   <v>       0.09615385       0.09615385       0.09615385 </v>
   <v>       0.10576923       0.10576923       0.10576923 </v>
   <v>       0.11538462       0.11538462       0.11538462 </v>
   <v>       0.12500000       0.12500000       0.12500000 </v>
   <v>       0.13461538       0.13461538       0.13461538 </v>
   <v>       0.14423077       0.14423077       0.14423077 </v>
   <v>       0.15384615       0.15384615       0.15384615 </v>
   <v>       0.16346154       0.16346154       0.16346154 </v>
   <v>       0.17307692       0.17307692       0.17307692 </v>
   <v>       0.18269231       0.18269231       0.18269231 </v>
   <v>       0.19230769       0.19230769       0.19230769 </v>
   <v>       0.20192308       0.20192308       0.20192308 </v>
   <v>       0.21153846       0.21153846       0.21153846 </v>
   <v>       0.22115385       0.22115385       0.22115385 </v>
   <v>       0.23076923       0.23076923       0.23076923 </v>
   <v>       0.24038462       0.24038462       0.24038462 </v>
   <v>       0.25000000       0.25000000       0.25000000 </v>
   <v>       0.25961538       0.25961538       0.25961538 </v>
   <v>       0.26923077       0.26923077       0.26923077 </v>
   <v>       0.27884615       0.27884615       0.27884615 </v>
   <v>       0.28846154       0.28846154       0.28846154 </v>
   <v>       0.29807692       0.29807692       0.29807692 </v>
   <v>       0.30769231       0.30769231       0.30769231 </v>
   <v>       0.31730769       0.31730769       0.31730769 </v>
   <v>       0.32692308       0.32692308       0.32692308 </v>
   <v>       0.33653846       0.33653846       0.33653846 </v>
   <v>       0.34615385       0.34615385       0.34615385 </v>
   <v>       0.35576923       0.35576923       0.35576923 </v>
   <v>       0.36538462       0.36538462       0.36538462 </v>
   <v>       0.37500000       0.37500000       0.37500000 </v>
   <v>       0.38461538       0.38461538       0.38461538 </v>
   <v>       0.39423077       0.39423077       0.39423077 </v>
   <v>       0.40384615       0.40384615       0.40384615 </v>
   <v>       0.41346154       0.41346154       0.41346154 </v>
   <v>       0.42307692       0.42307692       0.42307692 </v>
   <v>       0.43269231       0.43269231       0.43269231 </v>
   <v>       0.44230769       0.44230769       0.44230769 </v>
   <v>       0.45192308       0.45192308       0.45192308 </v>
   <v>       0.46153846       0.46153846       0.46153846 </v>
   <v>       0.47115385       0.47115385       0.47115385 </v>
   <v>       0.48076923       0.48076923       0.48076923 </v>
   <v>       0.49038462       0.49038462       0.49038462 </v>
   <v>       0.50000000       0.50000000       0.50000000 </v>
   <v>       0.48809524       0.50000000       0.48809524 </v>
   <v>       0.47619048       0.50000000       0.47619048 </v>
   <v>       0.46428571       0.50000000       0.46428571 </v>
   <v>       0.45238095       0.50000000       0.45238095 </v>
   <v>       0.44047619       0.50000000       0.44047619 </v>
   <v>       0.42857143       0.50000000       0.42857143 </v>
   <v>       0.41666667       0.50000000       0.41666667 </v>
   <v>       0.40476190       0.50000000       0.40476190 </v>
   <v>       0.39285714       0.50000000       0.39285714 </v>
   <v>       0.38095238       0.50000000       0.38095238 </v>
   <v>       0.36904762       0.50000000       0.36904762 </v>
   <v>       0.35714286       0.50000000       0.35714286 </v>
   <v>       0.34523810       0.50000000       0.34523810 </v>
   <v>       0.33333333       0.50000000       0.33333333 </v>
   <v>       0.32142857       0.50000000       0.32142857 </v>
   <v>       0.30952381       0.50000000       0.30952381 </v>
   <v>       0.29761905       0.50000000       0.29761905 </v>
   <v>       0.28571429       0.50000000       0.28571429 </v>
   <v>       0.27380952       0.50000000       0.27380952 </v>
   <v>       0.26190476       0.50000000       0.26190476 </v>
   <v>       0.25000000       0.50000000       0.25000000 </v>
   <v>       0.23809524       0.50000000       0.23809524 </v>
   <v>       0.22619048       0.50000000       0.22619048 </v>
   <v>       0.21428571       0.50000000       0.21428571 </v>
   <v>       0.20238095       0.50000000       0.20238095 </v>
   <v>       0.19047619       0.50000000       0.19047619 </v>
   <v>       0.17857143       0.50000000       0.17857143 </v>
   <v>       0.16666667       0.50000000       0.16666667 </v>
   <v>       0.15476190       0.50000000       0.15476190 </v>
   <v>       0.14285714       0.50000000       0.14285714 </v>
   <v>       0.13095238       0.50000000       0.13095238 </v>
   <v>       0.11904762       0.50000000       0.11904762 </v>
   <v>       0.10714286       0.50000000       0.10714286 </v>
   <v>       0.09523810       0.50000000       0.09523810 </v>
   <v>       0.08333333       0.50000000       0.08333333 </v>
   <v>       0.07142857       0.50000000       0.07142857 </v>
   <v>       0.05952381       0.50000000       0.05952381 </v>
   <v>       0.04761905       0.50000000       0.04761905 </v>
   <v>       0.03571429       0.50000000       0.03571429 </v>
   <v>       0.02380952       0.50000000       0.02380952 </v>
   <v>       0.01190476       0.50000000       0.01190476 </v>
   <v>       0.00000000       0.50000000       0.00000000 </v>
   <v>       0.50000000       0.50000000       0.50000000 </v>
   <v>       0.50000000       0.50000000       0.48275862 </v>
   <v>       0.50000000       0.50000000       0.46551724 </v>
   <v>       0.50000000       0.50000000       0.44827586 </v>
   <v>       0.50000000       0.50000000       0.43103448 </v>
   <v>       0.50000000       0.50000000       0.41379310 </v>
   <v>       0.50000000       0.50000000       0.39655172 </v>
   <v>       0.50000000       0.50000000       0.37931034 </v>
   <v>       0.50000000       0.50000000       0.36206897 </v>
   <v>       0.50000000       0.50000000       0.34482759 </v>
   <v>       0.50000000       0.50000000       0.32758621 </v>
   <v>       0.50000000       0.50000000       0.31034483 </v>
   <v>       0.50000000       0.50000000       0.29310345 </v>
   <v>       0.50000000       0.50000000       0.27586207 </v>
   <v>       0.50000000       0.50000000       0.25862069 </v>
   <v>       0.50000000       0.50000000       0.24137931 </v>
   <v>       0.50000000       0.50000000       0.22413793 </v>
   <v>       0.50000000       0.50000000       0.20689655 </v>
   <v>       0.50000000       0.50000000       0.18965517 </v>
   <v>       0.50000000       0.50000000       0.17241379 </v>
   <v>       0.50000000       0.50000000       0.15517241 </v>
   <v>       0.50000000       0.50000000       0.13793103 </v>
   <v>       0.50000000       0.50000000       0.12068966 </v>
   <v>       0.50000000       0.50000000       0.10344828 </v>
   <v>       0.50000000       0.50000000       0.08620690 </v>
   <v>       0.50000000       0.50000000       0.06896552 </v>
   <v>       0.50000000       0.50000000       0.05172414 </v>
   <v>       0.50000000       0.50000000       0.03448276 </v>
   <v>       0.50000000       0.50000000       0.01724138 </v>
   <v>       0.50000000       0.50000000       0.00000000 </v>
  </varray>
  <varray name="weights" >
   <v>       0.12500000 </v>
   <v>       0.37500000 </v>
   <v>       0.37500000 </v>
   <v>       0.12500000 </v>
   <v>       0.00000000 </v>
   <v>       0.00000000 </v>
   <v>       0.00000000 </v>
   <v>       0.00000000 </v>
   <v>       0.00000000 </v>
   <v>       0.00000000 </v>
   <v>       0.00000000 </v>
   <v>       0.00000000 </v>
   <v>       0.00000000 </v>
   <v>       0.00000000 </v>
   <v>       0.00000000 </v>
   <v>       0.00000000 </v>
   <v>       0.00000000 </v>
   <v>       0.00000000 </v>
   <v>       0.00000000 </v>
   <v>       0.00000000 </v>
   <v>       0.00000000 </v>
   <v>       0.00000000 </v>
   <v>       0.00000000 </v>
   <v>       0.00000000 </v>
   <v>       0.00000000 </v>
   <v>       0.00000000 </v>
   <v>       0.00000000 </v>
   <v>       0.00000000 </v>
   <v>       0.00000000 </v>
   <v>       0.00000000 </v>
   <v>       0.00000000 </v>
   <v>       0.00000000 </v>
   <v>       0.00000000 </v>
   <v>       0.00000000 </v>
   <v>       0.00000000 </v>
   <v>       0.00000000 </v>
   <v>       0.00000000 </v>
   <v>       0.00000000 </v>
   <v>       0.00000000 </v>
   <v>       0.00000000 </v>
   <v>       0.00000000 </v>
   <v>       0.00000000 </v>
   <v>       0.00000000 </v>
   <v>       0.00000000 </v>
   <v>       0.00000000 </v>
   <v>       0.00000000 </v>
   <v>       0.00000000 </v>
   <v>       0.00000000 </v>
   <v>       0.00000000 </v>
   <v>       0.00000000 </v>
   <v>       0.00000000 </v>
   <v>       0.00000000 </v>
   <v>       0.00000000 </v>
   <v>       0.00000000 </v>
   <v>       0.00000000 </v>
   <v>       0.00000000 </v>
   <v>       0.00000000 </v>
   <v>       0.00000000 </v>
   <v>       0.00000000 </v>
   <v>       0.00000000 </v>
   <v>       0.00000000 </v>
   <v>       0.00000000 </v>
   <v>       0.00000000 </v>
   <v>       0.00000000 </v>
   <v>       0.00000000 </v>
   <v>       0.00000000 </v>
   <v>       0.00000000 </v>
   <v>       0.00000000 </v>
   <v>       0.00000000 </v>
   <v>       0.00000000 </v>
   <v>       0.00000000 </v>
   <v>       0.00000000 </v>
   <v>       0.00000000 </v>
   <v>       0.00000000 </v>
   <v>       0.00000000 </v>
   <v>       0.00000000 </v>
   <v>       0.00000000 </v>
   <v>       0.00000000 </v>
   <v>       0.00000000 </v>
   <v>       0.00000000 </v>
   <v>       0.00000000 </v>
   <v>       0.00000000 </v>
   <v>       0.00000000 </v>
   <v>       0.00000000 </v>
   <v>       0.00000000 </v>
   <v>       0.00000000 </v>
   <v>       0.00000000 </v>
   <v>       0.00000000 </v>
   <v>       0.00000000 </v>
   <v>       0.00000000 </v>
   <v>       0.00000000 </v>
   <v>       0.00000000 </v>
   <v>       0.00000000 </v>
   <v>       0.00000000 </v>
   <v>       0.00000000 </v>
   <v>       0.00000000 </v>
   <v>       0.00000000 </v>
   <v>       0.00000000 </v>
   <v>       0.00000000 </v>
   <v>       0.00000000 </v>
   <v>       0.00000000 </v>
   <v>       0.00000000 </v>
   <v>       0.00000000 </v>
   <v>       0.00000000 </v>
   <v>       0.00000000 </v>
   <v>       0.00000000 </v>
   <v>       0.00000000 </v>
   <v>       0.00000000 </v>
   <v>       0.00000000 </v>
   <v>       0.00000000 </v>
   <v>       0.00000000 </v>
   <v>       0.00000000 </v>
   <v>       0.00000000 </v>
   <v>       0.00000000 </v>
   <v>       0.00000000 </v>
   <v>       0.00000000 </v>
   <v>       0.00000000 </v>
   <v>       0.00000000 </v>
   <v>       0.00000000 </v>
   <v>       0.00000000 </v>
   <v>       0.00000000 </v>
   <v>       0.00000000 </v>
   <v>       0.00000000 </v>
   <v>       0.00000000 </v>
   <v>       0.00000000 </v>
   <v>       0.00000000 </v>
   <v>       0.00000000 </v>
   <v>       0.00000000 </v>
   <v>       0.00000000 </v>
   <v>       0.00000000 </v>
   <v>       0.00000000 </v>
   <v>       0.00000000 </v>
   <v>       0.00000000 </v>
   <v>       0.00000000 </v>
   <v>       0.00000000 </v>
   <v>       0.00000000 </v>
   <v>       0.00000000 </v>
   <v>       0.00000000 </v>
   <v>       0.00000000 </v>
   <v>       0.00000000 </v>
   <v>       0.00000000 </v>
   <v>       0.00000000 </v>
   <v>       0.00000000 </v>
   <v>       0.00000000 </v>
   <v>       0.00000000 </v>
   <v>       0.00000000 </v>
   <v>       0.00000000 </v>
   <v>       0.00000000 </v>
   <v>       0.00000000 </v>
   <v>       0.00000000 </v>
   <v>       0.00000000 </v>
   <v>       0.00000000 </v>
   <v>       0.00000000 </v>
   <v>       0.00000000 </v>
   <v>       0.00000000 </v>
   <v>       0.00000000 </v>
   <v>       0.00000000 </v>
   <v>       0.00000000 </v>
   <v>       0.00000000 </v>
   <v>       0.00000000 </v>
   <v>       0.00000000 </v>
   <v>       0.00000000 </v>
   <v>       0.00000000 </v>
   <v>       0.00000000 </v>
   <v>       0.00000000 </v>
   <v>       0.00000000 </v>
   <v>       0.00000000 </v>
   <v>       0.00000000 </v>
   <v>       0.00000000 </v>
   <v>       0.00000000 </v>
   <v>       0.00000000 </v>
   <v>       0.00000000 </v>
   <v>       0.00000000 </v>
   <v>       0.00000000 </v>
   <v>       0.00000000 </v>
   <v>       0.00000000 </v>
   <v>       0.00000000 </v>
   <v>       0.00000000 </v>
   <v>       0.00000000 </v>
   <v>       0.00000000 </v>
   <v>       0.00000000 </v>
   <v>       0.00000000 </v>
   <v>       0.00000000 </v>
   <v>       0.00000000 </v>
   <v>       0.00000000 </v>
   <v>       0.00000000 </v>
   <v>       0.00000000 </v>
   <v>       0.00000000 </v>
   <v>       0.00000000 </v>
   <v>       0.00000000 </v>
   <v>       0.00000000 </v>
   <v>       0.00000000 </v>
   <v>       0.00000000 </v>
   <v>       0.00000000 </v>
   <v>       0.00000000 </v>
   <v>       0.00000000 </v>
   <v>       0.00000000 </v>
   <v>       0.00000000 </v>
   <v>       0.00000000 </v>
   <v>       0.00000000 </v>
   <v>       0.00000000 </v>
   <v>       0.00000000 </v>
   <v>       0.00000000 </v>
   <v>       0.00000000 </v>
   <v>       0.00000000 </v>
   <v>       0.00000000 </v>
   <v>       0.00000000 </v>
   <v>       0.00000000 </v>
   <v>       0.00000000 </v>
   <v>       0.00000000 </v>
   <v>       0.00000000 </v>
   <v>       0.00000000 </v>
   <v>       0.00000000 </v>
   <v>       0.00000000 </v>
   <v>       0.00000000 </v>
   <v>       0.00000000 </v>
   <v>       0.00000000 </v>
   <v>       0.00000000 </v>
   <v>       0.00000000 </v>
   <v>       0.00000000 </v>
   <v>       0.00000000 </v>
   <v>       0.00000000 </v>
   <v>       0.00000000 </v>
   <v>       0.00000000 </v>
   <v>       0.00000000 </v>
   <v>       0.00000000 </v>
   <v>       0.00000000 </v>
   <v>       0.00000000 </v>
   <v>       0.00000000 </v>
  </varray>
  <kpoints_labels>
   <i name="None" type="int">       1 </i>
   <i name="None" type="int">       2 </i>
   <i name="None" type="int">       3 </i>
   <i name="None" type="int">       4 </i>
   <i name="GAMMA" type="int">       5 </i>
   <i name="X" type="int">      34 </i>
   <i name="M" type="int">      63 </i>
   <i name="GAMMA" type="int">     105 </i>
   <i name="R" type="int">     157 </i>
   <i name="X" type="int">     199 </i>
   <i name="R" type="int">     200 </i>
   <i name="M" type="int">     229 </i>
  </kpoints_labels>
 </kpoints>
 <parameters>
  <separator name="general" >
   <i type="string" name="SYSTEM">unknown system</i>
   <i type="logical" name="LCOMPAT"> F  </i>
  </separator>
  <separator name="electronic" >
   <i type="string" name="PREC">normal</i>
   <i name="ENMAX">    262.47200000</i>
   <i name="ENAUG">    407.93300000</i>
   <i name="EDIFF">      0.00001000</i>
   <i type="int" name="IALGO">    38</i>
   <i type="int" name="IWAVPR">    11</i>
   <i type="int" name="NBANDS">    21</i>
   <i type="int" name="NBANDSLOW">    -1</i>
   <i type="int" name="NBANDSHIGH">    -1</i>
   <i name="NELECT">     16.00000000</i>
   <i type="int" name="TURBO">     0</i>
   <i type="int" name="IRESTART">     0</i>
   <i type="int" name="NREBOOT">     0</i>
   <i type="int" name="NMIN">     0</i>
   <i name="EREF">      0.00000000</i>
   <separator name="electronic smearing" >
    <i type="int" name="ISMEAR">     0</i>
    <i name="SIGMA">      0.10000000</i>
    <i name="KSPACING">      0.50000000</i>
    <i type="logical" name="KGAMMA"> T  </i>
    <i type="logical" name="KBLOWUP"> T  </i>
   </separator>
   <separator name="electronic projectors" >
    <i type="logical" name="LREAL"> F  </i>
    <v name="ROPT">      0.00000000      0.00000000</v>
    <i type="int" name="LMAXPAW">  -100</i>
    <i type="int" name="LMAXMIX">     2</i>
    <i type="logical" name="NLSPLINE"> F  </i>
   </separator>
   <separator name="electronic startup" >
    <i type="int" name="ISTART">     0</i>
    <i type="int" name="ICHARG">     2</i>
    <i type="int" name="INIWAV">     1</i>
   </separator>
   <separator name="electronic spin" >
    <i type="int" name="ISPIN">     1</i>
    <i type="logical" name="LNONCOLLINEAR"> F  </i>
    <v name="MAGMOM">      1.00000000      1.00000000</v>
    <i name="NUPDOWN">     -1.00000000</i>
    <i type="logical" name="LSORBIT"> F  </i>
    <v name="SAXIS">      0.00000000      0.00000000      1.00000000</v>
    <i type="logical" name="LSPIRAL"> F  </i>
    <v name="QSPIRAL">      0.00000000      0.00000000      0.00000000</v>
    <i type="logical" name="LZEROZ"> F  </i>
   </separator>
   <separator name="electronic exchange-correlation" >
    <i type="logical" name="LASPH"> T  </i>
   </separator>
   <separator name="electronic convergence" >
    <i type="int" name="NELM">   100</i>
    <i type="int" name="NELMDL">    -5</i>
    <i type="int" name="NELMIN">     2</i>
    <i name="ENINI">    262.47200000</i>
    <separator name="electronic convergence detail" >
     <i type="logical" name="LDIAG"> T  </i>
     <i type="logical" name="LSUBROT"> F  </i>
     <i type="logical" name="LROBUST"> F  </i>
     <i type="int" name="ISEARCH">     0</i>
     <i name="WEIMIN">      0.00100000</i>
     <i name="EBREAK">      0.00000012</i>
     <i name="DEPER">      0.30000000</i>
     <i type="int" name="NRMM">     4</i>
     <i name="TIME">      0.40000000</i>
    </separator>
   </separator>
   <separator name="electronic mixer" >
    <i name="AMIX">      0.40000000</i>
    <i name="BMIX">      1.00000000</i>
    <i name="AMIN">      0.10000000</i>
    <i name="AMIX_MAG">      1.60000000</i>
    <i name="BMIX_MAG">      1.00000000</i>
    <separator name="electronic mixer details" >
     <i type="int" name="IMIX">     4</i>
     <i type="logical" name="MIXFIRST"> F  </i>
     <i type="int" name="MAXMIX">   -45</i>
     <i name="WC">    100.00000000</i>
     <i type="int" name="INIMIX">     1</i>
     <i type="int" name="MIXPRE">     1</i>
     <i type="int" name="MREMOVE">     5</i>
    </separator>
   </separator>
   <separator name="electronic dipolcorrection" >
    <i type="logical" name="LDIPOL"> F  </i>
    <i type="logical" name="LMONO"> F  </i>
    <i type="int" name="IDIPOL">     0</i>
    <i name="EPSILON">      1.00000000</i>
    <v name="DIPOL">   -100.00000000   -100.00000000   -100.00000000</v>
    <i name="EFIELD">      0.00000000</i>
    <i type="logical" name="LVACPOTAV"> F  </i>
   </separator>
  </separator>
  <separator name="grids" >
   <i type="int" name="NGX">    16</i>
   <i type="int" name="NGY">    16</i>
   <i type="int" name="NGZ">    16</i>
   <i type="int" name="NGXF">    32</i>
   <i type="int" name="NGYF">    32</i>
   <i type="int" name="NGZF">    32</i>
   <i type="logical" name="ADDGRID"> F  </i>
  </separator>
  <separator name="ionic" >
   <i type="int" name="NSW">     1</i>
   <i type="int" name="IBRION">     2</i>
   <i type="int" name="MDALGO">     0</i>
   <i type="int" name="ISIF">     0</i>
   <i name="PSTRESS">      0.00000000</i>
   <i name="EDIFFG">      0.00010000</i>
   <i type="int" name="NFREE">     1</i>
   <i name="POTIM">      0.50000000</i>
   <i name="SMASS">     -3.00000000</i>
   <i name="SCALEE">      1.00000000</i>
  </separator>
  <separator name="ionic md" >
   <i name="TEBEG">      0.00010000</i>
   <i name="TEEND">      0.00010000</i>
   <i type="int" name="NBLOCK">     1</i>
   <i type="int" name="KBLOCK">     1</i>
   <i type="int" name="NPACO">   256</i>
   <i name="APACO">     10.00000000</i>
  </separator>
  <separator name="symmetry" >
   <i type="int" name="ISYM">     2</i>
   <i name="SYMPREC">      0.00001000</i>
  </separator>
  <separator name="dos" >
   <i type="int" name="LORBIT">    10</i>
   <v name="RWIGS">     -1.00000000     -1.00000000</v>
   <i type="int" name="NEDOS">   301</i>
   <i name="EMIN">     10.00000000</i>
   <i name="EMAX">    -10.00000000</i>
   <i name="EFERMI">      0.00000000</i>
  </separator>
  <separator name="writing" >
   <i type="int" name="NWRITE">     2</i>
   <i type="logical" name="LWAVE"> F  </i>
   <i type="logical" name="LDOWNSAMPLE"> F  </i>
   <i type="logical" name="LCHARG"> F  </i>
   <i type="logical" name="LPARD"> F  </i>
   <i type="logical" name="LVTOT"> F  </i>
   <i type="logical" name="LVHAR"> F  </i>
   <i type="logical" name="LELF"> F  </i>
   <i type="logical" name="LOPTICS"> F  </i>
   <v name="STM">      0.00000000      0.00000000      0.00000000      0.00000000      0.00000000      0.00000000      0.00000000</v>
  </separator>
  <separator name="performance" >
   <i type="int" name="NPAR">     1</i>
   <i type="int" name="NSIM">     4</i>
   <i type="int" name="NBLK">    -1</i>
   <i type="logical" name="LPLANE"> T  </i>
   <i type="logical" name="LSCALAPACK"> T  </i>
   <i type="logical" name="LSCAAWARE"> F  </i>
   <i type="logical" name="LSCALU"> F  </i>
   <i type="logical" name="LASYNC"> F  </i>
   <i type="logical" name="LORBITALREAL"> F  </i>
  </separator>
  <separator name="miscellaneous" >
   <i type="int" name="IDIOT">     3</i>
   <i type="int" name="PHON_NSTRUCT">    -1</i>
   <i type="logical" name="LMUSIC"> F  </i>
   <v name="POMASS">    132.90000000     35.45300000</v>
   <v name="DARWINR">      0.00000000      0.00000000</v>
   <v name="DARWINV">      1.00000000      1.00000000</v>
   <i type="logical" name="LCORR"> T  </i>
  </separator>
  <i type="logical" name="GGA_COMPAT"> T  </i>
  <i type="logical" name="LBERRY"> F  </i>
  <i type="int" name="ICORELEVEL">     0</i>
  <i type="logical" name="LDAU"> F  </i>
  <i type="int" name="I_CONSTRAINED_M">     0</i>
  <separator name="electronic exchange-correlation" >
   <i type="string" name="GGA    ">PS</i>
   <i type="string" name="XC_C">1</i>
   <i type="int" name="VOSKOWN">     0</i>
   <i type="logical" name="LHFCALC"> F  </i>
   <i type="string" name="PRECFOCK"></i>
   <i type="logical" name="LSYMGRAD"> F  </i>
   <i type="logical" name="LHFONE"> F  </i>
   <i type="logical" name="LRHFCALC"> F  </i>
   <i type="logical" name="LTHOMAS"> F  </i>
   <i type="logical" name="LMODELHF"> F  </i>
   <i type="logical" name="LFOCKACE"> F  </i>
   <i name="ENCUT4O">     -1.00000000</i>
   <i type="int" name="EXXOEP">     0</i>
   <i type="int" name="FOURORBIT">     0</i>
   <i name="AEXX">      0.00000000</i>
   <i name="HFALPHA">      0.00000000</i>
   <i name="MCALPHA">      0.00000000</i>
   <i name="ALDAX">      1.00000000</i>
   <i name="AGGAX">      1.00000000</i>
   <i name="AMGGAX">      1.00000000</i>
   <i name="ALDAC">      1.00000000</i>
   <i name="AGGAC">      1.00000000</i>
   <i name="AMGGAC">      1.00000000</i>
   <i type="int" name="NKREDX">     1</i>
   <i type="int" name="NKREDY">     1</i>
   <i type="int" name="NKREDZ">     1</i>
   <i type="logical" name="SHIFTRED"> F  </i>
   <i type="logical" name="ODDONLY"> F  </i>
   <i type="logical" name="EVENONLY"> F  </i>
   <i type="int" name="LMAXFOCK">     0</i>
   <i type="int" name="NMAXFOCKAE">     0</i>
   <i type="logical" name="LFOCKAEDFT"> F  </i>
   <i name="HFSCREEN">      0.00000000</i>
   <i name="HFSCREENC">      0.00000000</i>
   <i type="int" name="NBANDSGWLOW">     0</i>
  </separator>
  <separator name="vdW DFT" >
   <i type="logical" name="LUSE_VDW"> F  </i>
   <i type="int" name="IVDW_NL">    -1</i>
   <i type="logical" name="LSPIN_VDW"> F  </i>
   <i name="ZAB_VDW">     -0.84910000</i>
   <i name="GAMMA_VDW">      1.39626340</i>
   <i name="ALPHA_VDW">      0.00000000</i>
   <i name="PARAM1">      0.12340000</i>
   <i name="PARAM2">      1.00000000</i>
   <i name="BPARAM">      6.30000000</i>
   <i name="CPARAM">      0.00930000</i>
  </separator>
  <separator name="model GW" >
   <i type="int" name="MODEL_GW">     0</i>
   <i name="MODEL_EPS0">     20.30708224</i>
   <i name="MODEL_ALPHA">      1.00000000</i>
  </separator>
  <separator name="linear response parameters" >
   <i type="logical" name="LEPSILON"> F  </i>
   <i type="logical" name="LRPA"> F  </i>
   <i type="logical" name="LNABLA"> F  </i>
   <i type="logical" name="LVEL"> F  </i>
   <i name="CSHIFT">      0.10000000</i>
   <i name="OMEGAMAX">     -1.00000000</i>
   <i name="DEG_THRESHOLD">      0.00200000</i>
   <i name="RTIME">     -0.10000000</i>
   <i name="WPLASMAI">      0.00000000</i>
   <v name="DFIELD">      0.00000000      0.00000000      0.00000000</v>
   <v name="WPLASMA">      0.00000000      0.00000000      0.00000000      0.00000000      0.00000000      0.00000000      0.00000000      0.00000000      0.00000000</v>
  </separator>
  <separator name="orbital magnetization" >
   <i type="logical" name="NUCIND"> F  </i>
   <v name="MAGPOS">      0.00000000      0.00000000      0.00000000</v>
   <i type="logical" name="LNICSALL"> T  </i>
   <i type="logical" name="ORBITALMAG"> F  </i>
   <i type="logical" name="LMAGBLOCH"> F  </i>
   <i type="logical" name="LCHIMAG"> F  </i>
   <i type="logical" name="LGAUGE"> T  </i>
   <i type="int" name="MAGATOM">     0</i>
   <v name="MAGDIPOL">      0.00000000      0.00000000      0.00000000</v>
   <v name="AVECCONST">      0.00000000      0.00000000      0.00000000</v>
  </separator>
  <separator name="response functions" >
   <i type="logical" name="LALL_IN_ONE"> F  </i>
   <i type="int" name="IALL_IN_ONE">    -1</i>
   <i type="int" name="NBANDS_WAVE">    -1</i>
   <i type="logical" name="LFINITE_TEMPERATURE"> F  </i>
   <i type="logical" name="LADDER"> F  </i>
   <i type="logical" name="LRPAFORCE"> F  </i>
   <i type="logical" name="LFXC"> F  </i>
   <i type="logical" name="LHARTREE"> T  </i>
   <i type="int" name="IBSE">     2</i>
   <v type="int" name="KPOINT">    -1     0     0     0</v>
   <i type="logical" name="LTCTC"> F  </i>
   <i type="logical" name="LTCTE"> F  </i>
   <i type="logical" name="LTETE"> F  </i>
   <i type="logical" name="LTRIPLET"> F  </i>
   <i type="logical" name="LFXCEPS"> F  </i>
   <i type="logical" name="LFXHEG"> F  </i>
   <i type="int" name="NATURALO">     2</i>
   <i type="logical" name="LHOLEGF"> F  </i>
   <i type="logical" name="L2ORDER"> F  </i>
   <i type="logical" name="LDMP1"> F  </i>
   <i type="logical" name="LMP2LT"> F  </i>
   <i type="logical" name="LSMP2LT"> F  </i>
   <i type="logical" name="LGWLF"> F  </i>
   <i name="ENCUTGW">     -1.60000002</i>
   <i name="ENCUTGWSOFT">     -1.60000002</i>
   <i name="ENCUTLF">     -1.00000000</i>
   <i type="logical" name="ESF_SPLINES"> F  </i>
   <i name="ESF_CONV">      0.01000000</i>
   <i type="int" name="ESF_NINTER">    15</i>
   <i type="int" name="LMAXMP2">    -1</i>
   <i name="SCISSOR">      0.00000000</i>
   <i type="int" name="NOMEGA">     0</i>
   <i type="int" name="NOMEGAR">     0</i>
   <i type="int" name="NBANDSGW">    -1</i>
   <i type="int" name="NBANDSO">    -1</i>
   <i type="int" name="NBANDSV">    -1</i>
   <i type="int" name="NELMGW">     1</i>
   <i type="int" name="NELMHF">     1</i>
   <i type="int" name="DIM">     3</i>
   <i type="int" name="IESPILON">     4</i>
   <i type="int" name="ANTIRES">     0</i>
   <i name="OMEGAMAX">    -30.00000000</i>
   <i name="OMEGAMIN">    -30.00000000</i>
   <i name="OMEGATL">   -200.00000000</i>
   <i type="int" name="OMEGAGRID">     0</i>
   <i name="CSHIFT">     -0.10000000</i>
   <i type="logical" name="LSELFENERGY"> F  </i>
   <i type="logical" name="LSPECTRAL"> F  </i>
   <i type="logical" name="LSPECTRALGW"> F  </i>
   <i type="logical" name="LSINGLES"> F  </i>
   <i type="logical" name="LFERMIGW"> F  </i>
   <i type="logical" name="ODDONLYGW"> F  </i>
   <i type="logical" name="EVENONLYGW"> F  </i>
   <i type="int" name="NKREDLFX">     1</i>
   <i type="int" name="NKREDLFY">     1</i>
   <i type="int" name="NKREDLFZ">     1</i>
   <i type="int" name="MAXMEM">  2800</i>
   <i type="int" name="TELESCOPE">     0</i>
   <i type="int" name="NTAUPAR">    -1</i>
   <i type="int" name="NOMEGAPAR">    -1</i>
   <i name="DAMP_NEWTON">      0.80000001</i>
   <i name="LAMBDA">      1.00000000</i>
  </separator>
  <separator name="External order field" >
   <i name="OFIELD_KAPPA">      0.00000000</i>
   <v name="OFIELD_K">      0.00000000      0.00000000      0.00000000</v>
   <i name="OFIELD_Q6_NEAR">      0.00000000</i>
   <i name="OFIELD_Q6_FAR">      0.00000000</i>
   <i name="OFIELD_A">      0.00000000</i>
  </separator>
  <separator name="optional k-points parameters" >
   <i type="int" name="KPOINTS_OPT_MODE">     1</i>
   <i type="logical" name="LKPOINTS_OPT"> F  </i>
  </separator>
 </parameters>
 <atominfo>
  <atoms>       2 </atoms>
  <types>       2 </types>
  <array name="atoms" >
   <dimension dim="1">ion</dimension>
   <field type="string">element</field>
   <field type="int">atomtype</field>
   <set>
    <rc><c>Cs</c><c>   1</c></rc>
    <rc><c>Cl</c><c>   2</c></rc>
   </set>
  </array>
  <array name="atomtypes" >
   <dimension dim="1">type</dimension>
   <field type="int">atomspertype</field>
   <field type="string">element</field>
   <field>mass</field>
   <field>valence</field>
   <field type="string">pseudopotential</field>
   <set>
    <rc><c>   1</c><c>Cs</c><c>    132.90000000</c><c>      9.00000000</c><c>  PAW_PBE Cs_sv 08Apr2002               </c></rc>
    <rc><c>   1</c><c>Cl</c><c>     35.45300000</c><c>      7.00000000</c><c>  PAW_PBE Cl 06Sep2000                  </c></rc>
   </set>
  </array>
 </atominfo>
 <structure name="initialpos" >
  <crystal>
   <varray name="basis" >
    <v>       4.07544864       0.00000000       0.00000000 </v>
    <v>       0.00000000       4.07544864       0.00000000 </v>
    <v>       0.00000000       0.00000000       4.07544864 </v>
   </varray>
   <i name="volume">     67.69027413 </i>
   <varray name="rec_basis" >
    <v>       0.24537176       0.00000000       0.00000000 </v>
    <v>       0.00000000       0.24537176       0.00000000 </v>
    <v>       0.00000000       0.00000000       0.24537176 </v>
   </varray>
  </crystal>
  <varray name="positions" >
   <v>       0.00000000       0.00000000       0.00000000 </v>
   <v>       0.50000000       0.50000000       0.50000000 </v>
  </varray>
 </structure>
 <calculation>
  <scstep>
   <time name="dav">    2.30    2.66</time>
   <time name="total">    2.38    2.74</time>
   <energy>
    <i name="alphaZ">     54.34366693 </i>
    <i name="ewald">   -830.13603332 </i>
    <i name="hartreedc">   -126.29286671 </i>
    <i name="XCdc">     31.46207719 </i>
    <i name="pawpsdc">    749.47380581 </i>
    <i name="pawaedc">   -742.20009777 </i>
    <i name="eentropy">     -0.00000000 </i>
    <i name="bandstr">    -47.38455769 </i>
    <i name="atom">    964.39621982 </i>
    <i name="e_fr_energy">     53.66221425 </i>
    <i name="e_wo_entrp">     53.66221425 </i>
    <i name="e_0_energy">     53.66221425 </i>
   </energy>
  </scstep>
  <scstep>
   <time name="dav">    2.58    2.59</time>
   <time name="total">    2.58    2.59</time>
   <energy>
    <i name="e_fr_energy">     -4.12084667 </i>
    <i name="e_wo_entrp">     -4.12084667 </i>
    <i name="e_0_energy">     -4.12084667 </i>
   </energy>
  </scstep>
  <scstep>
   <time name="dav">    2.43    2.44</time>
   <time name="total">    2.43    2.44</time>
   <energy>
    <i name="e_fr_energy">     -7.17941950 </i>
    <i name="e_wo_entrp">     -7.17941950 </i>
    <i name="e_0_energy">     -7.17941950 </i>
   </energy>
  </scstep>
  <scstep>
   <time name="dav">    2.36    2.37</time>
   <time name="total">    2.36    2.37</time>
   <energy>
    <i name="e_fr_energy">     -7.19721557 </i>
    <i name="e_wo_entrp">     -7.19721557 </i>
    <i name="e_0_energy">     -7.19721557 </i>
   </energy>
  </scstep>
  <scstep>
   <time name="dav">    2.41    2.41</time>
   <time name="total">    2.75    2.77</time>
   <energy>
    <i name="e_fr_energy">     -7.19733829 </i>
    <i name="e_wo_entrp">     -7.19733829 </i>
    <i name="e_0_energy">     -7.19733829 </i>
   </energy>
  </scstep>
  <scstep>
   <time name="dav">    2.25    2.26</time>
   <time name="total">    2.45    2.46</time>
   <energy>
    <i name="e_fr_energy">     -6.89477490 </i>
    <i name="e_wo_entrp">     -6.89477490 </i>
    <i name="e_0_energy">     -6.89477490 </i>
   </energy>
  </scstep>
  <scstep>
   <time name="dav">    2.44    2.44</time>
   <time name="total">    2.64    2.65</time>
   <energy>
    <i name="e_fr_energy">     -6.85616239 </i>
    <i name="e_wo_entrp">     -6.85616239 </i>
    <i name="e_0_energy">     -6.85616239 </i>
   </energy>
  </scstep>
  <scstep>
   <time name="dav">    2.22    2.22</time>
   <time name="total">    2.42    2.42</time>
   <energy>
    <i name="e_fr_energy">     -6.85502744 </i>
    <i name="e_wo_entrp">     -6.85502744 </i>
    <i name="e_0_energy">     -6.85502744 </i>
   </energy>
  </scstep>
  <scstep>
   <time name="dav">    2.27    2.28</time>
   <time name="total">    2.47    2.48</time>
   <energy>
    <i name="e_fr_energy">     -6.85422217 </i>
    <i name="e_wo_entrp">     -6.85422217 </i>
    <i name="e_0_energy">     -6.85422217 </i>
   </energy>
  </scstep>
  <scstep>
   <time name="dav">    2.25    2.26</time>
   <time name="total">    2.45    2.46</time>
   <energy>
    <i name="e_fr_energy">     -6.85437476 </i>
    <i name="e_wo_entrp">     -6.85437476 </i>
    <i name="e_0_energy">     -6.85437476 </i>
   </energy>
  </scstep>
  <scstep>
   <time name="dav">    2.32    2.33</time>
   <time name="total">    2.52    2.53</time>
   <energy>
    <i name="e_fr_energy">     -6.85436372 </i>
    <i name="e_wo_entrp">     -6.85436372 </i>
    <i name="e_0_energy">     -6.85436372 </i>
   </energy>
  </scstep>
  <scstep>
   <time name="dav">    1.96    1.97</time>
   <time name="total">    2.01    2.02</time>
   <energy>
    <i name="alphaZ">     54.34366693 </i>
    <i name="ewald">   -830.13603332 </i>
    <i name="hartreedc">   -130.57785721 </i>
    <i name="XCdc">     31.91220825 </i>
    <i name="pawpsdc">    912.89037657 </i>
    <i name="pawaedc">   -905.94253712 </i>
    <i name="eentropy">     -0.00000000 </i>
    <i name="bandstr">   -103.74040770 </i>
    <i name="atom">    964.39621982 </i>
    <i name="e_fr_energy">     -6.85436379 </i>
    <i name="e_wo_entrp">     -6.85436379 </i>
    <i name="e_0_energy">     -6.85436379 </i>
   </energy>
  </scstep>
  <structure>
   <crystal>
    <varray name="basis" >
     <v>       4.07544864       0.00000000       0.00000000 </v>
     <v>       0.00000000       4.07544864       0.00000000 </v>
     <v>       0.00000000       0.00000000       4.07544864 </v>
    </varray>
    <i name="volume">     67.69027413 </i>
    <varray name="rec_basis" >
     <v>       0.24537176       0.00000000       0.00000000 </v>
     <v>       0.00000000       0.24537176       0.00000000 </v>
     <v>       0.00000000       0.00000000       0.24537176 </v>
    </varray>
   </crystal>
   <varray name="positions" >
    <v>       0.00000000       0.00000000       0.00000000 </v>
    <v>       0.50000000       0.50000000       0.50000000 </v>
   </varray>
  </structure>
  <varray name="forces" >
   <v>      -0.00000000       0.00000000       0.00000000 </v>
   <v>       0.00000000       0.00000000       0.00000000 </v>
  </varray>
  <energy>
   <i name="e_fr_energy">     -6.85436379 </i>
   <i name="e_wo_entrp">     -6.85436379 </i>
   <i name="e_0_energy">     -6.85436379 </i>
  </energy>
  <time name="totalsc">   30.25   30.81</time>
  <eigenvalues>
   <array>
    <dimension dim="1">band</dimension>
    <dimension dim="2">kpoint</dimension>
    <dimension dim="3">spin</dimension>
    <field>eigene</field>
    <field>occ</field>
    <set>
     <set comment="spin 1">
      <set comment="kpoint 1">
       <r>  -19.3786    1.0000 </r>
       <r>  -12.3169    1.0000 </r>
       <r>   -5.9817    1.0000 </r>
       <r>   -5.9817    1.0000 </r>
       <r>   -5.8377    1.0000 </r>
       <r>   -0.5295    1.0000 </r>
       <r>   -0.2304    1.0000 </r>
       <r>   -0.2304    1.0000 </r>
       <r>    5.8717    0.0000 </r>
       <r>    5.8717    0.0000 </r>
       <r>    6.1082    0.0000 </r>
       <r>    9.3474    0.0000 </r>
       <r>    9.3474    0.0000 </r>
       <r>   10.3256    0.0000 </r>
       <r>   12.6679    0.0000 </r>
       <r>   12.6679    0.0000 </r>
       <r>   12.9426    0.0000 </r>
       <r>   14.7358    0.0000 </r>
       <r>   14.7358    0.0000 </r>
       <r>   15.9878    0.0000 </r>
       <r>   17.6763    0.0000 </r>
      </set>
      <set comment="kpoint 2">
       <r>  -19.3130    1.0000 </r>
       <r>  -12.3232    1.0000 </r>
       <r>   -6.4272    1.0000 </r>
       <r>   -5.8813    1.0000 </r>
       <r>   -5.8486    1.0000 </r>
       <r>   -1.0252    1.0000 </r>
       <r>   -0.4760    1.0000 </r>
       <r>   -0.2685    1.0000 </r>
       <r>    6.4733    0.0000 </r>
       <r>    7.1546    0.0000 </r>
       <r>    7.7927    0.0000 </r>
       <r>    8.6516    0.0000 </r>
       <r>    9.4042    0.0000 </r>
       <r>    9.5892    0.0000 </r>
       <r>   11.0393    0.0000 </r>
       <r>   12.7070    0.0000 </r>
       <r>   13.1501    0.0000 </r>
       <r>   13.9052    0.0000 </r>
       <r>   14.9050    0.0000 </r>
       <r>   16.3675    0.0000 </r>
       <r>   17.3706    0.0000 </r>
      </set>
      <set comment="kpoint 3">
       <r>  -19.2545    1.0000 </r>
       <r>  -12.2405    1.0000 </r>
       <r>   -6.5853    1.0000 </r>
       <r>   -6.4969    1.0000 </r>
       <r>   -5.7752    1.0000 </r>
       <r>   -0.7864    1.0000 </r>
       <r>   -0.5880    1.0000 </r>
       <r>   -0.3340    1.0000 </r>
       <r>    6.4212    0.0000 </r>
       <r>    6.5706    0.0000 </r>
       <r>    8.0733    0.0000 </r>
       <r>    8.3336    0.0000 </r>
       <r>    9.7507    0.0000 </r>
       <r>   10.3583    0.0000 </r>
       <r>   12.2605    0.0000 </r>
       <r>   13.2998    0.0000 </r>
       <r>   13.7621    0.0000 </r>
       <r>   15.4119    0.0000 </r>
       <r>   16.2378    0.0000 </r>
       <r>   16.6876    0.0000 </r>
       <r>   17.4262    0.0000 </r>
      </set>
      <set comment="kpoint 4">
       <r>  -19.1995    1.0000 </r>
       <r>  -12.1664    1.0000 </r>
       <r>   -6.4371    1.0000 </r>
       <r>   -6.3951    1.0000 </r>
       <r>   -6.3951    1.0000 </r>
       <r>   -1.0908    1.0000 </r>
       <r>   -1.0908    1.0000 </r>
       <r>   -0.8290    1.0000 </r>
       <r>    7.4318    0.0000 </r>
       <r>    8.2975    0.0000 </r>
       <r>    8.2975    0.0000 </r>
       <r>    9.5040    0.0000 </r>
       <r>    9.5040    0.0000 </r>
       <r>    9.6544    0.0000 </r>
       <r>   13.4275    0.0000 </r>
       <r>   13.4275    0.0000 </r>
       <r>   15.3658    0.0000 </r>
       <r>   15.3658    0.0000 </r>
       <r>   16.2081    0.0000 </r>
       <r>   17.3871    0.0000 </r>
       <r>   18.1678    0.0000 </r>
      </set>
      <set comment="kpoint 5">
       <r>  -19.4190    1.0000 </r>
       <r>  -12.3051    1.0000 </r>
       <r>   -5.8640    1.0000 </r>
       <r>   -5.8640    1.0000 </r>
       <r>   -5.8640    1.0000 </r>
       <r>   -0.0844    1.0000 </r>
       <r>   -0.0844    1.0000 </r>
       <r>   -0.0844    1.0000 </r>
       <r>    5.1159    0.0000 </r>
       <r>    5.1363    0.0000 </r>
       <r>    5.1363    0.0000 </r>
       <r>   10.0423    0.0000 </r>
       <r>   10.0423    0.0000 </r>
       <r>   10.0423    0.0000 </r>
       <r>   13.2134    0.0000 </r>
       <r>   13.2134    0.0000 </r>
       <r>   15.5728    0.0000 </r>
       <r>   15.5728    0.0000 </r>
       <r>   15.6280    0.0000 </r>
       <r>   15.6345    0.0000 </r>
       <r>   15.6345    0.0000 </r>
      </set>
      <set comment="kpoint 6">
       <r>  -19.4190    1.0000 </r>
       <r>  -12.3053    1.0000 </r>
       <r>   -5.8660    1.0000 </r>
       <r>   -5.8636    1.0000 </r>
       <r>   -5.8636    1.0000 </r>
       <r>   -0.0934    1.0000 </r>
       <r>   -0.0885    1.0000 </r>
       <r>   -0.0885    1.0000 </r>
       <r>    5.1240    0.0000 </r>
       <r>    5.1378    0.0000 </r>
       <r>    5.1434    0.0000 </r>
       <r>   10.0377    0.0000 </r>
       <r>   10.0377    0.0000 </r>
       <r>   10.0430    0.0000 </r>
       <r>   13.1792    0.0000 </r>
       <r>   13.2140    0.0000 </r>
       <r>   15.5759    0.0000 </r>
       <r>   15.5759    0.0000 </r>
       <r>   15.6026    0.0000 </r>
       <r>   15.6026    0.0000 </r>
       <r>   15.6081    0.0000 </r>
      </set>
      <set comment="kpoint 7">
       <r>  -19.4182    1.0000 </r>
       <r>  -12.3058    1.0000 </r>
       <r>   -5.8720    1.0000 </r>
       <r>   -5.8622    1.0000 </r>
       <r>   -5.8622    1.0000 </r>
       <r>   -0.1083    1.0000 </r>
       <r>   -0.0909    1.0000 </r>
       <r>   -0.0909    1.0000 </r>
       <r>    5.1442    0.0000 </r>
       <r>    5.1477    0.0000 </r>
       <r>    5.1671    0.0000 </r>
       <r>   10.0281    0.0000 </r>
       <r>   10.0281    0.0000 </r>
       <r>   10.0486    0.0000 </r>
       <r>   13.0917    0.0000 </r>
       <r>   13.2268    0.0000 </r>
       <r>   15.4885    0.0000 </r>
       <r>   15.4885    0.0000 </r>
       <r>   15.5906    0.0000 </r>
       <r>   15.6240    0.0000 </r>
       <r>   15.6242    0.0000 </r>
      </set>
      <set comment="kpoint 8">
       <r>  -19.4168    1.0000 </r>
       <r>  -12.3065    1.0000 </r>
       <r>   -5.8817    1.0000 </r>
       <r>   -5.8599    1.0000 </r>
       <r>   -5.8599    1.0000 </r>
       <r>   -0.1325    1.0000 </r>
       <r>   -0.0949    1.0000 </r>
       <r>   -0.0949    1.0000 </r>
       <r>    5.1548    0.0000 </r>
       <r>    5.1856    0.0000 </r>
       <r>    5.2076    0.0000 </r>
       <r>   10.0126    0.0000 </r>
       <r>   10.0126    0.0000 </r>
       <r>   10.0578    0.0000 </r>
       <r>   12.9597    0.0000 </r>
       <r>   13.2479    0.0000 </r>
       <r>   15.3458    0.0000 </r>
       <r>   15.3458    0.0000 </r>
       <r>   15.5402    0.0000 </r>
       <r>   15.6813    0.0000 </r>
       <r>   15.6814    0.0000 </r>
      </set>
      <set comment="kpoint 9">
       <r>  -19.4149    1.0000 </r>
       <r>  -12.3076    1.0000 </r>
       <r>   -5.8952    1.0000 </r>
       <r>   -5.8566    1.0000 </r>
       <r>   -5.8566    1.0000 </r>
       <r>   -0.1655    1.0000 </r>
       <r>   -0.1003    1.0000 </r>
       <r>   -0.1003    1.0000 </r>
       <r>    5.1696    0.0000 </r>
       <r>    5.2362    0.0000 </r>
       <r>    5.2655    0.0000 </r>
       <r>    9.9916    0.0000 </r>
       <r>    9.9916    0.0000 </r>
       <r>   10.0707    0.0000 </r>
       <r>   12.7962    0.0000 </r>
       <r>   13.2771    0.0000 </r>
       <r>   15.1779    0.0000 </r>
       <r>   15.1779    0.0000 </r>
       <r>   15.4724    0.0000 </r>
       <r>   15.7616    0.0000 </r>
       <r>   15.7616    0.0000 </r>
      </set>
      <set comment="kpoint 10">
       <r>  -19.4125    1.0000 </r>
       <r>  -12.3089    1.0000 </r>
       <r>   -5.9120    1.0000 </r>
       <r>   -5.8526    1.0000 </r>
       <r>   -5.8526    1.0000 </r>
       <r>   -0.2066    1.0000 </r>
       <r>   -0.1071    1.0000 </r>
       <r>   -0.1071    1.0000 </r>
       <r>    5.1885    0.0000 </r>
       <r>    5.2985    0.0000 </r>
       <r>    5.3405    0.0000 </r>
       <r>    9.9659    0.0000 </r>
       <r>    9.9659    0.0000 </r>
       <r>   10.0872    0.0000 </r>
       <r>   12.6120    0.0000 </r>
       <r>   13.3141    0.0000 </r>
       <r>   14.9966    0.0000 </r>
       <r>   14.9966    0.0000 </r>
       <r>   15.3898    0.0000 </r>
       <r>   15.8634    0.0000 </r>
       <r>   15.8634    0.0000 </r>
      </set>
      <set comment="kpoint 11">
       <r>  -19.4097    1.0000 </r>
       <r>  -12.3105    1.0000 </r>
       <r>   -5.9323    1.0000 </r>
       <r>   -5.8477    1.0000 </r>
       <r>   -5.8477    1.0000 </r>
       <r>   -0.2568    1.0000 </r>
       <r>   -0.1155    1.0000 </r>
       <r>   -0.1155    1.0000 </r>
       <r>    5.2116    0.0000 </r>
       <r>    5.3719    0.0000 </r>
       <r>    5.4314    0.0000 </r>
       <r>    9.9359    0.0000 </r>
       <r>    9.9359    0.0000 </r>
       <r>   10.1072    0.0000 </r>
       <r>   12.4149    0.0000 </r>
       <r>   13.3543    0.0000 </r>
       <r>   14.8076    0.0000 </r>
       <r>   14.8076    0.0000 </r>
       <r>   15.2943    0.0000 </r>
       <r>   15.9858    0.0000 </r>
       <r>   15.9858    0.0000 </r>
      </set>
      <set comment="kpoint 12">
       <r>  -19.4064    1.0000 </r>
       <r>  -12.3125    1.0000 </r>
       <r>   -5.9551    1.0000 </r>
       <r>   -5.8421    1.0000 </r>
       <r>   -5.8421    1.0000 </r>
       <r>   -0.3111    1.0000 </r>
       <r>   -0.1250    1.0000 </r>
       <r>   -0.1250    1.0000 </r>
       <r>    5.2387    0.0000 </r>
       <r>    5.4558    0.0000 </r>
       <r>    5.5378    0.0000 </r>
       <r>    9.9034    0.0000 </r>
       <r>    9.9034    0.0000 </r>
       <r>   10.1307    0.0000 </r>
       <r>   12.2103    0.0000 </r>
       <r>   13.4047    0.0000 </r>
       <r>   14.6180    0.0000 </r>
       <r>   14.6180    0.0000 </r>
       <r>   15.1908    0.0000 </r>
       <r>   16.1278    0.0000 </r>
       <r>   16.1278    0.0000 </r>
      </set>
      <set comment="kpoint 13">
       <r>  -19.4026    1.0000 </r>
       <r>  -12.3146    1.0000 </r>
       <r>   -5.9803    1.0000 </r>
       <r>   -5.8357    1.0000 </r>
       <r>   -5.8357    1.0000 </r>
       <r>   -0.3705    1.0000 </r>
       <r>   -0.1357    1.0000 </r>
       <r>   -0.1357    1.0000 </r>
       <r>    5.2697    0.0000 </r>
       <r>    5.5491    0.0000 </r>
       <r>    5.6584    0.0000 </r>
       <r>    9.8690    0.0000 </r>
       <r>    9.8690    0.0000 </r>
       <r>   10.1575    0.0000 </r>
       <r>   12.0020    0.0000 </r>
       <r>   13.4600    0.0000 </r>
       <r>   14.4292    0.0000 </r>
       <r>   14.4292    0.0000 </r>
       <r>   15.0822    0.0000 </r>
       <r>   16.2880    0.0000 </r>
       <r>   16.4318    0.0000 </r>
      </set>
      <set comment="kpoint 14">
       <r>  -19.3985    1.0000 </r>
       <r>  -12.3170    1.0000 </r>
       <r>   -6.0075    1.0000 </r>
       <r>   -5.8287    1.0000 </r>
       <r>   -5.8287    1.0000 </r>
       <r>   -0.4340    1.0000 </r>
       <r>   -0.1474    1.0000 </r>
       <r>   -0.1474    1.0000 </r>
       <r>    5.3046    0.0000 </r>
       <r>    5.6506    0.0000 </r>
       <r>    5.7925    0.0000 </r>
       <r>    9.8334    0.0000 </r>
       <r>    9.8334    0.0000 </r>
       <r>   10.1876    0.0000 </r>
       <r>   11.7925    0.0000 </r>
       <r>   13.5181    0.0000 </r>
       <r>   14.2428    0.0000 </r>
       <r>   14.2428    0.0000 </r>
       <r>   14.9727    0.0000 </r>
       <r>   16.3032    0.0000 </r>
       <r>   16.4656    0.0000 </r>
      </set>
      <set comment="kpoint 15">
       <r>  -19.3941    1.0000 </r>
       <r>  -12.3197    1.0000 </r>
       <r>   -6.0364    1.0000 </r>
       <r>   -5.8211    1.0000 </r>
       <r>   -5.8211    1.0000 </r>
       <r>   -0.5004    1.0000 </r>
       <r>   -0.1601    1.0000 </r>
       <r>   -0.1601    1.0000 </r>
       <r>    5.3432    0.0000 </r>
       <r>    5.7594    0.0000 </r>
       <r>    5.9391    0.0000 </r>
       <r>    9.7976    0.0000 </r>
       <r>    9.7976    0.0000 </r>
       <r>   10.2208    0.0000 </r>
       <r>   11.5837    0.0000 </r>
       <r>   13.5758    0.0000 </r>
       <r>   14.0601    0.0000 </r>
       <r>   14.0601    0.0000 </r>
       <r>   14.8678    0.0000 </r>
       <r>   16.1476    0.0000 </r>
       <r>   16.6593    0.0000 </r>
      </set>
      <set comment="kpoint 16">
       <r>  -19.3894    1.0000 </r>
       <r>  -12.3225    1.0000 </r>
       <r>   -6.0664    1.0000 </r>
       <r>   -5.8131    1.0000 </r>
       <r>   -5.8131    1.0000 </r>
       <r>   -0.5688    1.0000 </r>
       <r>   -0.1736    1.0000 </r>
       <r>   -0.1736    1.0000 </r>
       <r>    5.3854    0.0000 </r>
       <r>    5.8742    0.0000 </r>
       <r>    6.0971    0.0000 </r>
       <r>    9.7623    0.0000 </r>
       <r>    9.7623    0.0000 </r>
       <r>   10.2569    0.0000 </r>
       <r>   11.3770    0.0000 </r>
       <r>   13.6277    0.0000 </r>
       <r>   13.8820    0.0000 </r>
       <r>   13.8820    0.0000 </r>
       <r>   14.7741    0.0000 </r>
       <r>   15.9898    0.0000 </r>
       <r>   16.8682    0.0000 </r>
      </set>
      <set comment="kpoint 17">
       <r>  -19.3844    1.0000 </r>
       <r>  -12.3255    1.0000 </r>
       <r>   -6.0972    1.0000 </r>
       <r>   -5.8046    1.0000 </r>
       <r>   -5.8046    1.0000 </r>
       <r>   -0.6373    1.0000 </r>
       <r>   -0.1878    1.0000 </r>
       <r>   -0.1878    1.0000 </r>
       <r>    5.4310    0.0000 </r>
       <r>    5.9945    0.0000 </r>
       <r>    6.2658    0.0000 </r>
       <r>    9.7283    0.0000 </r>
       <r>    9.7283    0.0000 </r>
       <r>   10.2957    0.0000 </r>
       <r>   11.1735    0.0000 </r>
       <r>   13.6695    0.0000 </r>
       <r>   13.7094    0.0000 </r>
       <r>   13.7094    0.0000 </r>
       <r>   14.7015    0.0000 </r>
       <r>   15.8313    0.0000 </r>
       <r>   17.0913    0.0000 </r>
      </set>
      <set comment="kpoint 18">
       <r>  -19.3793    1.0000 </r>
       <r>  -12.3287    1.0000 </r>
       <r>   -6.1284    1.0000 </r>
       <r>   -5.7958    1.0000 </r>
       <r>   -5.7958    1.0000 </r>
       <r>   -0.7071    1.0000 </r>
       <r>   -0.2025    1.0000 </r>
       <r>   -0.2025    1.0000 </r>
       <r>    5.4798    0.0000 </r>
       <r>    6.1176    0.0000 </r>
       <r>    6.4435    0.0000 </r>
       <r>    9.6958    0.0000 </r>
       <r>    9.6958    0.0000 </r>
       <r>   10.3370    0.0000 </r>
       <r>   10.9741    0.0000 </r>
       <r>   13.5426    0.0000 </r>
       <r>   13.5426    0.0000 </r>
       <r>   13.6857    0.0000 </r>
       <r>   14.6593    0.0000 </r>
       <r>   15.6735    0.0000 </r>
       <r>   17.3275    0.0000 </r>
      </set>
      <set comment="kpoint 19">
       <r>  -19.3741    1.0000 </r>
       <r>  -12.3320    1.0000 </r>
       <r>   -6.1596    1.0000 </r>
       <r>   -5.7869    1.0000 </r>
       <r>   -5.7869    1.0000 </r>
       <r>   -0.7763    1.0000 </r>
       <r>   -0.2175    1.0000 </r>
       <r>   -0.2175    1.0000 </r>
       <r>    5.5315    0.0000 </r>
       <r>    6.2432    0.0000 </r>
       <r>    6.6290    0.0000 </r>
       <r>    9.6656    0.0000 </r>
       <r>    9.6656    0.0000 </r>
       <r>   10.3805    0.0000 </r>
       <r>   10.7795    0.0000 </r>
       <r>   13.3822    0.0000 </r>
       <r>   13.3822    0.0000 </r>
       <r>   13.6726    0.0000 </r>
       <r>   14.6556    0.0000 </r>
       <r>   15.5175    0.0000 </r>
       <r>   17.5760    0.0000 </r>
      </set>
      <set comment="kpoint 20">
       <r>  -19.3689    1.0000 </r>
       <r>  -12.3354    1.0000 </r>
       <r>   -6.1903    1.0000 </r>
       <r>   -5.7778    1.0000 </r>
       <r>   -5.7778    1.0000 </r>
       <r>   -0.8441    1.0000 </r>
       <r>   -0.2327    1.0000 </r>
       <r>   -0.2327    1.0000 </r>
       <r>    5.5858    0.0000 </r>
       <r>    6.3702    0.0000 </r>
       <r>    6.8211    0.0000 </r>
       <r>    9.6379    0.0000 </r>
       <r>    9.6379    0.0000 </r>
       <r>   10.4259    0.0000 </r>
       <r>   10.5904    0.0000 </r>
       <r>   13.2288    0.0000 </r>
       <r>   13.2288    0.0000 </r>
       <r>   13.6305    0.0000 </r>
       <r>   14.6910    0.0000 </r>
       <r>   15.3646    0.0000 </r>
       <r>   17.8361    0.0000 </r>
      </set>
      <set comment="kpoint 21">
       <r>  -19.3637    1.0000 </r>
       <r>  -12.3388    1.0000 </r>
       <r>   -6.2204    1.0000 </r>
       <r>   -5.7688    1.0000 </r>
       <r>   -5.7688    1.0000 </r>
       <r>   -0.9101    1.0000 </r>
       <r>   -0.2491    1.0000 </r>
       <r>   -0.2491    1.0000 </r>
       <r>    5.6422    0.0000 </r>
       <r>    6.4972    0.0000 </r>
       <r>    7.0178    0.0000 </r>
       <r>    9.6129    0.0000 </r>
       <r>    9.6129    0.0000 </r>
       <r>   10.4048    0.0000 </r>
       <r>   10.4726    0.0000 </r>
       <r>   13.0815    0.0000 </r>
       <r>   13.0815    0.0000 </r>
       <r>   13.5661    0.0000 </r>
       <r>   14.7576    0.0000 </r>
       <r>   15.2144    0.0000 </r>
       <r>   18.1067    0.0000 </r>
      </set>
      <set comment="kpoint 22">
       <r>  -19.3585    1.0000 </r>
       <r>  -12.3422    1.0000 </r>
       <r>   -6.2492    1.0000 </r>
       <r>   -5.7598    1.0000 </r>
       <r>   -5.7598    1.0000 </r>
       <r>   -0.9725    1.0000 </r>
       <r>   -0.2641    1.0000 </r>
       <r>   -0.2641    1.0000 </r>
       <r>    5.7005    0.0000 </r>
       <r>    6.6240    0.0000 </r>
       <r>    7.2178    0.0000 </r>
       <r>    9.5909    0.0000 </r>
       <r>    9.5909    0.0000 </r>
       <r>   10.2288    0.0000 </r>
       <r>   10.5206    0.0000 </r>
       <r>   12.9436    0.0000 </r>
       <r>   12.9436    0.0000 </r>
       <r>   13.4911    0.0000 </r>
       <r>   14.8511    0.0000 </r>
       <r>   15.0705    0.0000 </r>
       <r>   18.3877    0.0000 </r>
      </set>
      <set comment="kpoint 23">
       <r>  -19.3535    1.0000 </r>
       <r>  -12.3456    1.0000 </r>
       <r>   -6.2768    1.0000 </r>
       <r>   -5.7511    1.0000 </r>
       <r>   -5.7511    1.0000 </r>
       <r>   -1.0326    1.0000 </r>
       <r>   -0.2788    1.0000 </r>
       <r>   -0.2788    1.0000 </r>
       <r>    5.7601    0.0000 </r>
       <r>    6.7477    0.0000 </r>
       <r>    7.4185    0.0000 </r>
       <r>    9.5719    0.0000 </r>
       <r>    9.5719    0.0000 </r>
       <r>   10.0605    0.0000 </r>
       <r>   10.5691    0.0000 </r>
       <r>   12.8139    0.0000 </r>
       <r>   12.8139    0.0000 </r>
       <r>   13.4110    0.0000 </r>
       <r>   14.9324    0.0000 </r>
       <r>   14.9509    0.0000 </r>
       <r>   18.4936    0.0000 </r>
      </set>
      <set comment="kpoint 24">
       <r>  -19.3486    1.0000 </r>
       <r>  -12.3489    1.0000 </r>
       <r>   -6.3028    1.0000 </r>
       <r>   -5.7427    1.0000 </r>
       <r>   -5.7427    1.0000 </r>
       <r>   -1.0886    1.0000 </r>
       <r>   -0.2926    1.0000 </r>
       <r>   -0.2926    1.0000 </r>
       <r>    5.8204    0.0000 </r>
       <r>    6.8682    0.0000 </r>
       <r>    7.6177    0.0000 </r>
       <r>    9.5559    0.0000 </r>
       <r>    9.5559    0.0000 </r>
       <r>    9.9006    0.0000 </r>
       <r>   10.6178    0.0000 </r>
       <r>   12.6938    0.0000 </r>
       <r>   12.6938    0.0000 </r>
       <r>   13.3340    0.0000 </r>
       <r>   14.8029    0.0000 </r>
       <r>   15.0511    0.0000 </r>
       <r>   18.1515    0.0000 </r>
      </set>
      <set comment="kpoint 25">
       <r>  -19.3441    1.0000 </r>
       <r>  -12.3521    1.0000 </r>
       <r>   -6.3270    1.0000 </r>
       <r>   -5.7347    1.0000 </r>
       <r>   -5.7347    1.0000 </r>
       <r>   -1.1410    1.0000 </r>
       <r>   -0.3061    1.0000 </r>
       <r>   -0.3061    1.0000 </r>
       <r>    5.8805    0.0000 </r>
       <r>    6.9837    0.0000 </r>
       <r>    7.8127    0.0000 </r>
       <r>    9.5426    0.0000 </r>
       <r>    9.5426    0.0000 </r>
       <r>    9.7501    0.0000 </r>
       <r>   10.6657    0.0000 </r>
       <r>   12.5823    0.0000 </r>
       <r>   12.5823    0.0000 </r>
       <r>   13.2650    0.0000 </r>
       <r>   14.6795    0.0000 </r>
       <r>   15.1396    0.0000 </r>
       <r>   17.8506    0.0000 </r>
      </set>
      <set comment="kpoint 26">
       <r>  -19.3398    1.0000 </r>
       <r>  -12.3551    1.0000 </r>
       <r>   -6.3490    1.0000 </r>
       <r>   -5.7271    1.0000 </r>
       <r>   -5.7271    1.0000 </r>
       <r>   -1.1878    1.0000 </r>
       <r>   -0.3183    1.0000 </r>
       <r>   -0.3183    1.0000 </r>
       <r>    5.9396    0.0000 </r>
       <r>    7.0938    0.0000 </r>
       <r>    8.0004    0.0000 </r>
       <r>    9.5325    0.0000 </r>
       <r>    9.5325    0.0000 </r>
       <r>    9.6100    0.0000 </r>
       <r>   10.7122    0.0000 </r>
       <r>   12.4825    0.0000 </r>
       <r>   12.4825    0.0000 </r>
       <r>   13.2084    0.0000 </r>
       <r>   14.5652    0.0000 </r>
       <r>   15.2046    0.0000 </r>
       <r>   17.6056    0.0000 </r>
      </set>
      <set comment="kpoint 27">
       <r>  -19.3359    1.0000 </r>
       <r>  -12.3578    1.0000 </r>
       <r>   -6.3689    1.0000 </r>
       <r>   -5.7203    1.0000 </r>
       <r>   -5.7203    1.0000 </r>
       <r>   -1.2308    1.0000 </r>
       <r>   -0.3298    1.0000 </r>
       <r>   -0.3298    1.0000 </r>
       <r>    5.9966    0.0000 </r>
       <r>    7.1955    0.0000 </r>
       <r>    8.1774    0.0000 </r>
       <r>    9.4812    0.0000 </r>
       <r>    9.5241    0.0000 </r>
       <r>    9.5241    0.0000 </r>
       <r>   10.7564    0.0000 </r>
       <r>   12.3911    0.0000 </r>
       <r>   12.3911    0.0000 </r>
       <r>   13.1667    0.0000 </r>
       <r>   14.4604    0.0000 </r>
       <r>   15.2227    0.0000 </r>
       <r>   17.4337    0.0000 </r>
      </set>
      <set comment="kpoint 28">
       <r>  -19.3324    1.0000 </r>
       <r>  -12.3603    1.0000 </r>
       <r>   -6.3864    1.0000 </r>
       <r>   -5.7142    1.0000 </r>
       <r>   -5.7142    1.0000 </r>
       <r>   -1.2685    1.0000 </r>
       <r>   -0.3401    1.0000 </r>
       <r>   -0.3401    1.0000 </r>
       <r>    6.0503    0.0000 </r>
       <r>    7.2883    0.0000 </r>
       <r>    8.3405    0.0000 </r>
       <r>    9.3652    0.0000 </r>
       <r>    9.5177    0.0000 </r>
       <r>    9.5177    0.0000 </r>
       <r>   10.7975    0.0000 </r>
       <r>   12.3106    0.0000 </r>
       <r>   12.3106    0.0000 </r>
       <r>   13.1428    0.0000 </r>
       <r>   14.3665    0.0000 </r>
       <r>   15.1856    0.0000 </r>
       <r>   17.3501    0.0000 </r>
      </set>
      <set comment="kpoint 29">
       <r>  -19.3294    1.0000 </r>
       <r>  -12.3625    1.0000 </r>
       <r>   -6.4014    1.0000 </r>
       <r>   -5.7089    1.0000 </r>
       <r>   -5.7089    1.0000 </r>
       <r>   -1.3014    1.0000 </r>
       <r>   -0.3494    1.0000 </r>
       <r>   -0.3494    1.0000 </r>
       <r>    6.0994    0.0000 </r>
       <r>    7.3701    0.0000 </r>
       <r>    8.4855    0.0000 </r>
       <r>    9.2626    0.0000 </r>
       <r>    9.5131    0.0000 </r>
       <r>    9.5131    0.0000 </r>
       <r>   10.8345    0.0000 </r>
       <r>   12.2399    0.0000 </r>
       <r>   12.2399    0.0000 </r>
       <r>   13.1379    0.0000 </r>
       <r>   14.2846    0.0000 </r>
       <r>   15.0922    0.0000 </r>
       <r>   17.3558    0.0000 </r>
      </set>
      <set comment="kpoint 30">
       <r>  -19.3270    1.0000 </r>
       <r>  -12.3643    1.0000 </r>
       <r>   -6.4138    1.0000 </r>
       <r>   -5.7044    1.0000 </r>
       <r>   -5.7044    1.0000 </r>
       <r>   -1.3290    1.0000 </r>
       <r>   -0.3571    1.0000 </r>
       <r>   -0.3571    1.0000 </r>
       <r>    6.1424    0.0000 </r>
       <r>    7.4396    0.0000 </r>
       <r>    8.6093    0.0000 </r>
       <r>    9.1763    0.0000 </r>
       <r>    9.5100    0.0000 </r>
       <r>    9.5100    0.0000 </r>
       <r>   10.8664    0.0000 </r>
       <r>   12.1812    0.0000 </r>
       <r>   12.1812    0.0000 </r>
       <r>   13.1512    0.0000 </r>
       <r>   14.2153    0.0000 </r>
       <r>   14.9603    0.0000 </r>
       <r>   17.4383    0.0000 </r>
      </set>
      <set comment="kpoint 31">
       <r>  -19.3250    1.0000 </r>
       <r>  -12.3658    1.0000 </r>
       <r>   -6.4236    1.0000 </r>
       <r>   -5.7009    1.0000 </r>
       <r>   -5.7009    1.0000 </r>
       <r>   -1.3501    1.0000 </r>
       <r>   -0.3630    1.0000 </r>
       <r>   -0.3630    1.0000 </r>
       <r>    6.1779    0.0000 </r>
       <r>    7.4956    0.0000 </r>
       <r>    8.7089    0.0000 </r>
       <r>    9.1071    0.0000 </r>
       <r>    9.5079    0.0000 </r>
       <r>    9.5079    0.0000 </r>
       <r>   10.8925    0.0000 </r>
       <r>   12.1360    0.0000 </r>
       <r>   12.1360    0.0000 </r>
       <r>   13.1795    0.0000 </r>
       <r>   14.1605    0.0000 </r>
       <r>   14.8166    0.0000 </r>
       <r>   17.5801    0.0000 </r>
      </set>
      <set comment="kpoint 32">
       <r>  -19.3235    1.0000 </r>
       <r>  -12.3668    1.0000 </r>
       <r>   -6.4305    1.0000 </r>
       <r>   -5.6982    1.0000 </r>
       <r>   -5.6982    1.0000 </r>
       <r>   -1.3646    1.0000 </r>
       <r>   -0.3667    1.0000 </r>
       <r>   -0.3667    1.0000 </r>
       <r>    6.2045    0.0000 </r>
       <r>    7.5372    0.0000 </r>
       <r>    8.7817    0.0000 </r>
       <r>    9.0573    0.0000 </r>
       <r>    9.5070    0.0000 </r>
       <r>    9.5070    0.0000 </r>
       <r>   10.9118    0.0000 </r>
       <r>   12.1061    0.0000 </r>
       <r>   12.1061    0.0000 </r>
       <r>   13.2149    0.0000 </r>
       <r>   14.1213    0.0000 </r>
       <r>   14.6867    0.0000 </r>
       <r>   17.7648    0.0000 </r>
      </set>
      <set comment="kpoint 33">
       <r>  -19.3226    1.0000 </r>
       <r>  -12.3675    1.0000 </r>
       <r>   -6.4347    1.0000 </r>
       <r>   -5.6967    1.0000 </r>
       <r>   -5.6967    1.0000 </r>
       <r>   -1.3731    1.0000 </r>
       <r>   -0.3691    1.0000 </r>
       <r>   -0.3691    1.0000 </r>
       <r>    6.2209    0.0000 </r>
       <r>    7.5628    0.0000 </r>
       <r>    8.8262    0.0000 </r>
       <r>    9.0266    0.0000 </r>
       <r>    9.5064    0.0000 </r>
       <r>    9.5064    0.0000 </r>
       <r>   10.9236    0.0000 </r>
       <r>   12.0876    0.0000 </r>
       <r>   12.0876    0.0000 </r>
       <r>   13.2452    0.0000 </r>
       <r>   14.0971    0.0000 </r>
       <r>   14.5957    0.0000 </r>
       <r>   17.9815    0.0000 </r>
      </set>
      <set comment="kpoint 34">
       <r>  -19.3223    1.0000 </r>
       <r>  -12.3677    1.0000 </r>
       <r>   -6.4361    1.0000 </r>
       <r>   -5.6962    1.0000 </r>
       <r>   -5.6962    1.0000 </r>
       <r>   -1.3761    1.0000 </r>
       <r>   -0.3700    1.0000 </r>
       <r>   -0.3700    1.0000 </r>
       <r>    6.2265    0.0000 </r>
       <r>    7.5712    0.0000 </r>
       <r>    8.8411    0.0000 </r>
       <r>    9.0162    0.0000 </r>
       <r>    9.5062    0.0000 </r>
       <r>    9.5062    0.0000 </r>
       <r>   10.9276    0.0000 </r>
       <r>   12.0811    0.0000 </r>
       <r>   12.0811    0.0000 </r>
       <r>   13.2573    0.0000 </r>
       <r>   14.0890    0.0000 </r>
       <r>   14.5624    0.0000 </r>
       <r>   18.1969    0.0000 </r>
      </set>
      <set comment="kpoint 35">
       <r>  -19.3220    1.0000 </r>
       <r>  -12.3673    1.0000 </r>
       <r>   -6.4369    1.0000 </r>
       <r>   -5.6999    1.0000 </r>
       <r>   -5.6959    1.0000 </r>
       <r>   -1.3731    1.0000 </r>
       <r>   -0.3707    1.0000 </r>
       <r>   -0.3694    1.0000 </r>
       <r>    6.2307    0.0000 </r>
       <r>    7.5712    0.0000 </r>
       <r>    8.8069    0.0000 </r>
       <r>    9.0040    0.0000 </r>
       <r>    9.4991    0.0000 </r>
       <r>    9.5605    0.0000 </r>
       <r>   10.8860    0.0000 </r>
       <r>   12.0790    0.0000 </r>
       <r>   12.1281    0.0000 </r>
       <r>   13.2630    0.0000 </r>
       <r>   14.0995    0.0000 </r>
       <r>   14.5685    0.0000 </r>
       <r>   18.1951    0.0000 </r>
      </set>
      <set comment="kpoint 36">
       <r>  -19.3214    1.0000 </r>
       <r>  -12.3660    1.0000 </r>
       <r>   -6.4394    1.0000 </r>
       <r>   -5.7112    1.0000 </r>
       <r>   -5.6950    1.0000 </r>
       <r>   -1.3643    1.0000 </r>
       <r>   -0.3747    1.0000 </r>
       <r>   -0.3679    1.0000 </r>
       <r>    6.2429    0.0000 </r>
       <r>    7.5710    0.0000 </r>
       <r>    8.7034    0.0000 </r>
       <r>    9.0031    0.0000 </r>
       <r>    9.4780    0.0000 </r>
       <r>    9.6869    0.0000 </r>
       <r>   10.7772    0.0000 </r>
       <r>   12.0705    0.0000 </r>
       <r>   12.2533    0.0000 </r>
       <r>   13.2797    0.0000 </r>
       <r>   14.1282    0.0000 </r>
       <r>   14.5863    0.0000 </r>
       <r>   18.2114    0.0000 </r>
      </set>
      <set comment="kpoint 37">
       <r>  -19.3203    1.0000 </r>
       <r>  -12.3639    1.0000 </r>
       <r>   -6.4435    1.0000 </r>
       <r>   -5.7296    1.0000 </r>
       <r>   -5.6936    1.0000 </r>
       <r>   -1.3497    1.0000 </r>
       <r>   -0.3787    1.0000 </r>
       <r>   -0.3652    1.0000 </r>
       <r>    6.2624    0.0000 </r>
       <r>    7.5721    0.0000 </r>
       <r>    8.5590    0.0000 </r>
       <r>    9.0298    0.0000 </r>
       <r>    9.4439    0.0000 </r>
       <r>    9.8437    0.0000 </r>
       <r>   10.6294    0.0000 </r>
       <r>   12.0609    0.0000 </r>
       <r>   12.4284    0.0000 </r>
       <r>   13.3062    0.0000 </r>
       <r>   14.1797    0.0000 </r>
       <r>   14.6163    0.0000 </r>
       <r>   18.1757    0.0000 </r>
      </set>
      <set comment="kpoint 38">
       <r>  -19.3187    1.0000 </r>
       <r>  -12.3609    1.0000 </r>
       <r>   -6.4492    1.0000 </r>
       <r>   -5.7548    1.0000 </r>
       <r>   -5.6917    1.0000 </r>
       <r>   -1.3293    1.0000 </r>
       <r>   -0.3839    1.0000 </r>
       <r>   -0.3624    1.0000 </r>
       <r>    6.2874    0.0000 </r>
       <r>    7.5765    0.0000 </r>
       <r>    8.3981    0.0000 </r>
       <r>    9.0755    0.0000 </r>
       <r>    9.3973    0.0000 </r>
       <r>   10.0125    0.0000 </r>
       <r>   10.4629    0.0000 </r>
       <r>   12.0507    0.0000 </r>
       <r>   12.6332    0.0000 </r>
       <r>   13.3404    0.0000 </r>
       <r>   14.2483    0.0000 </r>
       <r>   14.6583    0.0000 </r>
       <r>   18.1208    0.0000 </r>
      </set>
      <set comment="kpoint 39">
       <r>  -19.3167    1.0000 </r>
       <r>  -12.3572    1.0000 </r>
       <r>   -6.4564    1.0000 </r>
       <r>   -5.7862    1.0000 </r>
       <r>   -5.6892    1.0000 </r>
       <r>   -1.3038    1.0000 </r>
       <r>   -0.3892    1.0000 </r>
       <r>   -0.3576    1.0000 </r>
       <r>    6.3156    0.0000 </r>
       <r>    7.5866    0.0000 </r>
       <r>    8.2326    0.0000 </r>
       <r>    9.1389    0.0000 </r>
       <r>    9.3403    0.0000 </r>
       <r>   10.1862    0.0000 </r>
       <r>   10.2885    0.0000 </r>
       <r>   12.0409    0.0000 </r>
       <r>   12.8567    0.0000 </r>
       <r>   13.3802    0.0000 </r>
       <r>   14.3373    0.0000 </r>
       <r>   14.7129    0.0000 </r>
       <r>   18.0552    0.0000 </r>
      </set>
      <set comment="kpoint 40">
       <r>  -19.3142    1.0000 </r>
       <r>  -12.3527    1.0000 </r>
       <r>   -6.4651    1.0000 </r>
       <r>   -5.8234    1.0000 </r>
       <r>   -5.6862    1.0000 </r>
       <r>   -1.2735    1.0000 </r>
       <r>   -0.3963    1.0000 </r>
       <r>   -0.3517    1.0000 </r>
       <r>    6.3442    0.0000 </r>
       <r>    7.6056    0.0000 </r>
       <r>    8.0658    0.0000 </r>
       <r>    9.2151    0.0000 </r>
       <r>    9.2742    0.0000 </r>
       <r>   10.1123    0.0000 </r>
       <r>   10.3614    0.0000 </r>
       <r>   12.0328    0.0000 </r>
       <r>   13.0927    0.0000 </r>
       <r>   13.4233    0.0000 </r>
       <r>   14.4417    0.0000 </r>
       <r>   14.7791    0.0000 </r>
       <r>   17.9757    0.0000 </r>
      </set>
      <set comment="kpoint 41">
       <r>  -19.3114    1.0000 </r>
       <r>  -12.3475    1.0000 </r>
       <r>   -6.4751    1.0000 </r>
       <r>   -5.8655    1.0000 </r>
       <r>   -5.6827    1.0000 </r>
       <r>   -1.2394    1.0000 </r>
       <r>   -0.4046    1.0000 </r>
       <r>   -0.3450    1.0000 </r>
       <r>    6.3695    0.0000 </r>
       <r>    7.6374    0.0000 </r>
       <r>    7.9002    0.0000 </r>
       <r>    9.2004    0.0000 </r>
       <r>    9.3042    0.0000 </r>
       <r>    9.9375    0.0000 </r>
       <r>   10.5363    0.0000 </r>
       <r>   12.0258    0.0000 </r>
       <r>   13.3379    0.0000 </r>
       <r>   13.4667    0.0000 </r>
       <r>   14.5607    0.0000 </r>
       <r>   14.8568    0.0000 </r>
       <r>   17.8842    0.0000 </r>
      </set>
      <set comment="kpoint 42">
       <r>  -19.3083    1.0000 </r>
       <r>  -12.3417    1.0000 </r>
       <r>   -6.4864    1.0000 </r>
       <r>   -5.9119    1.0000 </r>
       <r>   -5.6788    1.0000 </r>
       <r>   -1.2020    1.0000 </r>
       <r>   -0.4135    1.0000 </r>
       <r>   -0.3374    1.0000 </r>
       <r>    6.3882    0.0000 </r>
       <r>    7.6858    0.0000 </r>
       <r>    7.7372    0.0000 </r>
       <r>    9.1207    0.0000 </r>
       <r>    9.4058    0.0000 </r>
       <r>    9.7660    0.0000 </r>
       <r>   10.7099    0.0000 </r>
       <r>   12.0221    0.0000 </r>
       <r>   13.5086    0.0000 </r>
       <r>   13.5901    0.0000 </r>
       <r>   14.6926    0.0000 </r>
       <r>   14.9455    0.0000 </r>
       <r>   17.7818    0.0000 </r>
      </set>
      <set comment="kpoint 43">
       <r>  -19.3048    1.0000 </r>
       <r>  -12.3353    1.0000 </r>
       <r>   -6.4989    1.0000 </r>
       <r>   -5.9618    1.0000 </r>
       <r>   -5.6746    1.0000 </r>
       <r>   -1.1621    1.0000 </r>
       <r>   -0.4230    1.0000 </r>
       <r>   -0.3296    1.0000 </r>
       <r>    6.3973    0.0000 </r>
       <r>    7.5775    0.0000 </r>
       <r>    7.7539    0.0000 </r>
       <r>    9.0362    0.0000 </r>
       <r>    9.5187    0.0000 </r>
       <r>    9.5984    0.0000 </r>
       <r>   10.8814    0.0000 </r>
       <r>   12.0225    0.0000 </r>
       <r>   13.5466    0.0000 </r>
       <r>   13.8457    0.0000 </r>
       <r>   14.8358    0.0000 </r>
       <r>   15.0448    0.0000 </r>
       <r>   17.6696    0.0000 </r>
      </set>
      <set comment="kpoint 44">
       <r>  -19.3011    1.0000 </r>
       <r>  -12.3284    1.0000 </r>
       <r>   -6.5124    1.0000 </r>
       <r>   -6.0144    1.0000 </r>
       <r>   -5.6699    1.0000 </r>
       <r>   -1.1197    1.0000 </r>
       <r>   -0.4321    1.0000 </r>
       <r>   -0.3206    1.0000 </r>
       <r>    6.3952    0.0000 </r>
       <r>    7.4222    0.0000 </r>
       <r>    7.8444    0.0000 </r>
       <r>    8.9489    0.0000 </r>
       <r>    9.4370    0.0000 </r>
       <r>    9.6440    0.0000 </r>
       <r>   11.0506    0.0000 </r>
       <r>   12.0278    0.0000 </r>
       <r>   13.5792    0.0000 </r>
       <r>   14.1078    0.0000 </r>
[...]
        <r>  0.0000  0.0000  0.0000 </r>
        <r>  0.0000  0.0000  0.0000 </r>
       </set>
       <set comment="band 21">
        <r>  0.0000  0.0001  0.2144 </r>
        <r>  0.0003  0.0019  0.0000 </r>
       </set>
      </set>
      <set comment="kpoint 223">
       <set comment="band 1">
        <r>  0.9794  0.0000  0.0000 </r>
        <r>  0.0000  0.0000  0.0000 </r>
       </set>
       <set comment="band 2">
        <r>  0.0000  0.0000  0.0008 </r>
        <r>  0.7887  0.0000  0.0000 </r>
       </set>
       <set comment="band 3">
        <r>  0.0000  0.6907  0.0000 </r>
        <r>  0.0000  0.0175  0.0000 </r>
       </set>
       <set comment="band 4">
        <r>  0.0000  0.6907  0.0000 </r>
        <r>  0.0000  0.0175  0.0000 </r>
       </set>
       <set comment="band 5">
        <r>  0.0002  0.8134  0.0002 </r>
        <r>  0.0000  0.0000  0.0000 </r>
       </set>
       <set comment="band 6">
        <r>  0.0000  0.0766  0.0023 </r>
        <r>  0.0000  0.5620  0.0000 </r>
       </set>
       <set comment="band 7">
        <r>  0.0000  0.0766  0.0023 </r>
        <r>  0.0000  0.5620  0.0000 </r>
       </set>
       <set comment="band 8">
        <r>  0.0000  0.0000  0.0033 </r>
        <r>  0.0008  0.6381  0.0000 </r>
       </set>
       <set comment="band 9">
        <r>  0.0450  0.0134  0.1607 </r>
        <r>  0.0000  0.0000  0.0000 </r>
       </set>
       <set comment="band 10">
        <r>  0.0000  0.0000  0.1930 </r>
        <r>  0.0502  0.0294  0.0000 </r>
       </set>
       <set comment="band 11">
        <r>  0.0000  0.0028  0.2740 </r>
        <r>  0.0000  0.0196  0.0000 </r>
       </set>
       <set comment="band 12">
        <r>  0.0000  0.0028  0.2740 </r>
        <r>  0.0000  0.0196  0.0000 </r>
       </set>
       <set comment="band 13">
        <r>  0.0000  0.1550  0.0030 </r>
        <r>  0.0000  0.1595  0.0000 </r>
       </set>
       <set comment="band 14">
        <r>  0.0000  0.1550  0.0030 </r>
        <r>  0.0000  0.1595  0.0000 </r>
       </set>
       <set comment="band 15">
        <r>  0.0000  0.0000  0.5602 </r>
        <r>  0.0000  0.0000  0.0000 </r>
       </set>
       <set comment="band 16">
        <r>  0.0670  0.0014  0.2810 </r>
        <r>  0.0000  0.0000  0.0000 </r>
       </set>
       <set comment="band 17">
        <r>  0.0000  0.0000  0.1410 </r>
        <r>  0.0057  0.0002  0.0000 </r>
       </set>
       <set comment="band 18">
        <r>  0.0000  0.0160  0.0084 </r>
        <r>  0.0000  0.0360  0.0000 </r>
       </set>
       <set comment="band 19">
        <r>  0.0000  0.0160  0.0084 </r>
        <r>  0.0000  0.0360  0.0000 </r>
       </set>
       <set comment="band 20">
        <r>  0.0000  0.0000  0.0000 </r>
        <r>  0.0000  0.0000  0.0000 </r>
       </set>
       <set comment="band 21">
        <r>  0.0000  0.0000  0.2244 </r>
        <r>  0.0000  0.0010  0.0000 </r>
       </set>
      </set>
      <set comment="kpoint 224">
       <set comment="band 1">
        <r>  0.9796  0.0000  0.0000 </r>
        <r>  0.0000  0.0000  0.0000 </r>
       </set>
       <set comment="band 2">
        <r>  0.0000  0.0000  0.0008 </r>
        <r>  0.7885  0.0000  0.0000 </r>
       </set>
       <set comment="band 3">
        <r>  0.0000  0.6893  0.0000 </r>
        <r>  0.0000  0.0180  0.0000 </r>
       </set>
       <set comment="band 4">
        <r>  0.0000  0.6893  0.0000 </r>
        <r>  0.0000  0.0180  0.0000 </r>
       </set>
       <set comment="band 5">
        <r>  0.0002  0.8166  0.0001 </r>
        <r>  0.0000  0.0000  0.0000 </r>
       </set>
       <set comment="band 6">
        <r>  0.0000  0.0790  0.0016 </r>
        <r>  0.0000  0.5643  0.0000 </r>
       </set>
       <set comment="band 7">
        <r>  0.0000  0.0790  0.0016 </r>
        <r>  0.0000  0.5643  0.0000 </r>
       </set>
       <set comment="band 8">
        <r>  0.0000  0.0000  0.0024 </r>
        <r>  0.0006  0.6452  0.0000 </r>
       </set>
       <set comment="band 9">
        <r>  0.0457  0.0095  0.1612 </r>
        <r>  0.0000  0.0000  0.0000 </r>
       </set>
       <set comment="band 10">
        <r>  0.0000  0.0000  0.1923 </r>
        <r>  0.0515  0.0211  0.0000 </r>
       </set>
       <set comment="band 11">
        <r>  0.0000  0.0020  0.2758 </r>
        <r>  0.0000  0.0138  0.0000 </r>
       </set>
       <set comment="band 12">
        <r>  0.0000  0.0020  0.2758 </r>
        <r>  0.0000  0.0138  0.0000 </r>
       </set>
       <set comment="band 13">
        <r>  0.0000  0.1541  0.0021 </r>
        <r>  0.0000  0.1640  0.0000 </r>
       </set>
       <set comment="band 14">
        <r>  0.0000  0.1541  0.0021 </r>
        <r>  0.0000  0.1640  0.0000 </r>
       </set>
       <set comment="band 15">
        <r>  0.0000  0.0000  0.5597 </r>
        <r>  0.0000  0.0000  0.0000 </r>
       </set>
       <set comment="band 16">
        <r>  0.0677  0.0010  0.2789 </r>
        <r>  0.0000  0.0000  0.0000 </r>
       </set>
       <set comment="band 17">
        <r>  0.0000  0.0000  0.1424 </r>
        <r>  0.0058  0.0002  0.0000 </r>
       </set>
       <set comment="band 18">
        <r>  0.0000  0.0171  0.0060 </r>
        <r>  0.0000  0.0360  0.0000 </r>
       </set>
       <set comment="band 19">
        <r>  0.0000  0.0171  0.0060 </r>
        <r>  0.0000  0.0360  0.0000 </r>
       </set>
       <set comment="band 20">
        <r>  0.0000  0.0000  0.0000 </r>
        <r>  0.0000  0.0000  0.0000 </r>
       </set>
       <set comment="band 21">
        <r>  0.0000  0.0000  0.2329 </r>
        <r>  0.0000  0.0006  0.0000 </r>
       </set>
      </set>
      <set comment="kpoint 225">
       <set comment="band 1">
        <r>  0.9794  0.0000  0.0000 </r>
        <r>  0.0000  0.0000  0.0000 </r>
       </set>
       <set comment="band 2">
        <r>  0.0000  0.0000  0.0008 </r>
        <r>  0.7882  0.0000  0.0000 </r>
       </set>
       <set comment="band 3">
        <r>  0.0000  0.6881  0.0000 </r>
        <r>  0.0000  0.0184  0.0000 </r>
       </set>
       <set comment="band 4">
        <r>  0.0000  0.6881  0.0000 </r>
        <r>  0.0000  0.0184  0.0000 </r>
       </set>
       <set comment="band 5">
        <r>  0.0001  0.8193  0.0001 </r>
        <r>  0.0000  0.0000  0.0000 </r>
       </set>
       <set comment="band 6">
        <r>  0.0000  0.0810  0.0010 </r>
        <r>  0.0000  0.5659  0.0000 </r>
       </set>
       <set comment="band 7">
        <r>  0.0000  0.0810  0.0010 </r>
        <r>  0.0000  0.5659  0.0000 </r>
       </set>
       <set comment="band 8">
        <r>  0.0000  0.0000  0.0016 </r>
        <r>  0.0004  0.6511  0.0000 </r>
       </set>
       <set comment="band 9">
        <r>  0.0462  0.0061  0.1616 </r>
        <r>  0.0000  0.0000  0.0000 </r>
       </set>
       <set comment="band 10">
        <r>  0.0000  0.0000  0.1918 </r>
        <r>  0.0526  0.0138  0.0000 </r>
       </set>
       <set comment="band 11">
        <r>  0.0000  0.0013  0.2773 </r>
        <r>  0.0000  0.0090  0.0000 </r>
       </set>
       <set comment="band 12">
        <r>  0.0000  0.0013  0.2773 </r>
        <r>  0.0000  0.0090  0.0000 </r>
       </set>
       <set comment="band 13">
        <r>  0.0000  0.1533  0.0014 </r>
        <r>  0.0000  0.1678  0.0000 </r>
       </set>
       <set comment="band 14">
        <r>  0.0000  0.1533  0.0014 </r>
        <r>  0.0000  0.1678  0.0000 </r>
       </set>
       <set comment="band 15">
        <r>  0.0000  0.0000  0.5592 </r>
        <r>  0.0000  0.0000  0.0000 </r>
       </set>
       <set comment="band 16">
        <r>  0.0684  0.0006  0.2772 </r>
        <r>  0.0000  0.0000  0.0000 </r>
       </set>
       <set comment="band 17">
        <r>  0.0000  0.0000  0.1435 </r>
        <r>  0.0059  0.0001  0.0000 </r>
       </set>
       <set comment="band 18">
        <r>  0.0000  0.0181  0.0039 </r>
        <r>  0.0000  0.0360  0.0000 </r>
       </set>
       <set comment="band 19">
        <r>  0.0000  0.0181  0.0039 </r>
        <r>  0.0000  0.0360  0.0000 </r>
       </set>
       <set comment="band 20">
        <r>  0.0000  0.0000  0.0000 </r>
        <r>  0.0000  0.0000  0.0000 </r>
       </set>
       <set comment="band 21">
        <r>  0.0000  0.0000  0.2407 </r>
        <r>  0.0000  0.0004  0.0000 </r>
       </set>
      </set>
      <set comment="kpoint 226">
       <set comment="band 1">
        <r>  0.9789  0.0000  0.0000 </r>
        <r>  0.0000  0.0000  0.0000 </r>
       </set>
       <set comment="band 2">
        <r>  0.0000  0.0000  0.0008 </r>
        <r>  0.7879  0.0000  0.0000 </r>
       </set>
       <set comment="band 3">
        <r>  0.0000  0.6872  0.0000 </r>
        <r>  0.0000  0.0187  0.0000 </r>
       </set>
       <set comment="band 4">
        <r>  0.0000  0.6872  0.0000 </r>
        <r>  0.0000  0.0187  0.0000 </r>
       </set>
       <set comment="band 5">
        <r>  0.0001  0.8214  0.0001 </r>
        <r>  0.0000  0.0000  0.0000 </r>
       </set>
       <set comment="band 6">
        <r>  0.0000  0.0826  0.0006 </r>
        <r>  0.0000  0.5669  0.0000 </r>
       </set>
       <set comment="band 7">
        <r>  0.0000  0.0826  0.0006 </r>
        <r>  0.0000  0.5669  0.0000 </r>
       </set>
       <set comment="band 8">
        <r>  0.0000  0.0000  0.0009 </r>
        <r>  0.0002  0.6555  0.0000 </r>
       </set>
       <set comment="band 9">
        <r>  0.0467  0.0035  0.1619 </r>
        <r>  0.0000  0.0000  0.0000 </r>
       </set>
       <set comment="band 10">
        <r>  0.0000  0.0000  0.1914 </r>
        <r>  0.0534  0.0079  0.0000 </r>
       </set>
       <set comment="band 11">
        <r>  0.0000  0.0008  0.2784 </r>
        <r>  0.0000  0.0050  0.0000 </r>
       </set>
       <set comment="band 12">
        <r>  0.0000  0.0008  0.2784 </r>
        <r>  0.0000  0.0050  0.0000 </r>
       </set>
       <set comment="band 13">
        <r>  0.0000  0.1526  0.0008 </r>
        <r>  0.0000  0.1707  0.0000 </r>
       </set>
       <set comment="band 14">
        <r>  0.0000  0.1526  0.0008 </r>
        <r>  0.0000  0.1707  0.0000 </r>
       </set>
       <set comment="band 15">
        <r>  0.0000  0.0000  0.5588 </r>
        <r>  0.0000  0.0000  0.0000 </r>
       </set>
       <set comment="band 16">
        <r>  0.0688  0.0003  0.2758 </r>
        <r>  0.0000  0.0000  0.0000 </r>
       </set>
       <set comment="band 17">
        <r>  0.0000  0.0000  0.1444 </r>
        <r>  0.0060  0.0000  0.0000 </r>
       </set>
       <set comment="band 18">
        <r>  0.0000  0.0189  0.0023 </r>
        <r>  0.0000  0.0358  0.0000 </r>
       </set>
       <set comment="band 19">
        <r>  0.0000  0.0189  0.0023 </r>
        <r>  0.0000  0.0358  0.0000 </r>
       </set>
       <set comment="band 20">
        <r>  0.0000  0.0000  0.0000 </r>
        <r>  0.0000  0.0000  0.0000 </r>
       </set>
       <set comment="band 21">
        <r>  0.0000  0.0000  0.2473 </r>
        <r>  0.0000  0.0002  0.0000 </r>
       </set>
      </set>
      <set comment="kpoint 227">
       <set comment="band 1">
        <r>  0.9788  0.0000  0.0000 </r>
        <r>  0.0000  0.0000  0.0000 </r>
       </set>
       <set comment="band 2">
        <r>  0.0000  0.0000  0.0008 </r>
        <r>  0.7878  0.0000  0.0000 </r>
       </set>
       <set comment="band 3">
        <r>  0.0000  0.6865  0.0000 </r>
        <r>  0.0000  0.0189  0.0000 </r>
       </set>
       <set comment="band 4">
        <r>  0.0000  0.6865  0.0000 </r>
        <r>  0.0000  0.0189  0.0000 </r>
       </set>
       <set comment="band 5">
        <r>  0.0000  0.8230  0.0000 </r>
        <r>  0.0000  0.0000  0.0000 </r>
       </set>
       <set comment="band 6">
        <r>  0.0000  0.0837  0.0003 </r>
        <r>  0.0000  0.5679  0.0000 </r>
       </set>
       <set comment="band 7">
        <r>  0.0000  0.0837  0.0003 </r>
        <r>  0.0000  0.5679  0.0000 </r>
       </set>
       <set comment="band 8">
        <r>  0.0000  0.0000  0.0004 </r>
        <r>  0.0001  0.6591  0.0000 </r>
       </set>
       <set comment="band 9">
        <r>  0.0470  0.0016  0.1621 </r>
        <r>  0.0000  0.0000  0.0000 </r>
       </set>
       <set comment="band 10">
        <r>  0.0000  0.0000  0.1912 </r>
        <r>  0.0540  0.0035  0.0000 </r>
       </set>
       <set comment="band 11">
        <r>  0.0000  0.0003  0.2793 </r>
        <r>  0.0000  0.0023  0.0000 </r>
       </set>
       <set comment="band 12">
        <r>  0.0000  0.0003  0.2793 </r>
        <r>  0.0000  0.0023  0.0000 </r>
       </set>
       <set comment="band 13">
        <r>  0.0000  0.1521  0.0003 </r>
        <r>  0.0000  0.1729  0.0000 </r>
       </set>
       <set comment="band 14">
        <r>  0.0000  0.1521  0.0003 </r>
        <r>  0.0000  0.1729  0.0000 </r>
       </set>
       <set comment="band 15">
        <r>  0.0000  0.0000  0.5585 </r>
        <r>  0.0000  0.0000  0.0000 </r>
       </set>
       <set comment="band 16">
        <r>  0.0691  0.0002  0.2749 </r>
        <r>  0.0000  0.0000  0.0000 </r>
       </set>
       <set comment="band 17">
        <r>  0.0000  0.0000  0.1450 </r>
        <r>  0.0061  0.0000  0.0000 </r>
       </set>
       <set comment="band 18">
        <r>  0.0000  0.0195  0.0010 </r>
        <r>  0.0000  0.0357  0.0000 </r>
       </set>
       <set comment="band 19">
        <r>  0.0000  0.0195  0.0010 </r>
        <r>  0.0000  0.0357  0.0000 </r>
       </set>
       <set comment="band 20">
        <r>  0.0000  0.0000  0.0000 </r>
        <r>  0.0000  0.0000  0.0000 </r>
       </set>
       <set comment="band 21">
        <r>  0.0000  0.0000  0.2526 </r>
        <r>  0.0000  0.0001  0.0000 </r>
       </set>
      </set>
      <set comment="kpoint 228">
       <set comment="band 1">
        <r>  0.9787  0.0000  0.0000 </r>
        <r>  0.0000  0.0000  0.0000 </r>
       </set>
       <set comment="band 2">
        <r>  0.0000  0.0000  0.0008 </r>
        <r>  0.7877  0.0000  0.0000 </r>
       </set>
       <set comment="band 3">
        <r>  0.0000  0.6861  0.0000 </r>
        <r>  0.0000  0.0190  0.0000 </r>
       </set>
       <set comment="band 4">
        <r>  0.0000  0.6861  0.0000 </r>
        <r>  0.0000  0.0190  0.0000 </r>
       </set>
       <set comment="band 5">
        <r>  0.0000  0.8240  0.0000 </r>
        <r>  0.0000  0.0000  0.0000 </r>
       </set>
       <set comment="band 6">
        <r>  0.0000  0.0844  0.0001 </r>
        <r>  0.0000  0.5685  0.0000 </r>
       </set>
       <set comment="band 7">
        <r>  0.0000  0.0844  0.0001 </r>
        <r>  0.0000  0.5685  0.0000 </r>
       </set>
       <set comment="band 8">
        <r>  0.0000  0.0000  0.0001 </r>
        <r>  0.0000  0.6613  0.0000 </r>
       </set>
       <set comment="band 9">
        <r>  0.0472  0.0004  0.1622 </r>
        <r>  0.0000  0.0000  0.0000 </r>
       </set>
       <set comment="band 10">
        <r>  0.0000  0.0000  0.1910 </r>
        <r>  0.0544  0.0009  0.0000 </r>
       </set>
       <set comment="band 11">
        <r>  0.0000  0.0001  0.2799 </r>
        <r>  0.0000  0.0006  0.0000 </r>
       </set>
       <set comment="band 12">
        <r>  0.0000  0.0001  0.2799 </r>
        <r>  0.0000  0.0006  0.0000 </r>
       </set>
       <set comment="band 13">
        <r>  0.0000  0.1518  0.0001 </r>
        <r>  0.0000  0.1742  0.0000 </r>
       </set>
       <set comment="band 14">
        <r>  0.0000  0.1518  0.0001 </r>
        <r>  0.0000  0.1742  0.0000 </r>
       </set>
       <set comment="band 15">
        <r>  0.0000  0.0000  0.5583 </r>
        <r>  0.0000  0.0000  0.0000 </r>
       </set>
       <set comment="band 16">
        <r>  0.0693  0.0000  0.2743 </r>
        <r>  0.0000  0.0000  0.0000 </r>
       </set>
       <set comment="band 17">
        <r>  0.0000  0.0000  0.1453 </r>
        <r>  0.0061  0.0000  0.0000 </r>
       </set>
       <set comment="band 18">
        <r>  0.0000  0.0199  0.0003 </r>
        <r>  0.0000  0.0356  0.0000 </r>
       </set>
       <set comment="band 19">
        <r>  0.0000  0.0199  0.0003 </r>
        <r>  0.0000  0.0356  0.0000 </r>
       </set>
       <set comment="band 20">
        <r>  0.0000  0.0000  0.0000 </r>
        <r>  0.0000  0.0000  0.0000 </r>
       </set>
       <set comment="band 21">
        <r>  0.0000  0.0000  0.2560 </r>
        <r>  0.0000  0.0000  0.0000 </r>
       </set>
      </set>
      <set comment="kpoint 229">
       <set comment="band 1">
        <r>  0.9787  0.0000  0.0000 </r>
        <r>  0.0000  0.0000  0.0000 </r>
       </set>
       <set comment="band 2">
        <r>  0.0000  0.0000  0.0008 </r>
        <r>  0.7877  0.0000  0.0000 </r>
       </set>
       <set comment="band 3">
        <r>  0.0000  0.6860  0.0000 </r>
        <r>  0.0000  0.0191  0.0000 </r>
       </set>
       <set comment="band 4">
        <r>  0.0000  0.6860  0.0000 </r>
        <r>  0.0000  0.0191  0.0000 </r>
       </set>
       <set comment="band 5">
        <r>  0.0000  0.8243  0.0000 </r>
        <r>  0.0000  0.0000  0.0000 </r>
       </set>
       <set comment="band 6">
        <r>  0.0000  0.0846  0.0000 </r>
        <r>  0.0000  0.5686  0.0000 </r>
       </set>
       <set comment="band 7">
        <r>  0.0000  0.0846  0.0000 </r>
        <r>  0.0000  0.5686  0.0000 </r>
       </set>
       <set comment="band 8">
        <r>  0.0000  0.0000  0.0000 </r>
        <r>  0.0000  0.6621  0.0000 </r>
       </set>
       <set comment="band 9">
        <r>  0.0472  0.0000  0.1623 </r>
        <r>  0.0000  0.0000  0.0000 </r>
       </set>
       <set comment="band 10">
        <r>  0.0000  0.0000  0.1910 </r>
        <r>  0.0545  0.0000  0.0000 </r>
       </set>
       <set comment="band 11">
        <r>  0.0000  0.0000  0.2801 </r>
        <r>  0.0000  0.0000  0.0000 </r>
       </set>
       <set comment="band 12">
        <r>  0.0000  0.0000  0.2801 </r>
        <r>  0.0000  0.0000  0.0000 </r>
       </set>
       <set comment="band 13">
        <r>  0.0000  0.1517  0.0000 </r>
        <r>  0.0000  0.1747  0.0000 </r>
       </set>
       <set comment="band 14">
        <r>  0.0000  0.1517  0.0000 </r>
        <r>  0.0000  0.1747  0.0000 </r>
       </set>
       <set comment="band 15">
        <r>  0.0000  0.0000  0.5582 </r>
        <r>  0.0000  0.0000  0.0000 </r>
       </set>
       <set comment="band 16">
        <r>  0.0694  0.0000  0.2742 </r>
        <r>  0.0000  0.0000  0.0000 </r>
       </set>
       <set comment="band 17">
        <r>  0.0000  0.0000  0.1454 </r>
        <r>  0.0061  0.0000  0.0000 </r>
       </set>
       <set comment="band 18">
        <r>  0.0000  0.0200  0.0000 </r>
        <r>  0.0000  0.0356  0.0000 </r>
       </set>
       <set comment="band 19">
        <r>  0.0000  0.0200  0.0000 </r>
        <r>  0.0000  0.0356  0.0000 </r>
       </set>
       <set comment="band 20">
        <r>  0.0000  0.0000  0.0000 </r>
        <r>  0.0000  0.0000  0.0000 </r>
       </set>
       <set comment="band 21">
        <r>  0.0000  0.0000  0.2572 </r>
        <r>  0.0000  0.0000  0.0000 </r>
       </set>
      </set>
     </set>
    </set>
   </array>
  </projected>
 </calculation>
 <structure name="finalpos" >
  <crystal>
   <varray name="basis" >
    <v>       4.07544864       0.00000000       0.00000000 </v>
    <v>       0.00000000       4.07544864       0.00000000 </v>
    <v>       0.00000000       0.00000000       4.07544864 </v>
   </varray>
   <i name="volume">     67.69027413 </i>
   <varray name="rec_basis" >
    <v>       0.24537176       0.00000000       0.00000000 </v>
    <v>       0.00000000       0.24537176       0.00000000 </v>
    <v>       0.00000000       0.00000000       0.24537176 </v>
   </varray>
  </crystal>
  <varray name="positions" >
   <v>       0.00000000       0.00000000       0.00000000 </v>
   <v>       0.50000000       0.50000000       0.50000000 </v>
  </varray>
 </structure>
</modeling>
