 running    2 mpi-ranks, on    1 nodes
 distrk:  each k-point on    1 cores,    2 groups
 distr:  one band on    1 cores,    1 groups
 Offloading initialized ...    2 GPUs detected
 vasp.6.5.1 10Mar25 (build May 13 2025 11:33:44) complex                         
 POSCAR found type information on POSCAR CsCl
 POSCAR found :  2 types and       2 ions
 scaLAPACK will be used selectively (only on CPU)
 -----------------------------------------------------------------------------
|                                                                             |
|               ----> ADVICE to this user running VASP <----                  |
|                                                                             |
|     You enforced a specific xc type in the INCAR file but a different       |
|     type was found in the POTCAR file.                                      |
|     I HOPE YOU KNOW WHAT YOU ARE DOING!                                     |
|                                                                             |
 -----------------------------------------------------------------------------

 LDA part: xc-table for (Slater+PW92), standard interpolation
 POSCAR, INCAR and KPOINTS ok, starting setup
 FFT: planning ... GRIDC
 FFT: planning ... GRID_SOFT
 FFT: planning ... GRID
 WAVECAR not read
 entering main loop
       N       E                     dE             d eps       ncg     rms          rms(c)
DAV:   1     0.536622142505E+02    0.53662E+02   -0.46433E+03  9650   0.405E+02
DAV:   2    -0.412084666523E+01   -0.57783E+02   -0.54974E+02 12571   0.101E+02
DAV:   3    -0.717941950457E+01   -0.30586E+01   -0.30447E+01 11994   0.239E+01
DAV:   4    -0.719721557009E+01   -0.17796E-01   -0.17792E-01 11680   0.216E+00
DAV:   5    -0.719733829447E+01   -0.12272E-03   -0.12272E-03 12056   0.178E-01    0.256E+00
DAV:   6    -0.689477490025E+01    0.30256E+00   -0.18730E-01 11008   0.243E+00    0.181E+00
DAV:   7    -0.685616238670E+01    0.38613E-01   -0.75440E-02 12282   0.134E+00    0.116E+00
DAV:   8    -0.685502744270E+01    0.11349E-02   -0.17969E-02 10794   0.608E-01    0.350E-01
DAV:   9    -0.685422217232E+01    0.80527E-03   -0.19743E-03 11158   0.190E-01    0.900E-02
DAV:  10    -0.685437475762E+01   -0.15259E-03   -0.38247E-04 10913   0.898E-02    0.308E-02
DAV:  11    -0.685436371692E+01    0.11041E-04   -0.18118E-05 11460   0.191E-02    0.114E-02
DAV:  12    -0.685436378867E+01   -0.71745E-07   -0.41133E-06  8816   0.110E-02
   1 F= -.68543638E+01 E0= -.68543638E+01  d E =-.685436E+01
 curvature:   0.00 expect dE= 0.000E+00 dE for cont linesearch  0.000E+00
 trial: gam= 0.00000 g(F)=  0.244E-63 g(S)=  0.000E+00 ort = 0.000E+00 (trialstep = 0.100E+01)
 search vector abs. value=  0.100E-09
 reached required accuracy - stopping structural energy minimisation
