unknown system                          
   1.00000000000000     
     4.075449    0.000000    0.000000
     0.000000    4.075449    0.000000
     0.000000    0.000000    4.075449
   Cs   Cl
     1     1
Direct
   0.000000  0.000000  0.000000
   0.500000  0.500000  0.500000
 
   32   32   32
 0.92245932594E+05 0.33456100381E+03 0.15704744729E+03 0.42809590229E+02 0.13327612096E+02
 0.63633447210E+02 0.79711934493E+02 0.67795685675E+02 0.48512326863E+02 0.32020842947E+02
 0.19631587497E+02 0.11810357797E+02 0.71133197898E+01 0.43756578435E+01 0.28347886125E+01
 0.20533357247E+01 0.18144568461E+01 0.20533357247E+01 0.28347886125E+01 0.43756578435E+01
 0.71133197898E+01 0.11810357797E+02 0.19631587497E+02 0.32020842947E+02 0.48512326863E+02
 0.67795685675E+02 0.79711934493E+02 0.63633447210E+02 0.13327612096E+02 0.42809590229E+02
 0.15704744729E+03 0.33456100381E+03 0.33456100381E+03 -.46581436312E+00 0.16767484874E+03
 0.23149484722E+02 0.19386665822E+02 0.67040554345E+02 0.79420427602E+02 0.66462018966E+02
 0.47329833229E+02 0.31179976498E+02 0.19138183297E+02 0.11536160491E+02 0.69650653633E+01
 0.42960109627E+01 0.27914902735E+01 0.20279985462E+01 0.17946172817E+01 0.20279985462E+01
 0.27914902735E+01 0.42960109627E+01 0.69650653633E+01 0.11536160491E+02 0.19138183297E+02
 0.31179976498E+02 0.47329833229E+02 0.66462018966E+02 0.79420427602E+02 0.67040554345E+02
 0.19386665822E+02 0.23149484722E+02 0.16767484874E+03 -.46581436312E+00 0.15704744729E+03
 0.16767484874E+03 0.70914951959E+02 0.26016111903E+01 0.38532698694E+02 0.74464600695E+02
 0.77621743481E+02 0.62416448005E+02 0.43924641314E+02 0.28795656720E+02 0.17741037360E+02
 0.10758788287E+02 0.65438891945E+01 0.40696786292E+01 0.26689561281E+01 0.19569189457E+01
 0.17392920323E+01 0.19569189457E+01 0.26689561281E+01 0.40696786292E+01 0.65438891945E+01
 0.10758788287E+02 0.17741037360E+02 0.28795656720E+02 0.43924641314E+02 0.62416448005E+02
 0.77621743481E+02 0.74464600695E+02 0.38532698694E+02 0.26016111903E+01 0.70914951959E+02
 0.16767484874E+03 0.42809590229E+02 0.23149484722E+02 0.26016111903E+01 0.25675070031E+02
 0.63356734890E+02 0.79367687174E+02 0.72558024557E+02 0.55759820771E+02 0.38719221894E+02
 0.25248747924E+02 0.15666439919E+02 0.96012664720E+01 0.59142806915E+01 0.37313516885E+01
 0.24874826284E+01 0.18536769673E+01 0.16600184810E+01 0.18536769673E+01 0.24874826284E+01
 0.37313516885E+01 0.59142806915E+01 0.96012664720E+01 0.15666439919E+02 0.25248747924E+02
 0.38719221894E+02 0.55759820771E+02 0.72558024557E+02 0.79367687174E+02 0.63356734890E+02
 0.25675070031E+02 0.26016111903E+01 0.23149484722E+02 0.13327612096E+02 0.19386665822E+02
 0.38532698694E+02 0.63356734890E+02 0.78232888158E+02 0.76600614727E+02 0.63560292682E+02
 0.47124176344E+02 0.32711041013E+02 0.21068098813E+02 0.13222913348E+02 0.82312727271E+01
 0.51651550367E+01 0.33295044014E+01 0.22755541359E+01 0.17372726501E+01 0.15729091723E+01
 0.17372726501E+01 0.22755541359E+01 0.33295044014E+01 0.51651550367E+01 0.82312727271E+01
 0.13222913348E+02 0.21068098813E+02 0.32711041013E+02 0.47124176344E+02 0.63560292682E+02
 0.76600614727E+02 0.78232888158E+02 0.63356734890E+02 0.38532698694E+02 0.19386665822E+02
 0.63633447210E+02 0.67040554345E+02 0.74464600695E+02 0.79367687174E+02 0.76600614727E+02
 0.66158115367E+02 0.51829425604E+02 0.37628352517E+02 0.25812952977E+02 0.16800494130E+02
 0.10723353110E+02 0.68197731715E+01 0.43891169014E+01 0.29156934046E+01 0.20636187043E+01
 0.16278656211E+01 0.14949825805E+01 0.16278656211E+01 0.20636187043E+01 0.29156934046E+01
 0.43891169014E+01 0.68197731715E+01 0.10723353110E+02 0.16800494130E+02 0.25812952977E+02
 0.37628352517E+02 0.51829425604E+02 0.66158115367E+02 0.76600614727E+02 0.79367687174E+02
 0.74464600695E+02 0.67040554345E+02 0.79711934493E+02 0.79420427602E+02 0.77621743481E+02
 0.72558024557E+02 0.63560292682E+02 0.51829425604E+02 0.39540509108E+02 0.28608896380E+02
 0.19472703986E+02 0.12887970276E+02 0.84177487252E+01 0.55059963669E+01 0.36643149604E+01
 0.25346341023E+01 0.18780679756E+01 0.15425585512E+01 0.14404881729E+01 0.15425585512E+01
 0.18780679756E+01 0.25346341023E+01 0.36643149604E+01 0.55059963669E+01 0.84177487252E+01
 0.12887970276E+02 0.19472703986E+02 0.28608896380E+02 0.39540509108E+02 0.51829425604E+02
 0.63560292682E+02 0.72558024557E+02 0.77621743481E+02 0.79420427602E+02 0.67795685675E+02
 0.66462018966E+02 0.62416448005E+02 0.55759820771E+02 0.47124176344E+02 0.37628352517E+02
 0.28608896380E+02 0.20466749089E+02 0.14159766396E+02 0.95960318805E+01 0.64579473256E+01
 0.43789111822E+01 0.30436997889E+01 0.22175028053E+01 0.17368667751E+01 0.14922538780E+01
 0.14181375837E+01 0.14922538780E+01 0.17368667751E+01 0.22175028053E+01 0.30436997889E+01
 0.43789111822E+01 0.64579473256E+01 0.95960318805E+01 0.14159766396E+02 0.20466749089E+02
 0.28608896380E+02 0.37628352517E+02 0.47124176344E+02 0.55759820771E+02 0.62416448005E+02
 0.66462018966E+02 0.48512326863E+02 0.47329833229E+02 0.43924641314E+02 0.38719221894E+02
 0.32711041013E+02 0.25812952977E+02 0.19472703986E+02 0.14159766396E+02 0.10032133947E+02
 0.70112113005E+01 0.48993336767E+01 0.34767786770E+01 0.25528465206E+01 0.19796020562E+01
 0.16478696782E+01 0.14805520441E+01 0.14301993477E+01 0.14805520441E+01 0.16478696782E+01
 0.19796020562E+01 0.25528465206E+01 0.34767786770E+01 0.48993336767E+01 0.70112113005E+01
 0.10032133947E+02 0.14159766396E+02 0.19472703986E+02 0.25812952977E+02 0.32711041013E+02
 0.38719221894E+02 0.43924641314E+02 0.47329833229E+02 0.32020842947E+02 0.31179976498E+02
 0.28795656720E+02 0.25248747924E+02 0.21068098813E+02 0.16800494130E+02 0.12887970276E+02
 0.95960318805E+01 0.70112113005E+01 0.50907274720E+01 0.37272476238E+01 0.27987463502E+01
 0.21942831458E+01 0.18221136200E+01 0.16101046332E+01 0.15051206314E+01 0.14739290405E+01
 0.15051206314E+01 0.16101046332E+01 0.18221136200E+01 0.21942831458E+01 0.27987463502E+01
 0.37272476238E+01 0.50907274720E+01 0.70112113005E+01 0.95960318805E+01 0.12887970276E+02
 0.16800494130E+02 0.21068098813E+02 0.25248747924E+02 0.28795656720E+02 0.31179976498E+02
 0.19631587497E+02 0.19138183297E+02 0.17741037360E+02 0.15666439919E+02 0.13222913348E+02
 0.10723353110E+02 0.84177487252E+01 0.64579473256E+01 0.48993336767E+01 0.37272476238E+01
 0.28892706633E+01 0.23199801088E+01 0.19548418775E+01 0.17364141515E+01 0.16170437966E+01
 0.15606355533E+01 0.15444357881E+01 0.15606355533E+01 0.16170437966E+01 0.17364141515E+01
 0.19548418775E+01 0.23199801088E+01 0.28892706633E+01 0.37272476238E+01 0.48993336767E+01
 0.64579473256E+01 0.84177487252E+01 0.10723353110E+02 0.13222913348E+02 0.15666439919E+02
 0.17741037360E+02 0.19138183297E+02 0.11810357797E+02 0.11536160491E+02 0.10758788287E+02
 0.96012664720E+01 0.82312727271E+01 0.68197731715E+01 0.55059963669E+01 0.43789111822E+01
 0.34767786770E+01 0.27987463502E+01 0.23199801088E+01 0.20043652296E+01 0.18129190497E+01
 0.17087070262E+01 0.16597451287E+01 0.16410898592E+01 0.16367210779E+01 0.16410898592E+01
 0.16597451287E+01 0.17087070262E+01 0.18129190497E+01 0.20043652296E+01 0.23199801088E+01
 0.27987463502E+01 0.34767786770E+01 0.43789111822E+01 0.55059963669E+01 0.68197731715E+01
 0.82312727271E+01 0.96012664720E+01 0.10758788287E+02 0.11536160491E+02 0.71133197898E+01
 0.69650653633E+01 0.65438891945E+01 0.59142806915E+01 0.51651550367E+01 0.43891169014E+01
 0.36643149604E+01 0.30436997889E+01 0.25528465206E+01 0.21942831458E+01 0.19548418775E+01
 0.18129190497E+01 0.17438452566E+01 0.17230550820E+01 0.17279201835E+01 0.17395124091E+01
 0.17449190141E+01 0.17395124091E+01 0.17279201835E+01 0.17230550820E+01 0.17438452566E+01
 0.18129190497E+01 0.19548418775E+01 0.21942831458E+01 0.25528465206E+01 0.30436997889E+01
 0.36643149604E+01 0.43891169014E+01 0.51651550367E+01 0.59142806915E+01 0.65438891945E+01
 0.69650653633E+01 0.43756578435E+01 0.42960109627E+01 0.40696786292E+01 0.37313516885E+01
 0.33295044014E+01 0.29156934046E+01 0.25346341023E+01 0.22175028053E+01 0.19796020562E+01
 0.18221136200E+01 0.17364141515E+01 0.17087070262E+01 0.17230550820E+01 0.17623929126E+01
 0.18088658517E+01 0.18454130496E+01 0.18592045467E+01 0.18454130496E+01 0.18088658517E+01
 0.17623929126E+01 0.17230550820E+01 0.17087070262E+01 0.17364141515E+01 0.18221136200E+01
 0.19796020562E+01 0.22175028053E+01 0.25346341023E+01 0.29156934046E+01 0.33295044014E+01
 0.37313516885E+01 0.40696786292E+01 0.42960109627E+01 0.28347886125E+01 0.27914902735E+01
 0.26689561281E+01 0.24874826284E+01 0.22755541359E+01 0.20636187043E+01 0.18780679756E+01
 0.17368667751E+01 0.16478696782E+01 0.16101046332E+01 0.16170437966E+01 0.16597451287E+01
 0.17279201835E+01 0.18088658517E+01 0.18864586486E+01 0.19428791029E+01 0.19635764901E+01
 0.19428791029E+01 0.18864586486E+01 0.18088658517E+01 0.17279201835E+01 0.16597451287E+01
 0.16170437966E+01 0.16101046332E+01 0.16478696782E+01 0.17368667751E+01 0.18780679756E+01
 0.20636187043E+01 0.22755541359E+01 0.24874826284E+01 0.26689561281E+01 0.27914902735E+01
 0.20533357247E+01 0.20279985462E+01 0.19569189457E+01 0.18536769673E+01 0.17372726501E+01
 0.16278656211E+01 0.15425585512E+01 0.14922538780E+01 0.14805520441E+01 0.15051206314E+01
 0.15606355533E+01 0.16410898592E+01 0.17395124091E+01 0.18454130496E+01 0.19428791029E+01
 0.20125657534E+01 0.20379743749E+01 0.20125657534E+01 0.19428791029E+01 0.18454130496E+01
 0.17395124091E+01 0.16410898592E+01 0.15606355533E+01 0.15051206314E+01 0.14805520441E+01
 0.14922538780E+01 0.15425585512E+01 0.16278656211E+01 0.17372726501E+01 0.18536769673E+01
 0.19569189457E+01 0.20279985462E+01 0.18144568461E+01 0.17946172817E+01 0.17392920323E+01
 0.16600184810E+01 0.15729091723E+01 0.14949825805E+01 0.14404881729E+01 0.14181375837E+01
 0.14301993477E+01 0.14739290405E+01 0.15444357881E+01 0.16367210779E+01 0.17449190141E+01
 0.18592045467E+01 0.19635764901E+01 0.20379743749E+01 0.20650730526E+01 0.20379743749E+01
 0.19635764901E+01 0.18592045467E+01 0.17449190141E+01 0.16367210779E+01 0.15444357881E+01
 0.14739290405E+01 0.14301993477E+01 0.14181375837E+01 0.14404881729E+01 0.14949825805E+01
 0.15729091723E+01 0.16600184810E+01 0.17392920323E+01 0.17946172817E+01 0.20533357247E+01
 0.20279985462E+01 0.19569189457E+01 0.18536769673E+01 0.17372726501E+01 0.16278656211E+01
 0.15425585512E+01 0.14922538780E+01 0.14805520441E+01 0.15051206314E+01 0.15606355533E+01
 0.16410898592E+01 0.17395124091E+01 0.18454130496E+01 0.19428791029E+01 0.20125657534E+01
 0.20379743749E+01 0.20125657534E+01 0.19428791029E+01 0.18454130496E+01 0.17395124091E+01
 0.16410898592E+01 0.15606355533E+01 0.15051206314E+01 0.14805520441E+01 0.14922538780E+01
 0.15425585512E+01 0.16278656211E+01 0.17372726501E+01 0.18536769673E+01 0.19569189457E+01
 0.20279985462E+01 0.28347886125E+01 0.27914902735E+01 0.26689561281E+01 0.24874826284E+01
 0.22755541359E+01 0.20636187043E+01 0.18780679756E+01 0.17368667751E+01 0.16478696782E+01
 0.16101046332E+01 0.16170437966E+01 0.16597451287E+01 0.17279201835E+01 0.18088658517E+01
 0.18864586486E+01 0.19428791029E+01 0.19635764901E+01 0.19428791029E+01 0.18864586486E+01
 0.18088658517E+01 0.17279201835E+01 0.16597451287E+01 0.16170437966E+01 0.16101046332E+01
 0.16478696782E+01 0.17368667751E+01 0.18780679756E+01 0.20636187043E+01 0.22755541359E+01
 0.24874826284E+01 0.26689561281E+01 0.27914902735E+01 0.43756578435E+01 0.42960109627E+01
 0.40696786292E+01 0.37313516885E+01 0.33295044014E+01 0.29156934046E+01 0.25346341023E+01
 0.22175028053E+01 0.19796020562E+01 0.18221136200E+01 0.17364141515E+01 0.17087070262E+01
 0.17230550820E+01 0.17623929126E+01 0.18088658517E+01 0.18454130496E+01 0.18592045467E+01
 0.18454130496E+01 0.18088658517E+01 0.17623929126E+01 0.17230550820E+01 0.17087070262E+01
 0.17364141515E+01 0.18221136200E+01 0.19796020562E+01 0.22175028053E+01 0.25346341023E+01
 0.29156934046E+01 0.33295044014E+01 0.37313516885E+01 0.40696786292E+01 0.42960109627E+01
 0.71133197898E+01 0.69650653633E+01 0.65438891945E+01 0.59142806915E+01 0.51651550367E+01
 0.43891169014E+01 0.36643149604E+01 0.30436997889E+01 0.25528465206E+01 0.21942831458E+01
 0.19548418775E+01 0.18129190497E+01 0.17438452566E+01 0.17230550820E+01 0.17279201835E+01
 0.17395124091E+01 0.17449190141E+01 0.17395124091E+01 0.17279201835E+01 0.17230550820E+01
 0.17438452566E+01 0.18129190497E+01 0.19548418775E+01 0.21942831458E+01 0.25528465206E+01
 0.30436997889E+01 0.36643149604E+01 0.43891169014E+01 0.51651550367E+01 0.59142806915E+01
 0.65438891945E+01 0.69650653633E+01 0.11810357797E+02 0.11536160491E+02 0.10758788287E+02
 0.96012664720E+01 0.82312727271E+01 0.68197731715E+01 0.55059963669E+01 0.43789111822E+01
 0.34767786770E+01 0.27987463502E+01 0.23199801088E+01 0.20043652296E+01 0.18129190497E+01
 0.17087070262E+01 0.16597451287E+01 0.16410898592E+01 0.16367210779E+01 0.16410898592E+01
 0.16597451287E+01 0.17087070262E+01 0.18129190497E+01 0.20043652296E+01 0.23199801088E+01
 0.27987463502E+01 0.34767786770E+01 0.43789111822E+01 0.55059963669E+01 0.68197731715E+01
 0.82312727271E+01 0.96012664720E+01 0.10758788287E+02 0.11536160491E+02 0.19631587497E+02
 0.19138183297E+02 0.17741037360E+02 0.15666439919E+02 0.13222913348E+02 0.10723353110E+02
 0.84177487252E+01 0.64579473256E+01 0.48993336767E+01 0.37272476238E+01 0.28892706633E+01
 0.23199801088E+01 0.19548418775E+01 0.17364141515E+01 0.16170437966E+01 0.15606355533E+01
 0.15444357881E+01 0.15606355533E+01 0.16170437966E+01 0.17364141515E+01 0.19548418775E+01
 0.23199801088E+01 0.28892706633E+01 0.37272476238E+01 0.48993336767E+01 0.64579473256E+01
 0.84177487252E+01 0.10723353110E+02 0.13222913348E+02 0.15666439919E+02 0.17741037360E+02
 0.19138183297E+02 0.32020842947E+02 0.31179976498E+02 0.28795656720E+02 0.25248747924E+02
 0.21068098813E+02 0.16800494130E+02 0.12887970276E+02 0.95960318805E+01 0.70112113005E+01
 0.50907274720E+01 0.37272476238E+01 0.27987463502E+01 0.21942831458E+01 0.18221136200E+01
 0.16101046332E+01 0.15051206314E+01 0.14739290405E+01 0.15051206314E+01 0.16101046332E+01
 0.18221136200E+01 0.21942831458E+01 0.27987463502E+01 0.37272476238E+01 0.50907274720E+01
 0.70112113005E+01 0.95960318805E+01 0.12887970276E+02 0.16800494130E+02 0.21068098813E+02
 0.25248747924E+02 0.28795656720E+02 0.31179976498E+02 0.48512326863E+02 0.47329833229E+02
 0.43924641314E+02 0.38719221894E+02 0.32711041013E+02 0.25812952977E+02 0.19472703986E+02
 0.14159766396E+02 0.10032133947E+02 0.70112113005E+01 0.48993336767E+01 0.34767786770E+01
 0.25528465206E+01 0.19796020562E+01 0.16478696782E+01 0.14805520441E+01 0.14301993477E+01
 0.14805520441E+01 0.16478696782E+01 0.19796020562E+01 0.25528465206E+01 0.34767786770E+01
 0.48993336767E+01 0.70112113005E+01 0.10032133947E+02 0.14159766396E+02 0.19472703986E+02
 0.25812952977E+02 0.32711041013E+02 0.38719221894E+02 0.43924641314E+02 0.47329833229E+02
 0.67795685675E+02 0.66462018966E+02 0.62416448005E+02 0.55759820771E+02 0.47124176344E+02
 0.37628352517E+02 0.28608896380E+02 0.20466749089E+02 0.14159766396E+02 0.95960318805E+01
 0.64579473256E+01 0.43789111822E+01 0.30436997889E+01 0.22175028053E+01 0.17368667751E+01
 0.14922538780E+01 0.14181375837E+01 0.14922538780E+01 0.17368667751E+01 0.22175028053E+01
 0.30436997889E+01 0.43789111822E+01 0.64579473256E+01 0.95960318805E+01 0.14159766396E+02
 0.20466749089E+02 0.28608896380E+02 0.37628352517E+02 0.47124176344E+02 0.55759820771E+02
 0.62416448005E+02 0.66462018966E+02 0.79711934493E+02 0.79420427602E+02 0.77621743481E+02
 0.72558024557E+02 0.63560292682E+02 0.51829425604E+02 0.39540509108E+02 0.28608896380E+02
 0.19472703986E+02 0.12887970276E+02 0.84177487252E+01 0.55059963669E+01 0.36643149604E+01
 0.25346341023E+01 0.18780679756E+01 0.15425585512E+01 0.14404881729E+01 0.15425585512E+01
 0.18780679756E+01 0.25346341023E+01 0.36643149604E+01 0.55059963669E+01 0.84177487252E+01
 0.12887970276E+02 0.19472703986E+02 0.28608896380E+02 0.39540509108E+02 0.51829425604E+02
 0.63560292682E+02 0.72558024557E+02 0.77621743481E+02 0.79420427602E+02 0.63633447210E+02
 0.67040554345E+02 0.74464600695E+02 0.79367687174E+02 0.76600614727E+02 0.66158115367E+02
 0.51829425604E+02 0.37628352517E+02 0.25812952977E+02 0.16800494130E+02 0.10723353110E+02
 0.68197731715E+01 0.43891169014E+01 0.29156934046E+01 0.20636187043E+01 0.16278656211E+01
 0.14949825805E+01 0.16278656211E+01 0.20636187043E+01 0.29156934046E+01 0.43891169014E+01
 0.68197731715E+01 0.10723353110E+02 0.16800494130E+02 0.25812952977E+02 0.37628352517E+02
 0.51829425604E+02 0.66158115367E+02 0.76600614727E+02 0.79367687174E+02 0.74464600695E+02
 0.67040554345E+02 0.13327612096E+02 0.19386665822E+02 0.38532698694E+02 0.63356734890E+02
 0.78232888158E+02 0.76600614727E+02 0.63560292682E+02 0.47124176344E+02 0.32711041013E+02
 0.21068098813E+02 0.13222913348E+02 0.82312727271E+01 0.51651550367E+01 0.33295044014E+01
 0.22755541359E+01 0.17372726501E+01 0.15729091723E+01 0.17372726501E+01 0.22755541359E+01
 0.33295044014E+01 0.51651550367E+01 0.82312727271E+01 0.13222913348E+02 0.21068098813E+02
 0.32711041013E+02 0.47124176344E+02 0.63560292682E+02 0.76600614727E+02 0.78232888158E+02
 0.63356734890E+02 0.38532698694E+02 0.19386665822E+02 0.42809590229E+02 0.23149484722E+02
 0.26016111903E+01 0.25675070031E+02 0.63356734890E+02 0.79367687174E+02 0.72558024557E+02
 0.55759820771E+02 0.38719221894E+02 0.25248747924E+02 0.15666439919E+02 0.96012664720E+01
 0.59142806915E+01 0.37313516885E+01 0.24874826284E+01 0.18536769673E+01 0.16600184810E+01
 0.18536769673E+01 0.24874826284E+01 0.37313516885E+01 0.59142806915E+01 0.96012664720E+01
 0.15666439919E+02 0.25248747924E+02 0.38719221894E+02 0.55759820771E+02 0.72558024557E+02
 0.79367687174E+02 0.63356734890E+02 0.25675070031E+02 0.26016111903E+01 0.23149484722E+02
 0.15704744729E+03 0.16767484874E+03 0.70914951959E+02 0.26016111903E+01 0.38532698694E+02
 0.74464600695E+02 0.77621743481E+02 0.62416448005E+02 0.43924641314E+02 0.28795656720E+02
 0.17741037360E+02 0.10758788287E+02 0.65438891945E+01 0.40696786292E+01 0.26689561281E+01
 0.19569189457E+01 0.17392920323E+01 0.19569189457E+01 0.26689561281E+01 0.40696786292E+01
 0.65438891945E+01 0.10758788287E+02 0.17741037360E+02 0.28795656720E+02 0.43924641314E+02
 0.62416448005E+02 0.77621743481E+02 0.74464600695E+02 0.38532698694E+02 0.26016111903E+01
 0.70914951959E+02 0.16767484874E+03 0.33456100381E+03 -.46581436312E+00 0.16767484874E+03
 0.23149484722E+02 0.19386665822E+02 0.67040554345E+02 0.79420427602E+02 0.66462018966E+02
 0.47329833229E+02 0.31179976498E+02 0.19138183297E+02 0.11536160491E+02 0.69650653633E+01
 0.42960109627E+01 0.27914902735E+01 0.20279985462E+01 0.17946172817E+01 0.20279985462E+01
 0.27914902735E+01 0.42960109627E+01 0.69650653633E+01 0.11536160491E+02 0.19138183297E+02
 0.31179976498E+02 0.47329833229E+02 0.66462018966E+02 0.79420427602E+02 0.67040554345E+02
 0.19386665822E+02 0.23149484722E+02 0.16767484874E+03 -.46581436312E+00 0.33456100381E+03
 -.46581436312E+00 0.16767484874E+03 0.23149484722E+02 0.19386665822E+02 0.67040554345E+02
 0.79420427602E+02 0.66462018966E+02 0.47329833229E+02 0.31179976498E+02 0.19138183297E+02
 0.11536160491E+02 0.69650653633E+01 0.42960109627E+01 0.27914902735E+01 0.20279985462E+01
 0.17946172817E+01 0.20279985462E+01 0.27914902735E+01 0.42960109627E+01 0.69650653633E+01
 0.11536160491E+02 0.19138183297E+02 0.31179976498E+02 0.47329833229E+02 0.66462018966E+02
 0.79420427602E+02 0.67040554345E+02 0.19386665822E+02 0.23149484722E+02 0.16767484874E+03
 -.46581436312E+00 -.46581436312E+00 0.83815378303E+02 0.14241316878E+03 0.10784711562E+02
 0.25806629818E+02 0.69962875678E+02 0.78961547977E+02 0.65117911054E+02 0.46171377316E+02
 0.30362703210E+02 0.18659141823E+02 0.11270007154E+02 0.68212874049E+01 0.42190811918E+01
 0.27501087044E+01 0.20042268367E+01 0.17762392454E+01 0.20042268367E+01 0.27501087044E+01
 0.42190811918E+01 0.68212874049E+01 0.11270007154E+02 0.18659141823E+02 0.30362703210E+02
 0.46171377316E+02 0.65117911054E+02 0.78961547977E+02 0.69962875678E+02 0.25806629818E+02
 0.10784711562E+02 0.14241316878E+03 0.83815378303E+02 0.16767484874E+03 0.14241316878E+03
 0.43081430779E+02 0.41155662694E+01 0.44450771373E+02 0.76104244703E+02 0.76774860836E+02
 0.61067280544E+02 0.42836977144E+02 0.28045898438E+02 0.17302978416E+02 0.10515739225E+02
 0.64131599353E+01 0.40008110241E+01 0.26333372759E+01 0.19378877902E+01 0.17253510582E+01
 0.19378877902E+01 0.26333372759E+01 0.40008110241E+01 0.64131599353E+01 0.10515739225E+02
 0.17302978416E+02 0.28045898438E+02 0.42836977144E+02 0.61067280544E+02 0.76774860836E+02
 0.76104244703E+02 0.44450771373E+02 0.41155662694E+01 0.43081430779E+02 0.14241316878E+03
 0.23149484722E+02 0.10784711562E+02 0.41155662694E+01 0.32136174112E+02 0.66786097900E+02
 0.79503329678E+02 0.71353708321E+02 0.54467671137E+02 0.37748938636E+02 0.24600989395E+02
 0.15290033950E+02 0.93934236733E+01 0.58039784288E+01 0.36755017143E+01 0.24613757385E+01
 0.18425618454E+01 0.16535161720E+01 0.18425618454E+01 0.24613757385E+01 0.36755017143E+01
 0.58039784288E+01 0.93934236733E+01 0.15290033950E+02 0.24600989395E+02 0.37748938636E+02
 0.54467671137E+02 0.71353708321E+02 0.79503329678E+02 0.66786097900E+02 0.32136174112E+02
 0.41155662694E+01 0.10784711562E+02 0.19386665822E+02 0.25806629818E+02 0.44450771373E+02
 0.66786097900E+02 0.78887273319E+02 0.75668404175E+02 0.62220678493E+02 0.45977793388E+02
 0.31858167845E+02 0.20542660930E+02 0.12920208965E+02 0.80662940758E+01 0.50805980814E+01
 0.32906740500E+01 0.22621889237E+01 0.17368880229E+01 0.15765290514E+01 0.17368880229E+01
 0.22621889237E+01 0.32906740500E+01 0.50805980814E+01 0.80662940758E+01 0.12920208965E+02
 0.20542660930E+02 0.31858167845E+02 0.45977793388E+02 0.62220678493E+02 0.75668404175E+02
 0.78887273319E+02 0.66786097900E+02 0.44450771373E+02 0.25806629818E+02 0.67040554345E+02
 0.69962875678E+02 0.76104244703E+02 0.79503329678E+02 0.75668404175E+02 0.64831772273E+02
 0.50600666003E+02 0.36689311019E+02 0.25156431501E+02 0.16401760605E+02 0.10497028672E+02
 0.67002320419E+01 0.43328752529E+01 0.28962492853E+01 0.20650753531E+01 0.16400801033E+01
 0.15105207824E+01 0.16400801033E+01 0.20650753531E+01 0.28962492853E+01 0.43328752529E+01
 0.67002320419E+01 0.10497028672E+02 0.16401760605E+02 0.25156431501E+02 0.36689311019E+02
 0.50600666003E+02 0.64831772273E+02 0.75668404175E+02 0.79503329678E+02 0.76104244703E+02
 0.69962875678E+02 0.79420427602E+02 0.78961547977E+02 0.76774860836E+02 0.71353708321E+02
 0.62220678493E+02 0.50600666003E+02 0.38558380438E+02 0.27875408222E+02 0.19001086603E+02
 0.12606405644E+02 0.82625105716E+01 0.54298479478E+01 0.36360841428E+01 0.25349538735E+01
 0.18948997744E+01 0.15679482535E+01 0.14685218312E+01 0.15679482535E+01 0.18948997744E+01
 0.25349538735E+01 0.36360841428E+01 0.54298479478E+01 0.82625105716E+01 0.12606405644E+02
 0.19001086603E+02 0.27875408222E+02 0.38558380438E+02 0.50600666003E+02 0.62220678493E+02
 0.71353708321E+02 0.76774860836E+02 0.78961547977E+02 0.66462018966E+02 0.65117911054E+02
 0.61067280544E+02 0.54467671137E+02 0.45977793388E+02 0.36689311019E+02 0.27875408222E+02
 0.19967791012E+02 0.13844886753E+02 0.94131600013E+01 0.63634479889E+01 0.43409363730E+01
 0.30409722361E+01 0.22363560471E+01 0.17684249576E+01 0.15304399072E+01 0.14583717791E+01
 0.15304399072E+01 0.17684249576E+01 0.22363560471E+01 0.30409722361E+01 0.43409363730E+01
 0.63634479889E+01 0.94131600013E+01 0.13844886753E+02 0.19967791012E+02 0.27875408222E+02
 0.36689311019E+02 0.45977793388E+02 0.54467671137E+02 0.61067280544E+02 0.65117911054E+02
 0.47329833229E+02 0.46171377316E+02 0.42836977144E+02 0.37748938636E+02 0.31858167845E+02
 0.25156431501E+02 0.19001086603E+02 0.13844886753E+02 0.98387320489E+01 0.69054011844E+01
 0.48534212782E+01 0.34704513335E+01 0.25721384379E+01 0.20151077420E+01 0.16931373174E+01
 0.15309672277E+01 0.14822101685E+01 0.15309672277E+01 0.16931373174E+01 0.20151077420E+01
 0.25721384379E+01 0.34704513335E+01 0.48534212782E+01 0.69054011844E+01 0.98387320489E+01
 0.13844886753E+02 0.19001086603E+02 0.25156431501E+02 0.31858167845E+02 0.37748938636E+02
 0.42836977144E+02 0.46171377316E+02 0.31179976498E+02 0.30362703210E+02 0.28045898438E+02
 0.24600989395E+02 0.20542660930E+02 0.16401760605E+02 0.12606405644E+02 0.94131600013E+01
 0.69054011844E+01 0.50417117272E+01 0.37184662526E+01 0.28177830849E+01 0.22321957750E+01
 0.18724441406E+01 0.16680763358E+01 0.15671411789E+01 0.15372010664E+01 0.15671411789E+01
 0.16680763358E+01 0.18724441406E+01 0.22321957750E+01 0.28177830849E+01 0.37184662526E+01
 0.50417117272E+01 0.69054011844E+01 0.94131600013E+01 0.12606405644E+02 0.16401760605E+02
 0.20542660930E+02 0.24600989395E+02 0.28045898438E+02 0.30362703210E+02 0.19138183297E+02
 0.18659141823E+02 0.17302978416E+02 0.15290033950E+02 0.12920208965E+02 0.10497028672E+02
 0.82625105716E+01 0.63634479889E+01 0.48534212782E+01 0.37184662526E+01 0.29081157322E+01
 0.23590277919E+01 0.20082574269E+01 0.17994350163E+01 0.16858022778E+01 0.16322325008E+01
 0.16168553584E+01 0.16322325008E+01 0.16858022778E+01 0.17994350163E+01 0.20082574269E+01
 0.23590277919E+01 0.29081157322E+01 0.37184662526E+01 0.48534212782E+01 0.63634479889E+01
 0.82625105716E+01 0.10497028672E+02 0.12920208965E+02 0.15290033950E+02 0.17302978416E+02
 0.18659141823E+02 0.11536160491E+02 0.11270007154E+02 0.10515739225E+02 0.93934236733E+01
 0.80662940758E+01 0.67002320419E+01 0.54298479478E+01 0.43409363730E+01 0.34704513335E+01
 0.28177830849E+01 0.23590277919E+01 0.20588044077E+01 0.18783316174E+01 0.17807468536E+01
 0.17347101936E+01 0.17167167288E+01 0.17123357722E+01 0.17167167288E+01 0.17347101936E+01
 0.17807468536E+01 0.18783316174E+01 0.20588044077E+01 0.23590277919E+01 0.28177830849E+01
 0.34704513335E+01 0.43409363730E+01 0.54298479478E+01 0.67002320419E+01 0.80662940758E+01
 0.93934236733E+01 0.10515739225E+02 0.11270007154E+02 0.69650653633E+01 0.68212874049E+01
 0.64131599353E+01 0.58039784288E+01 0.50805980814E+01 0.43328752529E+01 0.36360841428E+01
 0.30409722361E+01 0.25721384379E+01 0.22321957750E+01 0.20082574269E+01 0.18783316174E+01
 0.18167047134E+01 0.17981837385E+01 0.18011665029E+01 0.18095115624E+01 0.18133881873E+01
 0.18095115624E+01 0.18011665029E+01 0.17981837385E+01 0.18167047134E+01 0.18783316174E+01
 0.20082574269E+01 0.22321957750E+01 0.25721384379E+01 0.30409722361E+01 0.36360841428E+01
 0.43328752529E+01 0.50805980814E+01 0.58039784288E+01 0.64131599353E+01 0.68212874049E+01
 0.42960109627E+01 0.42190811918E+01 0.40008110241E+01 0.36755017143E+01 0.32906740500E+01
 0.28962492853E+01 0.25349538735E+01 0.22363560471E+01 0.20151077420E+01 0.18724441406E+01
 0.17994350163E+01 0.17807468536E+01 0.17981837385E+01 0.18336324351E+01 0.18712452850E+01
 0.18988787299E+01 0.19089483743E+01 0.18988787299E+01 0.18712452850E+01 0.18336324351E+01
 0.17981837385E+01 0.17807468536E+01 0.17994350163E+01 0.18724441406E+01 0.20151077420E+01
 0.22363560471E+01 0.25349538735E+01 0.28962492853E+01 0.32906740500E+01 0.36755017143E+01
 0.40008110241E+01 0.42190811918E+01 0.27914902735E+01 0.27501087044E+01 0.26333372759E+01
 0.24613757385E+01 0.22621889237E+01 0.20650753531E+01 0.18948997744E+01 0.17684249576E+01
 0.16931373174E+01 0.16680763358E+01 0.16858022778E+01 0.17347101936E+01 0.18011665029E+01
 0.18712452850E+01 0.19321179195E+01 0.19732979275E+01 0.19878387339E+01 0.19732979275E+01
 0.19321179195E+01 0.18712452850E+01 0.18011665029E+01 0.17347101936E+01 0.16858022778E+01
 0.16680763358E+01 0.16931373174E+01 0.17684249576E+01 0.18948997744E+01 0.20650753531E+01
 0.22621889237E+01 0.24613757385E+01 0.26333372759E+01 0.27501087044E+01 0.20279985462E+01
 0.20042268367E+01 0.19378877902E+01 0.18425618454E+01 0.17368880229E+01 0.16400801033E+01
 0.15679482535E+01 0.15304399072E+01 0.15309672277E+01 0.15671411789E+01 0.16322325008E+01
 0.17167167288E+01 0.18095115624E+01 0.18988787299E+01 0.19732979275E+01 0.20226876139E+01
 0.20400007717E+01 0.20226876139E+01 0.19732979275E+01 0.18988787299E+01 0.18095115624E+01
 0.17167167288E+01 0.16322325008E+01 0.15671411789E+01 0.15309672277E+01 0.15304399072E+01
 0.15679482535E+01 0.16400801033E+01 0.17368880229E+01 0.18425618454E+01 0.19378877902E+01
 0.20042268367E+01 0.17946172817E+01 0.17762392454E+01 0.17253510582E+01 0.16535161720E+01
 0.15765290514E+01 0.15105207824E+01 0.14685218312E+01 0.14583717791E+01 0.14822101685E+01
 0.15372010664E+01 0.16168553584E+01 0.17123357722E+01 0.18133881873E+01 0.19089483743E+01
 0.19878387339E+01 0.20400007717E+01 0.20582618675E+01 0.20400007717E+01 0.19878387339E+01
 0.19089483743E+01 0.18133881873E+01 0.17123357722E+01 0.16168553584E+01 0.15372010664E+01
 0.14822101685E+01 0.14583717791E+01 0.14685218312E+01 0.15105207824E+01 0.15765290514E+01
 0.16535161720E+01 0.17253510582E+01 0.17762392454E+01 0.20279985462E+01 0.20042268367E+01
 0.19378877902E+01 0.18425618454E+01 0.17368880229E+01 0.16400801033E+01 0.15679482535E+01
 0.15304399072E+01 0.15309672277E+01 0.15671411789E+01 0.16322325008E+01 0.17167167288E+01
 0.18095115624E+01 0.18988787299E+01 0.19732979275E+01 0.20226876139E+01 0.20400007717E+01
 0.20226876139E+01 0.19732979275E+01 0.18988787299E+01 0.18095115624E+01 0.17167167288E+01
 0.16322325008E+01 0.15671411789E+01 0.15309672277E+01 0.15304399072E+01 0.15679482535E+01
 0.16400801033E+01 0.17368880229E+01 0.18425618454E+01 0.19378877902E+01 0.20042268367E+01
 0.27914902735E+01 0.27501087044E+01 0.26333372759E+01 0.24613757385E+01 0.22621889237E+01
 0.20650753531E+01 0.18948997744E+01 0.17684249576E+01 0.16931373174E+01 0.16680763358E+01
 0.16858022778E+01 0.17347101936E+01 0.18011665029E+01 0.18712452850E+01 0.19321179195E+01
 0.19732979275E+01 0.19878387339E+01 0.19732979275E+01 0.19321179195E+01 0.18712452850E+01
 0.18011665029E+01 0.17347101936E+01 0.16858022778E+01 0.16680763358E+01 0.16931373174E+01
 0.17684249576E+01 0.18948997744E+01 0.20650753531E+01 0.22621889237E+01 0.24613757385E+01