unknown system                          
   1.00000000000000     
     4.075449    0.000000    0.000000
     0.000000    4.075449    0.000000
     0.000000    0.000000    4.075449
   Cs   Cl
     1     1
Direct
   0.000000  0.000000  0.000000
   0.500000  0.500000  0.500000
 
   32   32   32
 0.13131615184E+09 0.49274788269E+05 0.40485185721E+04 0.20615390379E+04 0.66974019071E+03
 0.17536886909E+03 0.44068601389E+02 0.11202589304E+02 0.29075233058E+01 0.77108285750E+00
 0.20830019767E+00 0.56192569696E-01 0.16246320257E-01 0.39423066196E-02 0.16864316824E-02
 -.16916239666E-04 0.57940487750E-03 -.16916238309E-04 0.16864316826E-02 0.39423066202E-02
 0.16246320257E-01 0.56192569696E-01 0.20830019767E+00 0.77108285750E+00 0.29075233058E+01
 0.11202589304E+02 0.44068601389E+02 0.17536886909E+03 0.66974019071E+03 0.20615390379E+04
 0.40485185721E+04 0.49274788269E+05 0.49274788269E+05 0.15284463477E+05 0.34102368047E+04
 0.17681529283E+04 0.57145473268E+03 0.15300612133E+03 0.39319722730E+02 0.10172570142E+02
 0.26761761448E+01 0.71643981070E+00 0.19548296436E+00 0.52808115731E-01 0.15557699966E-01
 0.36225334385E-02 0.16926814394E-02 -.11159759182E-03 0.68296595521E-03 -.11159759148E-03
 0.16926814395E-02 0.36225334387E-02 0.15557699966E-01 0.52808115731E-01 0.19548296436E+00
 0.71643981070E+00 0.26761761448E+01 0.10172570142E+02 0.39319722730E+02 0.15300612133E+03
 0.57145473268E+03 0.17681529283E+04 0.34102368047E+04 0.15284463477E+05 0.40485185721E+04
 0.34102368047E+04 0.23818690191E+04 0.10890722274E+04 0.36002096725E+03 0.10305593250E+03
 0.28193824024E+02 0.76618156984E+01 0.20932743267E+01 0.57626575693E+00 0.16162177131E+00
 0.44149856458E-01 0.13429344657E-01 0.30110019973E-02 0.16285133122E-02 -.21802070522E-03
 0.69279488913E-03 -.21802070513E-03 0.16285133123E-02 0.30110019972E-02 0.13429344657E-01
 0.44149856458E-01 0.16162177131E+00 0.57626575693E+00 0.20932743267E+01 0.76618156984E+01
 0.28193824024E+02 0.10305593250E+03 0.36002096725E+03 0.10890722274E+04 0.23818690191E+04
 0.34102368047E+04 0.20615390379E+04 0.17681529283E+04 0.10890722274E+04 0.48869113671E+03
 0.17536869319E+03 0.55648177315E+02 0.16672625304E+02 0.48700218420E+01 0.14097623927E+01
 0.40488383790E+00 0.11809791729E+00 0.33196800194E-01 0.10347428305E-01 0.23782029679E-02
 0.12614369018E-02 -.15304890518E-03 0.57293145425E-03 -.15304890512E-03 0.12614369018E-02
 0.23782029678E-02 0.10347428305E-01 0.33196800194E-01 0.11809791729E+00 0.40488383790E+00
 0.14097623927E+01 0.48700218420E+01 0.16672625304E+02 0.55648177315E+02 0.17536869319E+03
 0.48869113671E+03 0.10890722274E+04 0.17681529283E+04 0.66974019071E+03 0.57145473268E+03
 0.36002096725E+03 0.17536869319E+03 0.70784152102E+02 0.25311860758E+02 0.84119456797E+01
 0.26760400925E+01 0.82995060430E+00 0.25305922382E+00 0.76224321914E-01 0.23135271689E-01
 0.66997030917E-02 0.22026016382E-02 0.50915970898E-03 0.31541723867E-03 -.16517574836E-04
 0.31541723830E-03 0.50915970900E-03 0.22026016381E-02 0.66997030917E-02 0.23135271689E-01
 0.76224321914E-01 0.25305922382E+00 0.82995060430E+00 0.26760400925E+01 0.84119456797E+01
 0.25311860758E+02 0.70784152102E+02 0.17536869319E+03 0.36002096725E+03 0.57145473268E+03
 0.17536886909E+03 0.15300612133E+03 0.10305593250E+03 0.55648177315E+02 0.25311860758E+02
 0.10172744492E+02 0.37508103004E+01 0.13046628564E+01 0.43466278753E+00 0.14195875947E+00
 0.44605525143E-01 0.14467882218E-01 0.41100248466E-02 0.16270585436E-02 0.14569912597E-03
 0.39492005924E-03 -.16055381980E-03 0.39492005903E-03 0.14569912595E-03 0.16270585435E-02
 0.41100248466E-02 0.14467882219E-01 0.44605525143E-01 0.14195875947E+00 0.43466278753E+00
 0.13046628564E+01 0.37508103004E+01 0.10172744492E+02 0.25311860758E+02 0.55648177315E+02
 0.10305593250E+03 0.15300612133E+03 0.44068601389E+02 0.39319722730E+02 0.28193824024E+02
 0.16672625304E+02 0.84119456798E+01 0.37508103004E+01 0.15226301494E+01 0.57704467382E+00
 0.20800942521E+00 0.71749076541E-01 0.24423777775E-01 0.78369578019E-02 0.27306294980E-02
 0.70842166477E-03 0.40987908097E-03 -.28228805371E-04 0.16006362520E-03 -.28228805409E-04
 0.40987908093E-03 0.70842166475E-03 0.27306294980E-02 0.78369578019E-02 0.24423777775E-01
 0.71749076541E-01 0.20800942521E+00 0.57704467382E+00 0.15226301494E+01 0.37508103004E+01
 0.84119456798E+01 0.16672625304E+02 0.28193824024E+02 0.39319722730E+02 0.11202589304E+02
 0.10172570142E+02 0.76618156983E+01 0.48700218420E+01 0.26760400924E+01 0.13046628563E+01
 0.57704467384E+00 0.23689912212E+00 0.91577391639E-01 0.33885734204E-01 0.12047527273E-01
 0.42072038801E-02 0.14110475956E-02 0.48663851979E-03 0.12228383500E-03 0.67778896853E-04
 0.29125436441E-04 0.67778896995E-04 0.12228383495E-03 0.48663851974E-03 0.14110475956E-02
 0.42072038802E-02 0.12047527273E-01 0.33885734204E-01 0.91577391639E-01 0.23689912212E+00
 0.57704467384E+00 0.13046628563E+01 0.26760400924E+01 0.48700218420E+01 0.76618156983E+01
 0.10172570142E+02 0.29075233054E+01 0.26761761448E+01 0.20932743267E+01 0.14097623929E+01
 0.82995060440E+00 0.43466278749E+00 0.20800942519E+00 0.91577391735E-01 0.37911720930E-01
 0.14911271291E-01 0.56161656193E-02 0.20644341154E-02 0.71564189499E-03 0.26671331123E-03
 0.10531446400E-03 0.45213105435E-04 0.25293556795E-05 0.45213105887E-04 0.10531446401E-03
 0.26671331117E-03 0.71564189499E-03 0.20644341155E-02 0.56161656193E-02 0.14911271291E-01
 0.37911720930E-01 0.91577391735E-01 0.20800942519E+00 0.43466278749E+00 0.82995060440E+00
 0.14097623929E+01 0.20932743267E+01 0.26761761448E+01 0.77108285720E+00 0.71643981067E+00
 0.57626575691E+00 0.40488383781E+00 0.25305922387E+00 0.14195875940E+00 0.71749076532E-01
 0.33885734283E-01 0.14911271064E-01 0.62025138209E-02 0.24873972795E-02 0.93651729003E-03
 0.37154659967E-03 0.11559061703E-03 0.21903407107E-04 -.23338368677E-05 0.25651306271E-04
 -.23338365102E-05 0.21903407074E-04 0.11559061694E-03 0.37154659967E-03 0.93651729002E-03
 0.24873972795E-02 0.62025138209E-02 0.14911271064E-01 0.33885734283E-01 0.71749076532E-01
 0.14195875940E+00 0.25305922387E+00 0.40488383781E+00 0.57626575691E+00 0.71643981067E+00
 0.20830019817E+00 0.19548296439E+00 0.16162177132E+00 0.11809791720E+00 0.76224322022E-01
 0.44605525204E-01 0.24423777738E-01 0.12047527330E-01 0.56161655216E-02 0.24873972430E-02
 0.10257156243E-02 0.43357287046E-03 0.14342618028E-03 0.73240283044E-04 0.67501464554E-04
 0.44497605140E-04 -.27362172406E-06 0.44497605351E-04 0.67501464542E-04 0.73240282956E-04
 0.14342618028E-03 0.43357287050E-03 0.10257156243E-02 0.24873972429E-02 0.56161655216E-02
 0.12047527330E-01 0.24423777738E-01 0.44605525204E-01 0.76224322022E-01 0.11809791720E+00
 0.16162177132E+00 0.19548296439E+00 0.56192569824E-01 0.52808115683E-01 0.44149856459E-01
 0.33196800259E-01 0.23135271900E-01 0.14467882290E-01 0.78369578118E-02 0.42072037265E-02
 0.20644342900E-02 0.93651730220E-03 0.43357285361E-03 0.15819180593E-03 0.97856546482E-04
 0.26920497272E-04 -.97390923003E-04 -.12049542937E-03 -.71414766927E-04 -.12049542934E-03
 -.97390922997E-04 0.26920497198E-04 0.97856546481E-04 0.15819180600E-03 0.43357285359E-03
 0.93651730219E-03 0.20644342900E-02 0.42072037265E-02 0.78369578118E-02 0.14467882290E-01
 0.23135271900E-01 0.33196800259E-01 0.44149856459E-01 0.52808115683E-01 0.16246320506E-01
 0.15557699842E-01 0.13429344525E-01 0.10347428309E-01 0.66997030917E-02 0.41100246836E-02
 0.27306295561E-02 0.14110475067E-02 0.71564195397E-03 0.37154646496E-03 0.14342626987E-03
 0.97856675445E-04 0.23713855097E-05 -.95766125979E-04 0.16086439412E-03 0.41143228239E-03
 0.41225696768E-03 0.41143228218E-03 0.16086439413E-03 -.95766125931E-04 0.23713855082E-05
 0.97856675449E-04 0.14342626985E-03 0.37154646491E-03 0.71564195397E-03 0.14110475069E-02
 0.27306295560E-02 0.41100246837E-02 0.66997030917E-02 0.10347428309E-01 0.13429344525E-01
 0.15557699842E-01 0.39423065391E-02 0.36225335399E-02 0.30110019411E-02 0.23782029745E-02
 0.22026014861E-02 0.16270584640E-02 0.70842145117E-03 0.48663855581E-03 0.26671355102E-03
 0.11559060078E-03 0.73240338022E-04 0.26920453589E-04 -.95766065056E-04 0.30784272982E-03
 0.44577849537E-03 -.11098621513E-03 -.25868666452E-03 -.11098621506E-03 0.44577849540E-03
 0.30784272991E-03 -.95766065058E-04 0.26920453580E-04 0.73240337997E-04 0.11559060067E-03
 0.26671355102E-03 0.48663855580E-03 0.70842145115E-03 0.16270584640E-02 0.22026014861E-02
 0.23782029746E-02 0.30110019411E-02 0.36225335396E-02 0.16864316819E-02 0.16926815263E-02
 0.16285134139E-02 0.12614368672E-02 0.50915966803E-03 0.14569914204E-03 0.40987905816E-03
 0.12228377914E-03 0.10531440607E-03 0.21903412664E-04 0.67501494960E-04 -.97390982214E-04
 0.16086429374E-03 0.44577849544E-03 -.63194143127E-03 -.11158708188E-02 -.12319696208E-02
 -.11158708188E-02 -.63194143127E-03 0.44577849562E-03 0.16086429374E-03 -.97390982303E-04
 0.67501494935E-04 0.21903412530E-04 0.10531440607E-03 0.12228377900E-03 0.40987905814E-03
 0.14569914194E-03 0.50915966802E-03 0.12614368673E-02 0.16285134139E-02 0.16926815260E-02
 -.16916089571E-04 -.11159769854E-03 -.21802076730E-03 -.15304898397E-03 0.31541714903E-03
 0.39492002351E-03 -.28228792491E-04 0.67778887969E-04 0.45213104244E-04 -.23337182744E-05
 0.44497629455E-04 -.12049539909E-03 0.41143219118E-03 -.11098615033E-03 -.11158706363E-02
 -.98235194400E-03 -.92819364727E-03 -.98235194400E-03 -.11158706363E-02 -.11098615020E-03
 0.41143219118E-03 -.12049539911E-03 0.44497629432E-04 -.23337182707E-05 0.45213104244E-04
 0.67778888017E-04 -.28228792509E-04 0.39492002347E-03 0.31541714903E-03 -.15304898400E-03
 -.21802076732E-03 -.11159769860E-03 0.57940371335E-03 0.68296598084E-03 0.69279492134E-03
 0.57293137314E-03 -.16517570316E-04 -.16055385696E-03 0.16006380145E-03 0.29125443182E-04
 0.25296249078E-05 0.25651128384E-04 -.27368622230E-06 -.71414720050E-04 0.41225694133E-03
 -.25868668305E-03 -.12319700558E-02 -.92819349902E-03 -.83352287766E-03 -.92819349902E-03
 -.12319700559E-02 -.25868668303E-03 0.41225694133E-03 -.71414720002E-04 -.27368624012E-06
 0.25651128421E-04 0.25296249078E-05 0.29125443258E-04 0.16006380144E-03 -.16055385696E-03
 -.16517570330E-04 0.57293137309E-03 0.69279492130E-03 0.68296598118E-03 -.16916087475E-04
 -.11159769770E-03 -.21802076719E-03 -.15304898394E-03 0.31541714905E-03 0.39492002349E-03
 -.28228792505E-04 0.67778888034E-04 0.45213104244E-04 -.23337182284E-05 0.44497629470E-04
 -.12049539910E-03 0.41143219118E-03 -.11098615030E-03 -.11158706363E-02 -.98235194446E-03
 -.92819364818E-03 -.98235194446E-03 -.11158706365E-02 -.11098615022E-03 0.41143219118E-03
 -.12049539912E-03 0.44497629451E-04 -.23337183237E-05 0.45213104244E-04 0.67778887955E-04
 -.28228792516E-04 0.39492002345E-03 0.31541714906E-03 -.15304898394E-03 -.21802076729E-03
 -.11159769807E-03 0.16864316820E-02 0.16926815265E-02 0.16285134140E-02 0.12614368672E-02
 0.50915966805E-03 0.14569914204E-03 0.40987905814E-03 0.12228377914E-03 0.10531440607E-03
 0.21903412738E-04 0.67501494985E-04 -.97390982208E-04 0.16086429374E-03 0.44577849547E-03
 -.63194143129E-03 -.11158708188E-02 -.12319696209E-02 -.11158708189E-02 -.63194143129E-03
 0.44577849565E-03 0.16086429374E-03 -.97390982298E-04 0.67501494963E-04 0.21903412529E-04
 0.10531440607E-03 0.12228377893E-03 0.40987905813E-03 0.14569914195E-03 0.50915966805E-03
 0.12614368674E-02 0.16285134142E-02 0.16926815262E-02 0.39423065384E-02 0.36225335400E-02
 0.30110019411E-02 0.23782029745E-02 0.22026014861E-02 0.16270584640E-02 0.70842145115E-03
 0.48663855591E-03 0.26671355102E-03 0.11559060079E-03 0.73240338045E-04 0.26920453592E-04
 -.95766065060E-04 0.30784272984E-03 0.44577849536E-03 -.11098621518E-03 -.25868666449E-03
 -.11098621513E-03 0.44577849538E-03 0.30784272993E-03 -.95766065057E-04 0.26920453580E-04
 0.73240338022E-04 0.11559060060E-03 0.26671355102E-03 0.48663855582E-03 0.70842145115E-03
 0.16270584640E-02 0.22026014861E-02 0.23782029746E-02 0.30110019411E-02 0.36225335397E-02
 0.16246320506E-01 0.15557699842E-01 0.13429344525E-01 0.10347428309E-01 0.66997030917E-02
 0.41100246836E-02 0.27306295561E-02 0.14110475068E-02 0.71564195397E-03 0.37154646491E-03
 0.14342626988E-03 0.97856675472E-04 0.23713855057E-05 -.95766126019E-04 0.16086439412E-03
 0.41143228231E-03 0.41225696769E-03 0.41143228213E-03 0.16086439412E-03 -.95766125972E-04
 0.23713855108E-05 0.97856675474E-04 0.14342626986E-03 0.37154646483E-03 0.71564195397E-03
 0.14110475069E-02 0.27306295560E-02 0.41100246837E-02 0.66997030917E-02 0.10347428309E-01
 0.13429344525E-01 0.15557699842E-01 0.56192569824E-01 0.52808115683E-01 0.44149856459E-01
 0.33196800259E-01 0.23135271900E-01 0.14467882290E-01 0.78369578118E-02 0.42072037264E-02
 0.20644342900E-02 0.93651730221E-03 0.43357285361E-03 0.15819180596E-03 0.97856546479E-04
 0.26920497247E-04 -.97390922982E-04 -.12049542938E-03 -.71414766833E-04 -.12049542936E-03
 -.97390922978E-04 0.26920497167E-04 0.97856546485E-04 0.15819180603E-03 0.43357285359E-03
 0.93651730222E-03 0.20644342900E-02 0.42072037265E-02 0.78369578118E-02 0.14467882290E-01
 0.23135271900E-01 0.33196800259E-01 0.44149856459E-01 0.52808115683E-01 0.20830019817E+00
 0.19548296439E+00 0.16162177132E+00 0.11809791720E+00 0.76224322022E-01 0.44605525204E-01
 0.24423777738E-01 0.12047527330E-01 0.56161655216E-02 0.24873972430E-02 0.10257156243E-02
 0.43357287049E-03 0.14342618028E-03 0.73240283042E-04 0.67501464576E-04 0.44497605200E-04
 -.27362171040E-06 0.44497605386E-04 0.67501464552E-04 0.73240282949E-04 0.14342618028E-03
 0.43357287053E-03 0.10257156243E-02 0.24873972429E-02 0.56161655216E-02 0.12047527330E-01
 0.24423777738E-01 0.44605525204E-01 0.76224322022E-01 0.11809791720E+00 0.16162177132E+00
 0.19548296439E+00 0.77108285720E+00 0.71643981067E+00 0.57626575691E+00 0.40488383781E+00
 0.25305922387E+00 0.14195875940E+00 0.71749076532E-01 0.33885734283E-01 0.14911271064E-01
 0.62025138209E-02 0.24873972795E-02 0.93651729006E-03 0.37154659967E-03 0.11559061703E-03
 0.21903407102E-04 -.23338368971E-05 0.25651306469E-04 -.23338363615E-05 0.21903407111E-04
 0.11559061692E-03 0.37154659967E-03 0.93651729005E-03 0.24873972795E-02 0.62025138209E-02
 0.14911271064E-01 0.33885734283E-01 0.71749076532E-01 0.14195875940E+00 0.25305922387E+00
 0.40488383781E+00 0.57626575691E+00 0.71643981067E+00 0.29075233054E+01 0.26761761448E+01
 0.20932743267E+01 0.14097623929E+01 0.82995060440E+00 0.43466278749E+00 0.20800942519E+00
 0.91577391735E-01 0.37911720930E-01 0.14911271291E-01 0.56161656193E-02 0.20644341154E-02
 0.71564189499E-03 0.26671331124E-03 0.10531446403E-03 0.45213105507E-04 0.25293557152E-05
 0.45213105954E-04 0.10531446403E-03 0.26671331118E-03 0.71564189500E-03 0.20644341155E-02
 0.56161656193E-02 0.14911271291E-01 0.37911720930E-01 0.91577391735E-01 0.20800942519E+00
 0.43466278749E+00 0.82995060440E+00 0.14097623929E+01 0.20932743267E+01 0.26761761448E+01
 0.11202589304E+02 0.10172570142E+02 0.76618156983E+01 0.48700218420E+01 0.26760400924E+01
 0.13046628563E+01 0.57704467384E+00 0.23689912212E+00 0.91577391639E-01 0.33885734204E-01
 0.12047527273E-01 0.42072038801E-02 0.14110475956E-02 0.48663851980E-03 0.12228383503E-03
 0.67778896905E-04 0.29125436476E-04 0.67778897077E-04 0.12228383498E-03 0.48663851975E-03
 0.14110475956E-02 0.42072038802E-02 0.12047527273E-01 0.33885734204E-01 0.91577391639E-01
 0.23689912212E+00 0.57704467384E+00 0.13046628563E+01 0.26760400924E+01 0.48700218420E+01
 0.76618156983E+01 0.10172570142E+02 0.44068601389E+02 0.39319722730E+02 0.28193824024E+02
 0.16672625304E+02 0.84119456798E+01 0.37508103004E+01 0.15226301494E+01 0.57704467382E+00
 0.20800942521E+00 0.71749076541E-01 0.24423777775E-01 0.78369578019E-02 0.27306294980E-02
 0.70842166481E-03 0.40987908097E-03 -.28228805384E-04 0.16006362517E-03 -.28228805456E-04
 0.40987908094E-03 0.70842166479E-03 0.27306294980E-02 0.78369578019E-02 0.24423777775E-01
 0.71749076541E-01 0.20800942521E+00 0.57704467382E+00 0.15226301494E+01 0.37508103004E+01
 0.84119456798E+01 0.16672625304E+02 0.28193824024E+02 0.39319722730E+02 0.17536886909E+03
 0.15300612133E+03 0.10305593250E+03 0.55648177315E+02 0.25311860758E+02 0.10172744492E+02
 0.37508103004E+01 0.13046628564E+01 0.43466278753E+00 0.14195875947E+00 0.44605525143E-01
 0.14467882219E-01 0.41100248466E-02 0.16270585436E-02 0.14569912598E-03 0.39492005924E-03
 -.16055381976E-03 0.39492005907E-03 0.14569912595E-03 0.16270585436E-02 0.41100248466E-02
 0.14467882219E-01 0.44605525143E-01 0.14195875947E+00 0.43466278753E+00 0.13046628564E+01
 0.37508103004E+01 0.10172744492E+02 0.25311860758E+02 0.55648177315E+02 0.10305593250E+03
 0.15300612133E+03 0.66974019071E+03 0.57145473268E+03 0.36002096725E+03 0.17536869319E+03
 0.70784152102E+02 0.25311860758E+02 0.84119456797E+01 0.26760400925E+01 0.82995060430E+00
 0.25305922382E+00 0.76224321914E-01 0.23135271689E-01 0.66997030917E-02 0.22026016382E-02
 0.50915970898E-03 0.31541723862E-03 -.16517574837E-04 0.31541723824E-03 0.50915970901E-03
 0.22026016382E-02 0.66997030917E-02 0.23135271689E-01 0.76224321914E-01 0.25305922382E+00
 0.82995060430E+00 0.26760400925E+01 0.84119456797E+01 0.25311860758E+02 0.70784152102E+02
 0.17536869319E+03 0.36002096725E+03 0.57145473268E+03 0.20615390379E+04 0.17681529283E+04
 0.10890722274E+04 0.48869113671E+03 0.17536869319E+03 0.55648177315E+02 0.16672625304E+02
 0.48700218420E+01 0.14097623927E+01 0.40488383790E+00 0.11809791729E+00 0.33196800194E-01
 0.10347428305E-01 0.23782029679E-02 0.12614369018E-02 -.15304890518E-03 0.57293145419E-03
 -.15304890509E-03 0.12614369018E-02 0.23782029678E-02 0.10347428305E-01 0.33196800194E-01
 0.11809791729E+00 0.40488383790E+00 0.14097623927E+01 0.48700218420E+01 0.16672625304E+02
 0.55648177315E+02 0.17536869319E+03 0.48869113671E+03 0.10890722274E+04 0.17681529283E+04
 0.40485185721E+04 0.34102368047E+04 0.23818690191E+04 0.10890722274E+04 0.36002096725E+03
 0.10305593250E+03 0.28193824024E+02 0.76618156984E+01 0.20932743267E+01 0.57626575693E+00
 0.16162177131E+00 0.44149856458E-01 0.13429344657E-01 0.30110019973E-02 0.16285133123E-02
 -.21802070524E-03 0.69279488912E-03 -.21802070510E-03 0.16285133123E-02 0.30110019973E-02
 0.13429344657E-01 0.44149856458E-01 0.16162177131E+00 0.57626575693E+00 0.20932743267E+01
 0.76618156984E+01 0.28193824024E+02 0.10305593250E+03 0.36002096725E+03 0.10890722274E+04
 0.23818690191E+04 0.34102368047E+04 0.49274788269E+05 0.15284463477E+05 0.34102368047E+04
 0.17681529283E+04 0.57145473268E+03 0.15300612133E+03 0.39319722730E+02 0.10172570142E+02
 0.26761761448E+01 0.71643981070E+00 0.19548296436E+00 0.52808115731E-01 0.15557699966E-01
 0.36225334385E-02 0.16926814394E-02 -.11159759185E-03 0.68296595526E-03 -.11159759157E-03
 0.16926814395E-02 0.36225334387E-02 0.15557699966E-01 0.52808115731E-01 0.19548296436E+00
 0.71643981070E+00 0.26761761448E+01 0.10172570142E+02 0.39319722730E+02 0.15300612133E+03
 0.57145473268E+03 0.17681529283E+04 0.34102368047E+04 0.15284463477E+05 0.49274788269E+05
 0.15284463477E+05 0.34102368047E+04 0.17681529283E+04 0.57145473268E+03 0.15300612133E+03
 0.39319722730E+02 0.10172570142E+02 0.26761761448E+01 0.71643981070E+00 0.19548296436E+00
 0.52808115733E-01 0.15557699966E-01 0.36225334406E-02 0.16926814394E-02 -.11159758911E-03
 0.68296598492E-03 -.11159758926E-03 0.16926814395E-02 0.36225334406E-02 0.15557699966E-01
 0.52808115733E-01 0.19548296436E+00 0.71643981070E+00 0.26761761448E+01 0.10172570142E+02
 0.39319722730E+02 0.15300612133E+03 0.57145473268E+03 0.17681529283E+04 0.34102368047E+04
 0.15284463477E+05 0.15284463477E+05 0.62226770961E+04 0.30501333563E+04 0.15080327585E+04
 0.48869089679E+03 0.13381732094E+03 0.35136738134E+02 0.92457996932E+01 0.24639227522E+01
 0.66591659222E+00 0.18350008888E+00 0.49661198434E-01 0.14871640751E-01 0.33503973152E-02
 0.17518570761E-02 -.21435175047E-03 0.73000212521E-03 -.21435175051E-03 0.17518570762E-02
 0.33503973152E-02 0.14871640751E-01 0.49661198434E-01 0.18350008888E+00 0.66591659222E+00
 0.24639227522E+01 0.92457996932E+01 0.35136738134E+02 0.13381732094E+03 0.48869089679E+03
 0.15080327585E+04 0.30501333563E+04 0.62226770961E+04 0.34102368047E+04 0.30501333563E+04
 0.20615380619E+04 0.92503989985E+03 0.31019428807E+03 0.90740947993E+02 0.25312447385E+02
 0.69858319988E+01 0.19320797829E+01 0.53637030076E+00 0.15179324920E+00 0.41604120537E-01
 0.12811955146E-01 0.28082558863E-02 0.15742824706E-02 -.24585349040E-03 0.73354152095E-03
 -.24585349031E-03 0.15742824706E-02 0.28082558862E-02 0.12811955146E-01 0.41604120537E-01
 0.15179324920E+00 0.53637030076E+00 0.19320797829E+01 0.69858319988E+01 0.25312447385E+02
 0.90740947993E+02 0.31019428807E+03 0.92503989985E+03 0.20615380619E+04 0.30501333563E+04
 0.17681529283E+04 0.15080327585E+04 0.92503989985E+03 0.41892334112E+03 0.15300621268E+03
 0.49477033273E+02 0.15067245911E+02 0.44593994614E+01 0.13053213868E+01 0.37797966961E+00
 0.11090301705E+00 0.31465607370E-01 0.97519011461E-02 0.23351148422E-02 0.11884804068E-02
 -.10651758697E-03 0.48102082618E-03 -.10651758707E-03 0.11884804068E-02 0.23351148422E-02
 0.97519011461E-02 0.31465607370E-01 0.11090301705E+00 0.37797966961E+00 0.13053213868E+01
 0.44593994614E+01 0.15067245911E+02 0.49477033273E+02 0.15300621268E+03 0.41892334112E+03
 0.92503989985E+03 0.15080327585E+04 0.57145473268E+03 0.48869089679E+03 0.31019428807E+03
 0.15300621268E+03 0.62700118840E+02 0.22757297871E+02 0.76621758626E+01 0.24636294797E+01
 0.77104154673E+00 0.23709581459E+00 0.71642476403E-01 0.22020147138E-01 0.62776485938E-02
 0.21892475223E-02 0.36251736484E-03 0.39918274608E-03 -.82623514496E-04 0.39918274580E-03
 0.36251736486E-03 0.21892475223E-02 0.62776485938E-02 0.22020147138E-01 0.71642476403E-01
 0.23709581459E+00 0.77104154673E+00 0.24636294797E+01 0.76621758626E+01 0.22757297871E+02
 0.62700118840E+02 0.15300621268E+03 0.31019428807E+03 0.48869089679E+03 0.15300612133E+03
 0.13381732094E+03 0.90740947993E+02 0.49477033273E+02 0.22757297871E+02 0.92462719581E+01
 0.34426383425E+01 0.12079929540E+01 0.40556408248E+00 0.13324146993E+00 0.42165711985E-01
 0.13681313778E-01 0.39466072349E-02 0.15247056405E-02 0.21379444168E-03 0.33704045133E-03
 -.13753556619E-03 0.33704045134E-03 0.21379444166E-03 0.15247056405E-02 0.39466072349E-02
 0.13681313778E-01 0.42165711985E-01 0.13324146993E+00 0.40556408248E+00 0.12079929540E+01
 0.34426383425E+01 0.92462719581E+01 0.22757297871E+02 0.49477033273E+02 0.90740947993E+02
 0.13381732094E+03 0.39319722730E+02 0.35136738134E+02 0.25312447385E+02 0.15067245911E+02
 0.76621758627E+01 0.34426383425E+01 0.14087266458E+01 0.53728414921E+00 0.19497304548E+00
 0.67569895348E-01 0.23139277396E-01 0.74300663112E-02 0.26285241682E-02 0.65815693149E-03
 0.36477570961E-03 -.34508726319E-04 0.18304624323E-03 -.34508726113E-04 0.36477570958E-03
 0.65815693146E-03 0.26285241682E-02 0.74300663112E-02 0.23139277396E-01 0.67569895348E-01
 0.19497304548E+00 0.53728414921E+00 0.14087266458E+01 0.34426383425E+01 0.76621758627E+01
 0.15067245911E+02 0.25312447385E+02 0.35136738134E+02 0.10172570142E+02 0.92457996933E+01
 0.69858319988E+01 0.44593994614E+01 0.24636294797E+01 0.12079929540E+01 0.53728414928E+00
 0.22189997519E+00 0.86140426680E-01 0.32058636572E-01 0.11412006075E-01 0.40305626991E-02
 0.13215523063E-02 0.48838142800E-03 0.14853671696E-03 0.79429835450E-04 -.12843785015E-05
 0.79429835588E-04 0.14853671692E-03 0.48838142799E-03 0.13215523063E-02 0.40305626991E-02
 0.11412006075E-01 0.32058636572E-01 0.86140426680E-01 0.22189997519E+00 0.53728414928E+00
 0.12079929540E+01 0.24636294797E+01 0.44593994614E+01 0.69858319988E+01 0.92457996933E+01
 0.26761761448E+01 0.24639227521E+01 0.19320797830E+01 0.13053213869E+01 0.77104154681E+00
 0.40556408263E+00 0.19497304555E+00 0.86140426676E-01 0.35844102003E-01 0.14123990837E-01
 0.53607580108E-02 0.19537064979E-02 0.70748932335E-03 0.24077479593E-03 0.56897323139E-04
 0.28513951178E-04 0.23853249700E-04 0.28513951419E-04 0.56897323135E-04 0.24077479590E-03
 0.70748932335E-03 0.19537064979E-02 0.53607580108E-02 0.14123990837E-01 0.35844102003E-01
 0.86140426676E-01 0.19497304555E+00 0.40556408263E+00 0.77104154681E+00 0.13053213869E+01
 0.19320797830E+01 0.24639227521E+01 0.71643981109E+00 0.66591659216E+00 0.53637030069E+00
 0.37797966963E+00 0.23709581464E+00 0.13324146989E+00 0.67569895333E-01 0.32058636585E-01
 0.14123990834E-01 0.59145897510E-02 0.23603995798E-02 0.91110369812E-03 0.33542098742E-03
 0.12192002359E-03 0.83994548273E-04 0.21275255970E-04 0.11070394284E-04 0.21275256248E-04
 0.83994548247E-04 0.12192002351E-03 0.33542098742E-03 0.91110369814E-03 0.23603995798E-02
 0.59145897510E-02 0.14123990834E-01 0.32058636585E-01 0.67569895333E-01 0.13324146989E+00
 0.23709581464E+00 0.37797966963E+00 0.53637030069E+00 0.66591659216E+00 0.19548296451E+00
 0.18350008882E+00 0.15179324932E+00 0.11090301701E+00 0.71642476370E-01 0.42165712054E-01
 0.23139277353E-01 0.11412006040E-01 0.53607578827E-02 0.23603996078E-02 0.99403872690E-03
 0.39973085736E-03 0.16168976560E-03 0.63063609053E-04 -.37821355885E-04 -.11096255550E-04
 -.44571934666E-05 -.11096255277E-04 -.37821355897E-04 0.63063608957E-04 0.16168976560E-03
 0.39973085742E-03 0.99403872689E-03 0.23603996078E-02 0.53607578827E-02 0.11412006040E-01
 0.23139277353E-01 0.42165712055E-01 0.71642476370E-01 0.11090301701E+00 0.15179324932E+00
 0.18350008882E+00 0.52808115780E-01 0.49661198485E-01 0.41604120525E-01 0.31465607342E-01
 0.22020147045E-01 0.13681313775E-01 0.74300663560E-02 0.40305627196E-02 0.19537065525E-02
 0.91110366999E-03 0.39973087448E-03 0.17361138951E-03 0.57825665621E-04 0.13370719453E-04
 0.13500164960E-03 0.11484718887E-03 0.93917424797E-04 0.11484718903E-03 0.13500164958E-03
 0.13370719408E-04 0.57825665620E-04 0.17361138954E-03 0.39973087445E-03 0.91110366995E-03
 0.19537065525E-02 0.40305627196E-02 0.74300663559E-02 0.13681313775E-01 0.22020147045E-01
 0.31465607342E-01 0.41604120525E-01 0.49661198485E-01 0.15557699736E-01 0.14871640687E-01
 0.12811955092E-01 0.97519011540E-02 0.62776487503E-02 0.39466071839E-02 0.26285242590E-02
 0.13215523750E-02 0.70748945874E-03 0.33542102544E-03 0.16168972538E-03 0.57825606834E-04
 0.42135799807E-04 0.13642742052E-03 -.16622302366E-03 -.39258548707E-03 -.42655963852E-03
 -.39258548728E-03 -.16622302368E-03 0.13642742058E-03 0.42135799807E-04 0.57825606822E-04
 0.16168972535E-03 0.33542102547E-03 0.70748945874E-03 0.13215523750E-02 0.26285242590E-02
 0.39466071839E-02 0.62776487503E-02 0.97519011540E-02 0.12811955092E-01 0.14871640687E-01
 0.36225335258E-02 0.33503973363E-02 0.28082558222E-02 0.23351148837E-02 0.21892475669E-02
 0.15247056716E-02 0.65815689263E-03 0.48838141108E-03 0.24077477076E-03 0.12191999734E-03
 0.63063518018E-04 0.13370725567E-04 0.13642736176E-03 -.31342544939E-03 -.42852915080E-03
 0.95894744035E-04 0.27539136416E-03 0.95894743836E-04 -.42852915078E-03 -.31342544934E-03
 0.13642736176E-03 0.13370725602E-04 0.63063517990E-04 0.12191999725E-03 0.24077477076E-03
 0.48838141101E-03 0.65815689262E-03 0.15247056716E-02 0.21892475669E-02 0.23351148837E-02
 0.28082558222E-02 0.33503973360E-02 0.16926817737E-02 0.17518571115E-02 0.15742823091E-02
 0.11884804667E-02 0.36251739444E-03 0.21379440879E-03 0.36477561840E-03 0.14853670773E-03
 0.56897317329E-04 0.83994460103E-04 -.37821383474E-04 0.13500164109E-03 -.16622304870E-03
 -.42852909039E-03 0.61906990771E-03 0.11389917955E-02 0.12245773265E-02 0.11389917954E-02
 0.61906990766E-03 -.42852909032E-03 -.16622304870E-03 0.13500164107E-03 -.37821383499E-04
 0.83994459990E-04 0.56897317329E-04 0.14853670758E-03 0.36477561838E-03 0.21379440876E-03
 0.36251739444E-03 0.11884804667E-02 0.15742823091E-02 0.17518571110E-02 -.11159756833E-03
 -.21435174804E-03 -.24585347508E-03 -.10651750956E-03 0.39918263293E-03 0.33704041021E-03
 -.34508735164E-04 0.79429849330E-04 0.28513880925E-04 0.21275263907E-04 -.11096220138E-04
 0.11484715328E-03 -.39258545262E-03 0.95894740824E-04 0.11389917605E-02 0.97634465556E-03
 0.95423432185E-03 0.97634465510E-03 0.11389917605E-02 0.95894740880E-04 -.39258545262E-03
 0.11484715328E-03 -.11096220156E-04 0.21275263904E-04 0.28513880925E-04 0.79429849218E-04
 -.34508735176E-04 0.33704041015E-03 0.39918263294E-03 -.10651750959E-03 -.24585347510E-03
 -.21435174815E-03 0.68296684413E-03 0.73000205474E-03 0.73354145810E-03 0.48102099642E-03
 -.82623657105E-04 -.13753559842E-03 0.18304623313E-03 -.12845014727E-05 0.23853221037E-04
 0.11070314137E-04 -.44569928516E-05 0.93917283811E-04 -.42655967570E-03 0.27539136232E-03
 0.12245770092E-02 0.95423413950E-03 0.82791110617E-03 0.95423413950E-03 0.12245770091E-02
 0.27539136236E-03 -.42655967571E-03 0.93917283816E-04 -.44569928682E-05 0.11070314198E-04
 0.23853221037E-04 -.12845015133E-05 0.18304623313E-03 -.13753559850E-03 -.82623657116E-04
 0.48102099638E-03 0.73354145805E-03 0.73000205545E-03 -.11159746044E-03 -.21435174561E-03
 -.24585347499E-03 -.10651750755E-03 0.39918263295E-03 0.33704041152E-03 -.34508735174E-04
 0.79429849762E-04 0.28513880926E-04 0.21275263449E-04 -.11096220120E-04 0.11484715200E-03
 -.39258545262E-03 0.95894738891E-04 0.11389917604E-02 0.97634465283E-03 0.95423429048E-03
 0.97634465283E-03 0.11389917605E-02 0.95894738948E-04 -.39258545262E-03 0.11484715195E-03
 -.11096220139E-04 0.21275263461E-04 0.28513880926E-04 0.79429849684E-04 -.34508735184E-04
 0.33704041143E-03 0.39918263296E-03 -.10651750754E-03 -.24585347507E-03 -.21435174567E-03
 0.16926814985E-02 0.17518571105E-02 0.15742823092E-02 0.11884804659E-02 0.36251739446E-03
 0.21379440826E-03 0.36477561838E-03 0.14853670747E-03 0.56897317329E-04 0.83994460302E-04
 -.37821383450E-04 0.13500164167E-03 -.16622304870E-03 -.42852908959E-03 0.61906990763E-03
 0.11389917966E-02 0.12245772791E-02 0.11389917965E-02 0.61906990769E-03 -.42852908947E-03
 -.16622304870E-03 0.13500164161E-03 -.37821383468E-04 0.83994460174E-04 0.56897317329E-04
 0.14853670738E-03 0.36477561837E-03 0.21379440819E-03 0.36251739446E-03 0.11884804660E-02