unknown system                          
   1.00000000000000     
     4.075449    0.000000    0.000000
     0.000000    4.075449    0.000000
     0.000000    0.000000    4.075449
   Cs   Cl
     1     1
Direct
   0.000000  0.000000  0.000000
   0.500000  0.500000  0.500000
 
   32   32   32
 0.95178741227E+05 0.33729851055E+03 0.15804372094E+03 0.41911279803E+02 0.13180675370E+02
 0.64105436939E+02 0.80104037230E+02 0.67997908307E+02 0.48514869028E+02 0.32033380228E+02
 0.19893985120E+02 0.12333987322E+02 0.77669326550E+01 0.51330862844E+01 0.36687466123E+01
 0.29509487983E+01 0.27284167557E+01 0.29509487983E+01 0.36687466123E+01 0.51330862844E+01
 0.77669326550E+01 0.12333987322E+02 0.19893985120E+02 0.32033380228E+02 0.48514869028E+02
 0.67997908307E+02 0.80104037230E+02 0.64105436939E+02 0.13180675370E+02 0.41911279803E+02
 0.15804372094E+03 0.33729851055E+03 0.33729851055E+03 0.50391284338E+00 0.16783111126E+03
 0.22194367248E+02 0.19400152859E+02 0.67571781325E+02 0.79832929550E+02 0.66674653381E+02
 0.47343255800E+02 0.31210192757E+02 0.19426690029E+02 0.12069817507E+02 0.76263194902E+01
 0.50551019051E+01 0.36283401463E+01 0.29246845366E+01 0.27095406091E+01 0.29246845366E+01
 0.36283401463E+01 0.50551019051E+01 0.76263194902E+01 0.12069817507E+02 0.19426690029E+02
 0.31210192757E+02 0.47343255800E+02 0.66674653381E+02 0.79832929550E+02 0.67571781325E+02
 0.19400152859E+02 0.22194367248E+02 0.16783111126E+03 0.50391284338E+00 0.15804372094E+03
 0.16783111126E+03 0.69805566609E+02 0.20716964448E+01 0.38954924191E+02 0.75107755485E+02
 0.78067213112E+02 0.62654662507E+02 0.43966816851E+02 0.28881166382E+02 0.18100469381E+02
 0.11320765661E+02 0.72242382315E+01 0.48347773304E+01 0.35120863927E+01 0.28496858868E+01
 0.26533916264E+01 0.28496858868E+01 0.35120863927E+01 0.48347773304E+01 0.72242382315E+01
 0.11320765661E+02 0.18100469381E+02 0.28881166382E+02 0.43966816851E+02 0.62654662507E+02
 0.78067213112E+02 0.75107755485E+02 0.38954924191E+02 0.20716964448E+01 0.69805566609E+02
 0.16783111126E+03 0.41911279803E+02 0.22194367248E+02 0.20716964448E+01 0.25986167236E+02
 0.64094931254E+02 0.80058136019E+02 0.73023562255E+02 0.56006527226E+02 0.38816316803E+02
 0.25432421138E+02 0.16122992989E+02 0.10201979557E+02 0.66192396290E+01 0.45029880831E+01
 0.33352987845E+01 0.27378137426E+01 0.25686043628E+01 0.27378137426E+01 0.33352987845E+01
 0.45029880831E+01 0.66192396290E+01 0.10201979557E+02 0.16122992989E+02 0.25432421138E+02
 0.38816316803E+02 0.56006527226E+02 0.73023562255E+02 0.80058136019E+02 0.64094931254E+02
 0.25986167236E+02 0.20716964448E+01 0.22194367248E+02 0.13180675370E+02 0.19400152859E+02
 0.38954924191E+02 0.64094931254E+02 0.79028473504E+02 0.77232168287E+02 0.63998984181E+02
 0.47355760557E+02 0.32882625863E+02 0.21401510384E+02 0.13768080457E+02 0.88773502311E+01
 0.58859539101E+01 0.41103887240E+01 0.31155856115E+01 0.26084732048E+01 0.24598727054E+01
 0.26084732048E+01 0.31155856115E+01 0.41103887240E+01 0.58859539101E+01 0.88773502311E+01
 0.13768080457E+02 0.21401510384E+02 0.32882625863E+02 0.47355760557E+02 0.63998984181E+02
 0.77232168287E+02 0.79028473504E+02 0.64094931254E+02 0.38954924191E+02 0.19400152859E+02
 0.64105436939E+02 0.67571781325E+02 0.75107755485E+02 0.80058136019E+02 0.77232168287E+02
 0.66670318426E+02 0.52188982414E+02 0.37857003265E+02 0.26095299674E+02 0.17289278064E+02
 0.11334715141E+02 0.75009265584E+01 0.51162866560E+01 0.36974356649E+01 0.28822215935E+01
 0.24750458666E+01 0.23455466297E+01 0.24750458666E+01 0.28822215935E+01 0.36974356649E+01
 0.51162866560E+01 0.75009265584E+01 0.11334715141E+02 0.17289278064E+02 0.26095299674E+02
 0.37857003265E+02 0.52188982414E+02 0.66670318426E+02 0.77232168287E+02 0.80058136019E+02
 0.75107755485E+02 0.67571781325E+02 0.80104037230E+02 0.79832929550E+02 0.78067213112E+02
 0.73023562255E+02 0.63998984181E+02 0.52188982414E+02 0.39801968876E+02 0.28896240056E+02
 0.19923466729E+02 0.13479144032E+02 0.90735582347E+01 0.61972924788E+01 0.43921602247E+01
 0.32974418365E+01 0.26672502958E+01 0.23436080799E+01 0.22452541993E+01 0.23436080799E+01
 0.26672502958E+01 0.32974418365E+01 0.43921602247E+01 0.61972924788E+01 0.90735582347E+01
 0.13479144032E+02 0.19923466729E+02 0.28896240056E+02 0.39801968876E+02 0.52188982414E+02
 0.63998984181E+02 0.73023562255E+02 0.78067213112E+02 0.79832929550E+02 0.67997908307E+02
 0.66674653381E+02 0.62654662507E+02 0.56006527226E+02 0.47355760557E+02 0.37857003265E+02
 0.28896240056E+02 0.20906860714E+02 0.14739826017E+02 0.10239082176E+02 0.71263036809E+01
 0.50670248376E+01 0.37552430041E+01 0.29485760459E+01 0.24788770940E+01 0.22361483619E+01
 0.21619011946E+01 0.22361483619E+01 0.24788770940E+01 0.29485760459E+01 0.37552430041E+01
 0.50670248376E+01 0.71263036809E+01 0.10239082176E+02 0.14739826017E+02 0.20906860714E+02
 0.28896240056E+02 0.37857003265E+02 0.47355760557E+02 0.56006527226E+02 0.62654662507E+02
 0.66674653381E+02 0.48514869028E+02 0.47343255800E+02 0.43966816851E+02 0.38816316803E+02
 0.32882625863E+02 0.26095299674E+02 0.19923466729E+02 0.14739826017E+02 0.10671265699E+02
 0.76679169239E+01 0.55623594497E+01 0.41490702394E+01 0.32345907929E+01 0.26664662593E+01
 0.23312839726E+01 0.21573277188E+01 0.21032658824E+01 0.21573277188E+01 0.23312839726E+01
 0.26664662593E+01 0.32345907929E+01 0.41490702394E+01 0.55623594497E+01 0.76679169239E+01
 0.10671265699E+02 0.14739826017E+02 0.19923466729E+02 0.26095299674E+02 0.32882625863E+02
 0.38816316803E+02 0.43966816851E+02 0.47343255800E+02 0.32033380228E+02 0.31210192757E+02
 0.28881166382E+02 0.25432421138E+02 0.21401510384E+02 0.17289278064E+02 0.13479144032E+02
 0.10239082176E+02 0.76679169239E+01 0.57449072807E+01 0.43776935394E+01 0.34461695148E+01
 0.28372064640E+01 0.24541453710E+01 0.22280383583E+01 0.21103568470E+01 0.20743739043E+01
 0.21103568470E+01 0.22280383583E+01 0.24541453710E+01 0.28372064640E+01 0.34461695148E+01
 0.43776935394E+01 0.57449072807E+01 0.76679169239E+01 0.10239082176E+02 0.13479144032E+02
 0.17289278064E+02 0.21401510384E+02 0.25432421138E+02 0.28881166382E+02 0.31210192757E+02
 0.19893985120E+02 0.19426690029E+02 0.18100469381E+02 0.16122992989E+02 0.13768080457E+02
 0.11334715141E+02 0.90735582347E+01 0.71263036809E+01 0.55623594497E+01 0.43776935394E+01
 0.35241275674E+01 0.29377858028E+01 0.25513991946E+01 0.23102747506E+01 0.21682343286E+01
 0.20946324114E+01 0.20717343432E+01 0.20946324114E+01 0.21682343286E+01 0.23102747506E+01
 0.25513991946E+01 0.29377858028E+01 0.35241275674E+01 0.43776935394E+01 0.55623594497E+01
 0.71263036809E+01 0.90735582347E+01 0.11334715141E+02 0.13768080457E+02 0.16122992989E+02
 0.18100469381E+02 0.19426690029E+02 0.12333987322E+02 0.12069817507E+02 0.11320765661E+02
 0.10201979557E+02 0.88773502311E+01 0.75009265584E+01 0.61972924788E+01 0.50670248376E+01
 0.41490702394E+01 0.34461695148E+01 0.29377858028E+01 0.25879609915E+01 0.23617852115E+01
 0.22219301510E+01 0.21415501486E+01 0.21021774018E+01 0.20907861685E+01 0.21021774018E+01
 0.21415501486E+01 0.22219301510E+01 0.23617852115E+01 0.25879609915E+01 0.29377858028E+01
 0.34461695148E+01 0.41490702394E+01 0.50670248376E+01 0.61972924788E+01 0.75009265584E+01
 0.88773502311E+01 0.10201979557E+02 0.11320765661E+02 0.12069817507E+02 0.77669326550E+01
 0.76263194902E+01 0.72242382315E+01 0.66192396290E+01 0.58859539101E+01 0.51162866560E+01
 0.43921602247E+01 0.37552430041E+01 0.32345907929E+01 0.28372064640E+01 0.25513991946E+01
 0.23617852115E+01 0.22429503481E+01 0.21756846130E+01 0.21455975205E+01 0.21340251851E+01
 0.21308674059E+01 0.21340251851E+01 0.21455975205E+01 0.21756846130E+01 0.22429503481E+01
 0.23617852115E+01 0.25513991946E+01 0.28372064640E+01 0.32345907929E+01 0.37552430041E+01
 0.43921602247E+01 0.51162866560E+01 0.58859539101E+01 0.66192396290E+01 0.72242382315E+01
 0.76263194902E+01 0.51330862844E+01 0.50551019051E+01 0.48347773304E+01 0.45029880831E+01
 0.41103887240E+01 0.36974356649E+01 0.32974418365E+01 0.29485760459E+01 0.26664662593E+01
 0.24541453710E+01 0.23102747506E+01 0.22219301510E+01 0.21756846130E+01 0.21643286680E+01
 0.21662233384E+01 0.21683318241E+01 0.21700754377E+01 0.21683318241E+01 0.21662233384E+01
 0.21643286680E+01 0.21756846130E+01 0.22219301510E+01 0.23102747506E+01 0.24541453710E+01
 0.26664662593E+01 0.29485760459E+01 0.32974418365E+01 0.36974356649E+01 0.41103887240E+01
 0.45029880831E+01 0.48347773304E+01 0.50551019051E+01 0.36687466123E+01 0.36283401463E+01
 0.35120863927E+01 0.33352987845E+01 0.31155856115E+01 0.28822215935E+01 0.26672502958E+01
 0.24788770940E+01 0.23312839726E+01 0.22280383583E+01 0.21682343286E+01 0.21415501486E+01
 0.21455975205E+01 0.21662233384E+01 0.21821731392E+01 0.21966281471E+01 0.22011860875E+01
 0.21966281471E+01 0.21821731392E+01 0.21662233384E+01 0.21455975205E+01 0.21415501486E+01
 0.21682343286E+01 0.22280383583E+01 0.23312839726E+01 0.24788770940E+01 0.26672502958E+01
 0.28822215935E+01 0.31155856115E+01 0.33352987845E+01 0.35120863927E+01 0.36283401463E+01
 0.29509487983E+01 0.29246845366E+01 0.28496858868E+01 0.27378137426E+01 0.26084732048E+01
 0.24750458666E+01 0.23436080799E+01 0.22361483619E+01 0.21573277188E+01 0.21103568470E+01
 0.20946324114E+01 0.21021774018E+01 0.21340251851E+01 0.21683318241E+01 0.21966281471E+01
 0.22185572026E+01 0.22265215001E+01 0.22185572026E+01 0.21966281471E+01 0.21683318241E+01
 0.21340251851E+01 0.21021774018E+01 0.20946324114E+01 0.21103568470E+01 0.21573277188E+01
 0.22361483619E+01 0.23436080799E+01 0.24750458666E+01 0.26084732048E+01 0.27378137426E+01
 0.28496858868E+01 0.29246845366E+01 0.27284167557E+01 0.27095406091E+01 0.26533916264E+01
 0.25686043628E+01 0.24598727054E+01 0.23455466297E+01 0.22452541993E+01 0.21619011946E+01
 0.21032658824E+01 0.20743739043E+01 0.20717343432E+01 0.20907861685E+01 0.21308674059E+01
 0.21700754377E+01 0.22011860875E+01 0.22265215001E+01 0.22351383578E+01 0.22265215001E+01
 0.22011860875E+01 0.21700754377E+01 0.21308674059E+01 0.20907861685E+01 0.20717343432E+01
 0.20743739043E+01 0.21032658824E+01 0.21619011946E+01 0.22452541993E+01 0.23455466297E+01
 0.24598727054E+01 0.25686043628E+01 0.26533916264E+01 0.27095406091E+01 0.29509487983E+01
 0.29246845366E+01 0.28496858868E+01 0.27378137426E+01 0.26084732048E+01 0.24750458666E+01
 0.23436080799E+01 0.22361483619E+01 0.21573277188E+01 0.21103568470E+01 0.20946324114E+01
 0.21021774018E+01 0.21340251851E+01 0.21683318241E+01 0.21966281471E+01 0.22185572026E+01
 0.22265215001E+01 0.22185572026E+01 0.21966281471E+01 0.21683318241E+01 0.21340251851E+01
 0.21021774018E+01 0.20946324114E+01 0.21103568470E+01 0.21573277188E+01 0.22361483619E+01
 0.23436080799E+01 0.24750458666E+01 0.26084732048E+01 0.27378137426E+01 0.28496858868E+01
 0.29246845366E+01 0.36687466123E+01 0.36283401463E+01 0.35120863927E+01 0.33352987845E+01
 0.31155856115E+01 0.28822215935E+01 0.26672502958E+01 0.24788770940E+01 0.23312839726E+01
 0.22280383583E+01 0.21682343286E+01 0.21415501486E+01 0.21455975205E+01 0.21662233384E+01
 0.21821731392E+01 0.21966281471E+01 0.22011860875E+01 0.21966281471E+01 0.21821731392E+01
 0.21662233384E+01 0.21455975205E+01 0.21415501486E+01 0.21682343286E+01 0.22280383583E+01
 0.23312839726E+01 0.24788770940E+01 0.26672502958E+01 0.28822215935E+01 0.31155856115E+01
 0.33352987845E+01 0.35120863927E+01 0.36283401463E+01 0.51330862844E+01 0.50551019051E+01
 0.48347773304E+01 0.45029880831E+01 0.41103887240E+01 0.36974356649E+01 0.32974418365E+01
 0.29485760459E+01 0.26664662593E+01 0.24541453710E+01 0.23102747506E+01 0.22219301510E+01
 0.21756846130E+01 0.21643286680E+01 0.21662233384E+01 0.21683318241E+01 0.21700754377E+01
 0.21683318241E+01 0.21662233384E+01 0.21643286680E+01 0.21756846130E+01 0.22219301510E+01
 0.23102747506E+01 0.24541453710E+01 0.26664662593E+01 0.29485760459E+01 0.32974418365E+01
 0.36974356649E+01 0.41103887240E+01 0.45029880831E+01 0.48347773304E+01 0.50551019051E+01
 0.77669326550E+01 0.76263194902E+01 0.72242382315E+01 0.66192396290E+01 0.58859539101E+01
 0.51162866560E+01 0.43921602247E+01 0.37552430041E+01 0.32345907929E+01 0.28372064640E+01
 0.25513991946E+01 0.23617852115E+01 0.22429503481E+01 0.21756846130E+01 0.21455975205E+01
 0.21340251851E+01 0.21308674059E+01 0.21340251851E+01 0.21455975205E+01 0.21756846130E+01
 0.22429503481E+01 0.23617852115E+01 0.25513991946E+01 0.28372064640E+01 0.32345907929E+01
 0.37552430041E+01 0.43921602247E+01 0.51162866560E+01 0.58859539101E+01 0.66192396290E+01
 0.72242382315E+01 0.76263194902E+01 0.12333987322E+02 0.12069817507E+02 0.11320765661E+02
 0.10201979557E+02 0.88773502311E+01 0.75009265584E+01 0.61972924788E+01 0.50670248376E+01
 0.41490702394E+01 0.34461695148E+01 0.29377858028E+01 0.25879609915E+01 0.23617852115E+01
 0.22219301510E+01 0.21415501486E+01 0.21021774018E+01 0.20907861685E+01 0.21021774018E+01
 0.21415501486E+01 0.22219301510E+01 0.23617852115E+01 0.25879609915E+01 0.29377858028E+01
 0.34461695148E+01 0.41490702394E+01 0.50670248376E+01 0.61972924788E+01 0.75009265584E+01
 0.88773502311E+01 0.10201979557E+02 0.11320765661E+02 0.12069817507E+02 0.19893985120E+02
 0.19426690029E+02 0.18100469381E+02 0.16122992989E+02 0.13768080457E+02 0.11334715141E+02
 0.90735582347E+01 0.71263036809E+01 0.55623594497E+01 0.43776935394E+01 0.35241275674E+01
 0.29377858028E+01 0.25513991946E+01 0.23102747506E+01 0.21682343286E+01 0.20946324114E+01
 0.20717343432E+01 0.20946324114E+01 0.21682343286E+01 0.23102747506E+01 0.25513991946E+01
 0.29377858028E+01 0.35241275674E+01 0.43776935394E+01 0.55623594497E+01 0.71263036809E+01
 0.90735582347E+01 0.11334715141E+02 0.13768080457E+02 0.16122992989E+02 0.18100469381E+02
 0.19426690029E+02 0.32033380228E+02 0.31210192757E+02 0.28881166382E+02 0.25432421138E+02
 0.21401510384E+02 0.17289278064E+02 0.13479144032E+02 0.10239082176E+02 0.76679169239E+01
 0.57449072807E+01 0.43776935394E+01 0.34461695148E+01 0.28372064640E+01 0.24541453710E+01
 0.22280383583E+01 0.21103568470E+01 0.20743739043E+01 0.21103568470E+01 0.22280383583E+01
 0.24541453710E+01 0.28372064640E+01 0.34461695148E+01 0.43776935394E+01 0.57449072807E+01
 0.76679169239E+01 0.10239082176E+02 0.13479144032E+02 0.17289278064E+02 0.21401510384E+02
 0.25432421138E+02 0.28881166382E+02 0.31210192757E+02 0.48514869028E+02 0.47343255800E+02
 0.43966816851E+02 0.38816316803E+02 0.32882625863E+02 0.26095299674E+02 0.19923466729E+02
 0.14739826017E+02 0.10671265699E+02 0.76679169239E+01 0.55623594497E+01 0.41490702394E+01
 0.32345907929E+01 0.26664662593E+01 0.23312839726E+01 0.21573277188E+01 0.21032658824E+01
 0.21573277188E+01 0.23312839726E+01 0.26664662593E+01 0.32345907929E+01 0.41490702394E+01
 0.55623594497E+01 0.76679169239E+01 0.10671265699E+02 0.14739826017E+02 0.19923466729E+02
 0.26095299674E+02 0.32882625863E+02 0.38816316803E+02 0.43966816851E+02 0.47343255800E+02
 0.67997908307E+02 0.66674653381E+02 0.62654662507E+02 0.56006527226E+02 0.47355760557E+02
 0.37857003265E+02 0.28896240056E+02 0.20906860714E+02 0.14739826017E+02 0.10239082176E+02
 0.71263036809E+01 0.50670248376E+01 0.37552430041E+01 0.29485760459E+01 0.24788770940E+01
 0.22361483619E+01 0.21619011946E+01 0.22361483619E+01 0.24788770940E+01 0.29485760459E+01
 0.37552430041E+01 0.50670248376E+01 0.71263036809E+01 0.10239082176E+02 0.14739826017E+02
 0.20906860714E+02 0.28896240056E+02 0.37857003265E+02 0.47355760557E+02 0.56006527226E+02
 0.62654662507E+02 0.66674653381E+02 0.80104037230E+02 0.79832929550E+02 0.78067213112E+02
 0.73023562255E+02 0.63998984181E+02 0.52188982414E+02 0.39801968876E+02 0.28896240056E+02
 0.19923466729E+02 0.13479144032E+02 0.90735582347E+01 0.61972924788E+01 0.43921602247E+01
 0.32974418365E+01 0.26672502958E+01 0.23436080799E+01 0.22452541993E+01 0.23436080799E+01
 0.26672502958E+01 0.32974418365E+01 0.43921602247E+01 0.61972924788E+01 0.90735582347E+01
 0.13479144032E+02 0.19923466729E+02 0.28896240056E+02 0.39801968876E+02 0.52188982414E+02
 0.63998984181E+02 0.73023562255E+02 0.78067213112E+02 0.79832929550E+02 0.64105436939E+02
 0.67571781325E+02 0.75107755485E+02 0.80058136019E+02 0.77232168287E+02 0.66670318426E+02
 0.52188982414E+02 0.37857003265E+02 0.26095299674E+02 0.17289278064E+02 0.11334715141E+02
 0.75009265584E+01 0.51162866560E+01 0.36974356649E+01 0.28822215935E+01 0.24750458666E+01
 0.23455466297E+01 0.24750458666E+01 0.28822215935E+01 0.36974356649E+01 0.51162866560E+01
 0.75009265584E+01 0.11334715141E+02 0.17289278064E+02 0.26095299674E+02 0.37857003265E+02
 0.52188982414E+02 0.66670318426E+02 0.77232168287E+02 0.80058136019E+02 0.75107755485E+02
 0.67571781325E+02 0.13180675370E+02 0.19400152859E+02 0.38954924191E+02 0.64094931254E+02
 0.79028473504E+02 0.77232168287E+02 0.63998984181E+02 0.47355760557E+02 0.32882625863E+02
 0.21401510384E+02 0.13768080457E+02 0.88773502311E+01 0.58859539101E+01 0.41103887240E+01
 0.31155856115E+01 0.26084732048E+01 0.24598727054E+01 0.26084732048E+01 0.31155856115E+01
 0.41103887240E+01 0.58859539101E+01 0.88773502311E+01 0.13768080457E+02 0.21401510384E+02
 0.32882625863E+02 0.47355760557E+02 0.63998984181E+02 0.77232168287E+02 0.79028473504E+02
 0.64094931254E+02 0.38954924191E+02 0.19400152859E+02 0.41911279803E+02 0.22194367248E+02
 0.20716964448E+01 0.25986167236E+02 0.64094931254E+02 0.80058136019E+02 0.73023562255E+02
 0.56006527226E+02 0.38816316803E+02 0.25432421138E+02 0.16122992989E+02 0.10201979557E+02
 0.66192396290E+01 0.45029880831E+01 0.33352987845E+01 0.27378137426E+01 0.25686043628E+01
 0.27378137426E+01 0.33352987845E+01 0.45029880831E+01 0.66192396290E+01 0.10201979557E+02
 0.16122992989E+02 0.25432421138E+02 0.38816316803E+02 0.56006527226E+02 0.73023562255E+02
 0.80058136019E+02 0.64094931254E+02 0.25986167236E+02 0.20716964448E+01 0.22194367248E+02
 0.15804372094E+03 0.16783111126E+03 0.69805566609E+02 0.20716964448E+01 0.38954924191E+02
 0.75107755485E+02 0.78067213112E+02 0.62654662507E+02 0.43966816851E+02 0.28881166382E+02
 0.18100469381E+02 0.11320765661E+02 0.72242382315E+01 0.48347773304E+01 0.35120863927E+01
 0.28496858868E+01 0.26533916264E+01 0.28496858868E+01 0.35120863927E+01 0.48347773304E+01
 0.72242382315E+01 0.11320765661E+02 0.18100469381E+02 0.28881166382E+02 0.43966816851E+02
 0.62654662507E+02 0.78067213112E+02 0.75107755485E+02 0.38954924191E+02 0.20716964448E+01
 0.69805566609E+02 0.16783111126E+03 0.33729851055E+03 0.50391284338E+00 0.16783111126E+03
 0.22194367248E+02 0.19400152859E+02 0.67571781325E+02 0.79832929550E+02 0.66674653381E+02
 0.47343255800E+02 0.31210192757E+02 0.19426690029E+02 0.12069817507E+02 0.76263194902E+01
 0.50551019051E+01 0.36283401463E+01 0.29246845366E+01 0.27095406091E+01 0.29246845366E+01
 0.36283401463E+01 0.50551019051E+01 0.76263194902E+01 0.12069817507E+02 0.19426690029E+02
 0.31210192757E+02 0.47343255800E+02 0.66674653381E+02 0.79832929550E+02 0.67571781325E+02
 0.19400152859E+02 0.22194367248E+02 0.16783111126E+03 0.50391284338E+00 0.33729851055E+03
 0.50391284338E+00 0.16783111126E+03 0.22194367248E+02 0.19400152859E+02 0.67571781325E+02
 0.79832929550E+02 0.66674653381E+02 0.47343255800E+02 0.31210192757E+02 0.19426690029E+02
 0.12069817507E+02 0.76263194902E+01 0.50551019051E+01 0.36283401463E+01 0.29246845366E+01
 0.27095406091E+01 0.29246845366E+01 0.36283401463E+01 0.50551019051E+01 0.76263194902E+01
 0.12069817507E+02 0.19426690029E+02 0.31210192757E+02 0.47343255800E+02 0.66674653381E+02
 0.79832929550E+02 0.67571781325E+02 0.19400152859E+02 0.22194367248E+02 0.16783111126E+03
 0.50391284338E+00 0.50391284338E+00 0.84626322205E+02 0.14185794926E+03 0.99056779296E+01
 0.25967010749E+02 0.70544269837E+02 0.79390037791E+02 0.65339366029E+02 0.46195426259E+02
 0.30410433835E+02 0.18972822794E+02 0.11812927627E+02 0.74894552764E+01 0.49797574923E+01
 0.35894181239E+01 0.28987703269E+01 0.26908938577E+01 0.28987703269E+01 0.35894181239E+01
 0.49797574923E+01 0.74894552764E+01 0.11812927627E+02 0.18972822794E+02 0.30410433835E+02
 0.46195426259E+02 0.65339366029E+02 0.79390037791E+02 0.70544269837E+02 0.25967010749E+02
 0.99056779296E+01 0.14185794926E+03 0.84626322205E+02 0.16783111126E+03 0.14185794926E+03
 0.41901530091E+02 0.37824298341E+01 0.44969644955E+02 0.76773355700E+02 0.77228332844E+02
 0.61309791550E+02 0.42889869297E+02 0.28149546175E+02 0.17683885847E+02 0.11084917694E+02
 0.70984776289E+01 0.47654171646E+01 0.34765862551E+01 0.28271608926E+01 0.26375620621E+01
 0.28271608926E+01 0.34765862551E+01 0.47654171646E+01 0.70984776289E+01 0.11084917694E+02
 0.17683885847E+02 0.28149546175E+02 0.42889869297E+02 0.61309791550E+02 0.77228332844E+02
 0.76773355700E+02 0.44969644955E+02 0.37824298341E+01 0.41901530091E+02 0.14185794926E+03
 0.22194367248E+02 0.99056779296E+01 0.37824298341E+01 0.32567474515E+02 0.67563293453E+02
 0.80199250158E+02 0.71818682276E+02 0.54714684023E+02 0.37857208237E+02 0.24804749986E+02
 0.15760353245E+02 0.99985581164E+01 0.65089712905E+01 0.44448997589E+01 0.33049215510E+01
 0.27201579097E+01 0.25550813985E+01 0.27201579097E+01 0.33049215510E+01 0.44448997589E+01
 0.65089712905E+01 0.99985581164E+01 0.15760353245E+02 0.24804749986E+02 0.37857208237E+02
 0.54714684023E+02 0.71818682276E+02 0.80199250158E+02 0.67563293453E+02 0.32567474515E+02
 0.37824298341E+01 0.99056779296E+01 0.19400152859E+02 0.25967010749E+02 0.44969644955E+02
 0.67563293453E+02 0.79688768938E+02 0.76291911923E+02 0.62656032760E+02 0.46207775390E+02
 0.32038914189E+02 0.20893732553E+02 0.13469698473E+02 0.87120046242E+01 0.57954524281E+01
 0.40649215864E+01 0.30918343168E+01 0.25982920606E+01 0.24513723775E+01 0.25982920606E+01
 0.30918343168E+01 0.40649215864E+01 0.57954524281E+01 0.87120046242E+01 0.13469698473E+02
 0.20893732553E+02 0.32038914189E+02 0.46207775390E+02 0.62656032760E+02 0.76291911923E+02
 0.79688768938E+02 0.67563293453E+02 0.44969644955E+02 0.25967010749E+02 0.67571781325E+02
 0.70544269837E+02 0.76773355700E+02 0.80199250158E+02 0.76291911923E+02 0.65338846919E+02
 0.50953060306E+02 0.36921944484E+02 0.25451126192E+02 0.16897153227E+02 0.11105458928E+02
 0.73728749716E+01 0.50489881045E+01 0.36650517139E+01 0.28691143587E+01 0.24708159661E+01
 0.23443265956E+01 0.24708159661E+01 0.28691143587E+01 0.36650517139E+01 0.50489881045E+01
 0.73728749716E+01 0.11105458928E+02 0.16897153227E+02 0.25451126192E+02 0.36921944484E+02
 0.50953060306E+02 0.65338846919E+02 0.76291911923E+02 0.80199250158E+02 0.76773355700E+02
 0.70544269837E+02 0.79832929550E+02 0.79390037791E+02 0.77228332844E+02 0.71818682276E+02
 0.62656032760E+02 0.50953060306E+02 0.38820205704E+02 0.28170222448E+02 0.19459156563E+02
 0.13193492225E+02 0.89072761843E+01 0.61060775052E+01 0.43473266854E+01 0.32789528617E+01
 0.26645355478E+01 0.23487782137E+01 0.22531925754E+01 0.23487782137E+01 0.26645355478E+01
 0.32789528617E+01 0.43473266854E+01 0.61060775052E+01 0.89072761843E+01 0.13193492225E+02
 0.19459156563E+02 0.28170222448E+02 0.38820205704E+02 0.50953060306E+02 0.62656032760E+02
 0.71818682276E+02 0.77228332844E+02 0.79390037791E+02 0.66674653381E+02 0.65339366029E+02
 0.61309791550E+02 0.54714684023E+02 0.46207775390E+02 0.36921944484E+02 0.28170222448E+02
 0.20415029712E+02 0.14420879405E+02 0.10043629289E+02 0.70141072828E+01 0.50091987298E+01
 0.37309757683E+01 0.29458575813E+01 0.24881403820E+01 0.22516192932E+01 0.21790616027E+01
 0.22516192932E+01 0.24881403820E+01 0.29458575813E+01 0.37309757683E+01 0.50091987298E+01
 0.70141072828E+01 0.10043629289E+02 0.14420879405E+02 0.20415029712E+02 0.28170222448E+02
 0.36921944484E+02 0.46207775390E+02 0.54714684023E+02 0.61309791550E+02 0.65339366029E+02
 0.47343255800E+02 0.46195426259E+02 0.42889869297E+02 0.37857208237E+02 0.32038914189E+02
 0.25451126192E+02 0.19459156563E+02 0.14420879405E+02 0.10464882508E+02 0.75432567709E+01
 0.54947341063E+01 0.41194539420E+01 0.32305593559E+01 0.26780598377E+01 0.23531713645E+01
 0.21852139571E+01 0.21331909327E+01 0.21852139571E+01 0.23531713645E+01 0.26780598377E+01
 0.32305593559E+01 0.41194539420E+01 0.54947341063E+01 0.75432567709E+01 0.10464882508E+02
 0.14420879405E+02 0.19459156563E+02 0.25451126192E+02 0.32038914189E+02 0.37857208237E+02
 0.42889869297E+02 0.46195426259E+02 0.31210192757E+02 0.30410433835E+02 0.28149546175E+02
 0.24804749986E+02 0.20893732553E+02 0.16897153227E+02 0.13193492225E+02 0.10043629289E+02
 0.75432567709E+01 0.56736237147E+01 0.43447969373E+01 0.34408870034E+01 0.28508104375E+01
 0.24820276000E+01 0.22649394810E+01 0.21517450679E+01 0.21171575285E+01 0.21517450679E+01
 0.22649394810E+01 0.24820276000E+01 0.28508104375E+01 0.34408870034E+01 0.43447969373E+01
 0.56736237147E+01 0.75432567709E+01 0.10043629289E+02 0.13193492225E+02 0.16897153227E+02
 0.20893732553E+02 0.24804749986E+02 0.28149546175E+02 0.30410433835E+02 0.19426690029E+02
 0.18972822794E+02 0.17683885847E+02 0.15760353245E+02 0.13469698473E+02 0.11105458928E+02
 0.89072761843E+01 0.70141072828E+01 0.54947341063E+01 0.43447969373E+01 0.35183624927E+01
 0.29525174464E+01 0.25828121906E+01 0.23526048231E+01 0.22183307469E+01 0.21507882062E+01
 0.21300092148E+01 0.21507882062E+01 0.22183307469E+01 0.23526048231E+01 0.25828121906E+01
 0.29525174464E+01 0.35183624927E+01 0.43447969373E+01 0.54947341063E+01 0.70141072828E+01
 0.89072761843E+01 0.11105458928E+02 0.13469698473E+02 0.15760353245E+02 0.17683885847E+02
 0.18972822794E+02 0.12069817507E+02 0.11812927627E+02 0.11084917694E+02 0.99985581164E+01
 0.87120046242E+01 0.73728749716E+01 0.61060775052E+01 0.50091987298E+01 0.41194539420E+01
 0.34408870034E+01 0.29525174464E+01 0.26205121716E+01 0.24072752079E+01 0.22802246527E+01
 0.22118053408E+01 0.21778122344E+01 0.21680699858E+01 0.21778122344E+01 0.22118053408E+01
 0.22802246527E+01 0.24072752079E+01 0.26205121716E+01 0.29525174464E+01 0.34408870034E+01
 0.41194539420E+01 0.50091987298E+01 0.61060775052E+01 0.73728749716E+01 0.87120046242E+01
 0.99985581164E+01 0.11084917694E+02 0.11812927627E+02 0.76263194902E+01 0.74894552764E+01
 0.70984776289E+01 0.65089712905E+01 0.57954524281E+01 0.50489881045E+01 0.43473266854E+01
 0.37309757683E+01 0.32305593559E+01 0.28508104375E+01 0.25828121906E+01 0.24072752079E+01
 0.23045299263E+01 0.22524317810E+01 0.22260510266E+01 0.22166301856E+01 0.22143381294E+01
 0.22166301856E+01 0.22260510266E+01 0.22524317810E+01 0.23045299263E+01 0.24072752079E+01
 0.25828121906E+01 0.28508104375E+01 0.32305593559E+01 0.37309757683E+01 0.43473266854E+01
 0.50489881045E+01 0.57954524281E+01 0.65089712905E+01 0.70984776289E+01 0.74894552764E+01
 0.50551019051E+01 0.49797574923E+01 0.47654171646E+01 0.44448997589E+01 0.40649215864E+01
 0.36650517139E+01 0.32789528617E+01 0.29458575813E+01 0.26780598377E+01 0.24820276000E+01
 0.23526048231E+01 0.22802246527E+01 0.22524317810E+01 0.22450976290E+01 0.22537360106E+01
 0.22672215958E+01 0.22729260126E+01 0.22672215958E+01 0.22537360106E+01 0.22450976290E+01
 0.22524317810E+01 0.22802246527E+01 0.23526048231E+01 0.24820276000E+01 0.26780598377E+01
 0.29458575813E+01 0.32789528617E+01 0.36650517139E+01 0.40649215864E+01 0.44448997589E+01
 0.47654171646E+01 0.49797574923E+01 0.36283401463E+01 0.35894181239E+01 0.34765862551E+01
 0.33049215510E+01 0.30918343168E+01 0.28691143587E+01 0.26645355478E+01 0.24881403820E+01
 0.23531713645E+01 0.22649394810E+01 0.22183307469E+01 0.22118053408E+01 0.22260510266E+01
 0.22537360106E+01 0.22917221057E+01 0.23190047662E+01 0.23293571554E+01 0.23190047662E+01
 0.22917221057E+01 0.22537360106E+01 0.22260510266E+01 0.22118053408E+01 0.22183307469E+01
 0.22649394810E+01 0.23531713645E+01 0.24881403820E+01 0.26645355478E+01 0.28691143587E+01
 0.30918343168E+01 0.33049215510E+01 0.34765862551E+01 0.35894181239E+01 0.29246845366E+01
 0.28987703269E+01 0.28271608926E+01 0.27201579097E+01 0.25982920606E+01 0.24708159661E+01
 0.23487782137E+01 0.22516192932E+01 0.21852139571E+01 0.21517450679E+01 0.21507882062E+01
 0.21778122344E+01 0.22166301856E+01 0.22672215958E+01 0.23190047662E+01 0.23526848973E+01
 0.23652334820E+01 0.23526848973E+01 0.23190047662E+01 0.22672215958E+01 0.22166301856E+01
 0.21778122344E+01 0.21507882062E+01 0.21517450679E+01 0.21852139571E+01 0.22516192932E+01
 0.23487782137E+01 0.24708159661E+01 0.25982920606E+01 0.27201579097E+01 0.28271608926E+01
 0.28987703269E+01 0.27095406091E+01 0.26908938577E+01 0.26375620621E+01 0.25550813985E+01
 0.24513723775E+01 0.23443265956E+01 0.22531925754E+01 0.21790616027E+01 0.21331909327E+01
 0.21171575285E+01 0.21300092148E+01 0.21680699858E+01 0.22143381294E+01 0.22729260126E+01
 0.23293571554E+01 0.23652334820E+01 0.23779154232E+01 0.23652334820E+01 0.23293571554E+01
 0.22729260126E+01 0.22143381294E+01 0.21680699858E+01 0.21300092148E+01 0.21171575285E+01
 0.21331909327E+01 0.21790616027E+01 0.22531925754E+01 0.23443265956E+01 0.24513723775E+01
 0.25550813985E+01 0.26375620621E+01 0.26908938577E+01 0.29246845366E+01 0.28987703269E+01
 0.28271608926E+01 0.27201579097E+01 0.25982920606E+01 0.24708159661E+01 0.23487782137E+01
 0.22516192932E+01 0.21852139571E+01 0.21517450679E+01 0.21507882062E+01 0.21778122344E+01
 0.22166301856E+01 0.22672215958E+01 0.23190047662E+01 0.23526848973E+01 0.23652334820E+01
 0.23526848973E+01 0.23190047662E+01 0.22672215958E+01 0.22166301856E+01 0.21778122344E+01
 0.21507882062E+01 0.21517450679E+01 0.21852139571E+01 0.22516192932E+01 0.23487782137E+01
 0.24708159661E+01 0.25982920606E+01 0.27201579097E+01 0.28271608926E+01 0.28987703269E+01
 0.36283401463E+01 0.35894181239E+01 0.34765862551E+01 0.33049215510E+01 0.30918343168E+01
 0.28691143587E+01 0.26645355478E+01 0.24881403820E+01 0.23531713645E+01 0.22649394810E+01
 0.22183307469E+01 0.22118053408E+01 0.22260510266E+01 0.22537360106E+01 0.22917221057E+01
 0.23190047662E+01 0.23293571554E+01 0.23190047662E+01 0.22917221057E+01 0.22537360106E+01
 0.22260510266E+01 0.22118053408E+01 0.22183307469E+01 0.22649394810E+01 0.23531713645E+01
 0.24881403820E+01 0.26645355478E+01 0.28691143587E+01 0.30918343168E+01 0.33049215510E+01