unknown system                          
   1.00000000000000     
     4.075449    0.000000    0.000000
     0.000000    4.075449    0.000000
     0.000000    0.000000    4.075449
   Cs   Cl
     1     1
Direct
   0.000000  0.000000  0.000000
   0.500000  0.500000  0.500000
 
   32   32   32
 -.51886468353E+02 -.60165072964E+02 -.58295946032E+02 -.54986713799E+02 -.49921181568E+02
 -.45366362519E+02 -.39099058148E+02 -.32817755667E+02 -.25995150361E+02 -.19638508656E+02
 -.13411677311E+02 -.93132122237E+01 -.59479617727E+01 -.40383648688E+01 -.17118680281E+01
 -.11431246730E+01 -.13747607544E+01 -.11431246730E+01 -.17118680281E+01 -.40383648688E+01
 -.59479617727E+01 -.93132122237E+01 -.13411677311E+02 -.19638508656E+02 -.25995150361E+02
 -.32817755667E+02 -.39099058148E+02 -.45366362519E+02 -.49921181568E+02 -.54986713799E+02
 -.58295946032E+02 -.60165072964E+02 -.60165072964E+02 -.60014978719E+02 -.58061056412E+02
 -.53900553497E+02 -.49671885713E+02 -.44613775951E+02 -.38743869913E+02 -.32177458761E+02
 -.25737230081E+02 -.19120670187E+02 -.13284966175E+02 -.89981417734E+01 -.59574212391E+01
 -.38005188797E+01 -.17925974215E+01 -.92948718070E+00 -.14739509467E+01 -.92948718070E+00
 -.17925974215E+01 -.38005188797E+01 -.59574212391E+01 -.89981417734E+01 -.13284966175E+02
 -.19120670187E+02 -.25737230081E+02 -.32177458761E+02 -.38743869913E+02 -.44613775951E+02
 -.49671885713E+02 -.53900553497E+02 -.58061056412E+02 -.60014978719E+02 -.58295946032E+02
 -.58061056412E+02 -.55444491063E+02 -.51868760301E+02 -.47964294706E+02 -.42954479291E+02
 -.37177301884E+02 -.30781346667E+02 -.24502209317E+02 -.18046103313E+02 -.12490147681E+02
 -.85059462665E+01 -.55734581412E+01 -.35489643613E+01 -.15464442047E+01 -.78904447541E+00
 -.14176929417E+01 -.78904447541E+00 -.15464442047E+01 -.35489643613E+01 -.55734581412E+01
 -.85059462665E+01 -.12490147681E+02 -.18046103313E+02 -.24502209317E+02 -.30781346667E+02
 -.37177301884E+02 -.42954479291E+02 -.47964294706E+02 -.51868760301E+02 -.55444491063E+02
 -.58061056412E+02 -.54986713799E+02 -.53900553497E+02 -.51868760301E+02 -.49095594278E+02
 -.45201131445E+02 -.40302315490E+02 -.34573437980E+02 -.28600442209E+02 -.22449112417E+02
 -.16385312930E+02 -.11253101688E+02 -.77605751091E+01 -.49481602280E+01 -.31346594795E+01
 -.11938252823E+01 -.53516489524E+00 -.12894739448E+01 -.53516489524E+00 -.11938252823E+01
 -.31346594795E+01 -.49481602280E+01 -.77605751091E+01 -.11253101688E+02 -.16385312930E+02
 -.22449112417E+02 -.28600442209E+02 -.34573437980E+02 -.40302315490E+02 -.45201131445E+02
 -.49095594278E+02 -.51868760301E+02 -.53900553497E+02 -.49921181568E+02 -.49671885713E+02
 -.47964294706E+02 -.45201131445E+02 -.41293227322E+02 -.36616917290E+02 -.31221004611E+02
 -.25634590035E+02 -.19754145298E+02 -.14197490987E+02 -.98222467223E+01 -.67142783426E+01
 -.42403947117E+01 -.25136022062E+01 -.77001504265E+00 -.22538611676E+00 -.12480073568E+01
 -.22538611676E+00 -.77001504265E+00 -.25136022062E+01 -.42403947117E+01 -.67142783426E+01
 -.98222467223E+01 -.14197490987E+02 -.19754145298E+02 -.25634590035E+02 -.31221004611E+02
 -.36616917290E+02 -.41293227322E+02 -.45201131445E+02 -.47964294706E+02 -.49671885713E+02
 -.45366362519E+02 -.44613775951E+02 -.42954479291E+02 -.40302315490E+02 -.36616917290E+02
 -.32192170011E+02 -.27216978666E+02 -.22045037284E+02 -.16546760994E+02 -.11833867395E+02
 -.82362773215E+01 -.55496132045E+01 -.33779795485E+01 -.18244104358E+01 -.20101749630E+00
 -.73322494840E-01 -.11141756493E+01 -.73322494840E-01 -.20101749630E+00 -.18244104358E+01
 -.33779795485E+01 -.55496132045E+01 -.82362773215E+01 -.11833867395E+02 -.16546760994E+02
 -.22045037284E+02 -.27216978666E+02 -.32192170011E+02 -.36616917290E+02 -.40302315490E+02
 -.42954479291E+02 -.44613775951E+02 -.39099058148E+02 -.38743869913E+02 -.37177301884E+02
 -.34573437980E+02 -.31221004611E+02 -.27216978666E+02 -.22808421038E+02 -.17889638177E+02
 -.13235233323E+02 -.95168770928E+01 -.66044971172E+01 -.43078072050E+01 -.24863290842E+01
 -.99416344593E+00 0.22155389580E+00 -.65991597591E-01 -.88473609406E+00 -.65991597591E-01
 0.22155389580E+00 -.99416344593E+00 -.24863290842E+01 -.43078072050E+01 -.66044971172E+01
 -.95168770928E+01 -.13235233323E+02 -.17889638177E+02 -.22808421038E+02 -.27216978666E+02
 -.31221004611E+02 -.34573437980E+02 -.37177301884E+02 -.38743869913E+02 -.32817755667E+02
 -.32177458761E+02 -.30781346667E+02 -.28600442209E+02 -.25634590035E+02 -.22045037284E+02
 -.17889638177E+02 -.13752690640E+02 -.10232688876E+02 -.73551691118E+01 -.49993094972E+01
 -.30970291119E+01 -.15151404703E+01 -.18855288302E+00 0.38375871570E+00 -.14723608058E+00
 -.56831148841E+00 -.14723608058E+00 0.38375871570E+00 -.18855288302E+00 -.15151404703E+01
 -.30970291119E+01 -.49993094972E+01 -.73551691118E+01 -.10232688876E+02 -.13752690640E+02
 -.17889638177E+02 -.22045037284E+02 -.25634590035E+02 -.28600442209E+02 -.30781346667E+02
 -.32177458761E+02 -.25995150361E+02 -.25737230081E+02 -.24502209317E+02 -.22449112417E+02
 -.19754145298E+02 -.16546760994E+02 -.13235233323E+02 -.10232688876E+02 -.76226588693E+01
 -.53789064372E+01 -.35127964513E+01 -.18961405568E+01 -.56300274322E+00 0.31428112118E+00
 0.20799676491E+00 -.13728915858E+00 -.17008791002E+00 -.13728915858E+00 0.20799676491E+00
 0.31428112118E+00 -.56300274322E+00 -.18961405568E+01 -.35127964513E+01 -.53789064372E+01
 -.76226588693E+01 -.10232688876E+02 -.13235233323E+02 -.16546760994E+02 -.19754145298E+02
 -.22449112417E+02 -.24502209317E+02 -.25737230081E+02 -.19638508656E+02 -.19120670187E+02
 -.18046103313E+02 -.16385312930E+02 -.14197490987E+02 -.11833867395E+02 -.95168770928E+01
 -.73551691118E+01 -.53789064372E+01 -.36628517338E+01 -.21079558993E+01 -.79827754835E+00
 0.17093935474E+00 0.29231495154E+00 0.42677282360E-01 0.71207003844E-01 0.13620958479E+00
 0.71207003844E-01 0.42677282361E-01 0.29231495154E+00 0.17093935474E+00 -.79827754835E+00
 -.21079558993E+01 -.36628517338E+01 -.53789064372E+01 -.73551691118E+01 -.95168770928E+01
 -.11833867395E+02 -.14197490987E+02 -.16385312930E+02 -.18046103313E+02 -.19120670187E+02
 -.13411677311E+02 -.13284966175E+02 -.12490147681E+02 -.11253101688E+02 -.98222467223E+01
 -.82362773215E+01 -.66044971172E+01 -.49993094972E+01 -.35127964513E+01 -.21079558993E+01
 -.87649644140E+00 0.85194422743E-01 0.28229834717E+00 0.82485472467E-01 0.15631406026E+00
 0.35058029869E+00 0.41020606952E+00 0.35058029869E+00 0.15631406026E+00 0.82485472467E-01
 0.28229834717E+00 0.85194422742E-01 -.87649644140E+00 -.21079558993E+01 -.35127964513E+01
 -.49993094972E+01 -.66044971172E+01 -.82362773215E+01 -.98222467223E+01 -.11253101688E+02
 -.12490147681E+02 -.13284966175E+02 -.93132122237E+01 -.89981417734E+01 -.85059462665E+01
 -.77605751091E+01 -.67142783426E+01 -.55496132045E+01 -.43078072050E+01 -.30970291119E+01
 -.18961405568E+01 -.79827754835E+00 0.85194422743E-01 0.27025295901E+00 0.73730319540E-01
 0.16296715450E+00 0.39295949222E+00 0.53423018135E+00 0.59520949096E+00 0.53423018135E+00
 0.39295949222E+00 0.16296715450E+00 0.73730319540E-01 0.27025295901E+00 0.85194422742E-01
 -.79827754835E+00 -.18961405568E+01 -.30970291119E+01 -.43078072050E+01 -.55496132045E+01
 -.67142783426E+01 -.77605751091E+01 -.85059462665E+01 -.89981417734E+01 -.59479617727E+01
 -.59574212391E+01 -.55734581412E+01 -.49481602280E+01 -.42403947117E+01 -.33779795485E+01
 -.24863290842E+01 -.15151404703E+01 -.56300274322E+00 0.17093935474E+00 0.28229834717E+00
 0.73730319540E-01 0.16420812176E+00 0.40732983600E+00 0.55823152896E+00 0.64988598914E+00
 0.66039524567E+00 0.64988598914E+00 0.55823152896E+00 0.40732983600E+00 0.16420812176E+00
 0.73730319540E-01 0.28229834717E+00 0.17093935474E+00 -.56300274322E+00 -.15151404703E+01
 -.24863290842E+01 -.33779795485E+01 -.42403947117E+01 -.49481602280E+01 -.55734581412E+01
 -.59574212391E+01 -.40383648688E+01 -.38005188797E+01 -.35489643613E+01 -.31346594795E+01
 -.25136022062E+01 -.18244104358E+01 -.99416344593E+00 -.18855288302E+00 0.31428112118E+00
 0.29231495154E+00 0.82485472467E-01 0.16296715450E+00 0.40732983600E+00 0.55501208751E+00
 0.67919610983E+00 0.73830297986E+00 0.78993093420E+00 0.73830297986E+00 0.67919610983E+00
 0.55501208751E+00 0.40732983600E+00 0.16296715450E+00 0.82485472467E-01 0.29231495154E+00
 0.31428112118E+00 -.18855288302E+00 -.99416344593E+00 -.18244104358E+01 -.25136022062E+01
 -.31346594795E+01 -.35489643613E+01 -.38005188797E+01 -.17118680281E+01 -.17925974215E+01
 -.15464442047E+01 -.11938252823E+01 -.77001504265E+00 -.20101749630E+00 0.22155389580E+00
 0.38375871570E+00 0.20799676491E+00 0.42677282360E-01 0.15631406026E+00 0.39295949222E+00
 0.55823152896E+00 0.67919610983E+00 0.79275101543E+00 0.91449276294E+00 0.93408027448E+00
 0.91449276294E+00 0.79275101543E+00 0.67919610983E+00 0.55823152896E+00 0.39295949222E+00
 0.15631406026E+00 0.42677282360E-01 0.20799676491E+00 0.38375871570E+00 0.22155389580E+00
 -.20101749630E+00 -.77001504265E+00 -.11938252823E+01 -.15464442047E+01 -.17925974215E+01
 -.11431246730E+01 -.92948718070E+00 -.78904447541E+00 -.53516489524E+00 -.22538611676E+00
 -.73322494840E-01 -.65991597591E-01 -.14723608058E+00 -.13728915858E+00 0.71207003844E-01
 0.35058029869E+00 0.53423018135E+00 0.64988598914E+00 0.73830297986E+00 0.91449276294E+00
 0.10006469609E+01 0.10638726453E+01 0.10006469609E+01 0.91449276294E+00 0.73830297986E+00
 0.64988598914E+00 0.53423018135E+00 0.35058029869E+00 0.71207003844E-01 -.13728915858E+00
 -.14723608058E+00 -.65991597592E-01 -.73322494840E-01 -.22538611676E+00 -.53516489524E+00
 -.78904447541E+00 -.92948718070E+00 -.13747607544E+01 -.14739509467E+01 -.14176929417E+01
 -.12894739448E+01 -.12480073568E+01 -.11141756493E+01 -.88473609406E+00 -.56831148842E+00
 -.17008791002E+00 0.13620958479E+00 0.41020606952E+00 0.59520949096E+00 0.66039524567E+00
 0.78993093420E+00 0.93408027448E+00 0.10638726453E+01 0.10833255095E+01 0.10638726453E+01
 0.93408027448E+00 0.78993093420E+00 0.66039524567E+00 0.59520949096E+00 0.41020606952E+00
 0.13620958479E+00 -.17008791002E+00 -.56831148842E+00 -.88473609406E+00 -.11141756493E+01
 -.12480073568E+01 -.12894739448E+01 -.14176929417E+01 -.14739509467E+01 -.11431246730E+01
 -.92948718070E+00 -.78904447541E+00 -.53516489524E+00 -.22538611676E+00 -.73322494840E-01
 -.65991597591E-01 -.14723608058E+00 -.13728915858E+00 0.71207003844E-01 0.35058029869E+00
 0.53423018135E+00 0.64988598914E+00 0.73830297986E+00 0.91449276294E+00 0.10006469609E+01
 0.10638726453E+01 0.10006469609E+01 0.91449276294E+00 0.73830297986E+00 0.64988598914E+00
 0.53423018135E+00 0.35058029869E+00 0.71207003844E-01 -.13728915858E+00 -.14723608058E+00
 -.65991597591E-01 -.73322494840E-01 -.22538611676E+00 -.53516489524E+00 -.78904447541E+00
 -.92948718070E+00 -.17118680281E+01 -.17925974215E+01 -.15464442047E+01 -.11938252823E+01
 -.77001504265E+00 -.20101749630E+00 0.22155389580E+00 0.38375871570E+00 0.20799676491E+00
 0.42677282360E-01 0.15631406026E+00 0.39295949222E+00 0.55823152896E+00 0.67919610983E+00
 0.79275101543E+00 0.91449276294E+00 0.93408027448E+00 0.91449276294E+00 0.79275101543E+00
 0.67919610983E+00 0.55823152896E+00 0.39295949222E+00 0.15631406026E+00 0.42677282360E-01
 0.20799676491E+00 0.38375871570E+00 0.22155389580E+00 -.20101749630E+00 -.77001504265E+00
 -.11938252823E+01 -.15464442047E+01 -.17925974215E+01 -.40383648688E+01 -.38005188797E+01
 -.35489643613E+01 -.31346594795E+01 -.25136022062E+01 -.18244104358E+01 -.99416344593E+00
 -.18855288302E+00 0.31428112118E+00 0.29231495154E+00 0.82485472467E-01 0.16296715450E+00
 0.40732983600E+00 0.55501208751E+00 0.67919610983E+00 0.73830297986E+00 0.78993093420E+00
 0.73830297986E+00 0.67919610983E+00 0.55501208751E+00 0.40732983600E+00 0.16296715450E+00
 0.82485472467E-01 0.29231495154E+00 0.31428112118E+00 -.18855288302E+00 -.99416344593E+00
 -.18244104358E+01 -.25136022062E+01 -.31346594795E+01 -.35489643613E+01 -.38005188797E+01
 -.59479617727E+01 -.59574212391E+01 -.55734581412E+01 -.49481602280E+01 -.42403947117E+01
 -.33779795485E+01 -.24863290842E+01 -.15151404703E+01 -.56300274322E+00 0.17093935474E+00
 0.28229834717E+00 0.73730319540E-01 0.16420812176E+00 0.40732983600E+00 0.55823152896E+00
 0.64988598914E+00 0.66039524567E+00 0.64988598914E+00 0.55823152896E+00 0.40732983600E+00
 0.16420812176E+00 0.73730319540E-01 0.28229834717E+00 0.17093935474E+00 -.56300274322E+00
 -.15151404703E+01 -.24863290842E+01 -.33779795485E+01 -.42403947117E+01 -.49481602280E+01
 -.55734581412E+01 -.59574212391E+01 -.93132122237E+01 -.89981417734E+01 -.85059462665E+01
 -.77605751091E+01 -.67142783426E+01 -.55496132045E+01 -.43078072050E+01 -.30970291119E+01
 -.18961405568E+01 -.79827754835E+00 0.85194422742E-01 0.27025295901E+00 0.73730319540E-01
 0.16296715450E+00 0.39295949222E+00 0.53423018135E+00 0.59520949096E+00 0.53423018135E+00
 0.39295949222E+00 0.16296715450E+00 0.73730319540E-01 0.27025295901E+00 0.85194422742E-01
 -.79827754835E+00 -.18961405568E+01 -.30970291119E+01 -.43078072050E+01 -.55496132045E+01
 -.67142783426E+01 -.77605751091E+01 -.85059462665E+01 -.89981417734E+01 -.13411677311E+02
 -.13284966175E+02 -.12490147681E+02 -.11253101688E+02 -.98222467223E+01 -.82362773215E+01
 -.66044971172E+01 -.49993094972E+01 -.35127964513E+01 -.21079558993E+01 -.87649644140E+00
 0.85194422742E-01 0.28229834717E+00 0.82485472467E-01 0.15631406026E+00 0.35058029869E+00
 0.41020606952E+00 0.35058029869E+00 0.15631406026E+00 0.82485472467E-01 0.28229834717E+00
 0.85194422742E-01 -.87649644140E+00 -.21079558993E+01 -.35127964513E+01 -.49993094972E+01
 -.66044971172E+01 -.82362773215E+01 -.98222467223E+01 -.11253101688E+02 -.12490147681E+02
 -.13284966175E+02 -.19638508656E+02 -.19120670187E+02 -.18046103313E+02 -.16385312930E+02
 -.14197490987E+02 -.11833867395E+02 -.95168770928E+01 -.73551691118E+01 -.53789064372E+01
 -.36628517338E+01 -.21079558993E+01 -.79827754835E+00 0.17093935474E+00 0.29231495154E+00
 0.42677282360E-01 0.71207003844E-01 0.13620958479E+00 0.71207003844E-01 0.42677282360E-01
 0.29231495154E+00 0.17093935474E+00 -.79827754835E+00 -.21079558993E+01 -.36628517338E+01
 -.53789064372E+01 -.73551691118E+01 -.95168770928E+01 -.11833867395E+02 -.14197490987E+02
 -.16385312930E+02 -.18046103313E+02 -.19120670187E+02 -.25995150361E+02 -.25737230081E+02
 -.24502209317E+02 -.22449112417E+02 -.19754145298E+02 -.16546760994E+02 -.13235233323E+02
 -.10232688876E+02 -.76226588693E+01 -.53789064372E+01 -.35127964513E+01 -.18961405568E+01
 -.56300274322E+00 0.31428112118E+00 0.20799676491E+00 -.13728915858E+00 -.17008791002E+00
 -.13728915858E+00 0.20799676491E+00 0.31428112118E+00 -.56300274322E+00 -.18961405568E+01
 -.35127964513E+01 -.53789064372E+01 -.76226588693E+01 -.10232688876E+02 -.13235233323E+02
 -.16546760994E+02 -.19754145298E+02 -.22449112417E+02 -.24502209317E+02 -.25737230081E+02
 -.32817755667E+02 -.32177458761E+02 -.30781346667E+02 -.28600442209E+02 -.25634590035E+02
 -.22045037284E+02 -.17889638177E+02 -.13752690640E+02 -.10232688876E+02 -.73551691118E+01
 -.49993094972E+01 -.30970291119E+01 -.15151404703E+01 -.18855288302E+00 0.38375871570E+00
 -.14723608058E+00 -.56831148842E+00 -.14723608058E+00 0.38375871570E+00 -.18855288302E+00
 -.15151404703E+01 -.30970291119E+01 -.49993094972E+01 -.73551691118E+01 -.10232688876E+02
 -.13752690640E+02 -.17889638177E+02 -.22045037284E+02 -.25634590035E+02 -.28600442209E+02
 -.30781346667E+02 -.32177458761E+02 -.39099058148E+02 -.38743869913E+02 -.37177301884E+02
 -.34573437980E+02 -.31221004611E+02 -.27216978666E+02 -.22808421038E+02 -.17889638177E+02
 -.13235233323E+02 -.95168770928E+01 -.66044971172E+01 -.43078072050E+01 -.24863290842E+01
 -.99416344593E+00 0.22155389580E+00 -.65991597591E-01 -.88473609406E+00 -.65991597592E-01
 0.22155389580E+00 -.99416344593E+00 -.24863290842E+01 -.43078072050E+01 -.66044971172E+01
 -.95168770928E+01 -.13235233323E+02 -.17889638177E+02 -.22808421038E+02 -.27216978666E+02
 -.31221004611E+02 -.34573437980E+02 -.37177301884E+02 -.38743869913E+02 -.45366362519E+02
 -.44613775951E+02 -.42954479291E+02 -.40302315490E+02 -.36616917290E+02 -.32192170011E+02
 -.27216978666E+02 -.22045037284E+02 -.16546760994E+02 -.11833867395E+02 -.82362773215E+01
 -.55496132045E+01 -.33779795485E+01 -.18244104358E+01 -.20101749630E+00 -.73322494841E-01
 -.11141756493E+01 -.73322494840E-01 -.20101749630E+00 -.18244104358E+01 -.33779795485E+01
 -.55496132045E+01 -.82362773215E+01 -.11833867395E+02 -.16546760994E+02 -.22045037284E+02
 -.27216978666E+02 -.32192170011E+02 -.36616917290E+02 -.40302315490E+02 -.42954479291E+02
 -.44613775951E+02 -.49921181568E+02 -.49671885713E+02 -.47964294706E+02 -.45201131445E+02
 -.41293227322E+02 -.36616917290E+02 -.31221004611E+02 -.25634590035E+02 -.19754145298E+02
 -.14197490987E+02 -.98222467223E+01 -.67142783426E+01 -.42403947117E+01 -.25136022062E+01
 -.77001504265E+00 -.22538611676E+00 -.12480073568E+01 -.22538611676E+00 -.77001504265E+00
 -.25136022062E+01 -.42403947117E+01 -.67142783426E+01 -.98222467223E+01 -.14197490987E+02
 -.19754145298E+02 -.25634590035E+02 -.31221004611E+02 -.36616917290E+02 -.41293227322E+02
 -.45201131445E+02 -.47964294706E+02 -.49671885713E+02 -.54986713799E+02 -.53900553497E+02
 -.51868760301E+02 -.49095594278E+02 -.45201131445E+02 -.40302315490E+02 -.34573437980E+02
 -.28600442209E+02 -.22449112417E+02 -.16385312930E+02 -.11253101688E+02 -.77605751091E+01
 -.49481602280E+01 -.31346594795E+01 -.11938252823E+01 -.53516489524E+00 -.12894739448E+01
 -.53516489524E+00 -.11938252823E+01 -.31346594795E+01 -.49481602280E+01 -.77605751091E+01
 -.11253101688E+02 -.16385312930E+02 -.22449112417E+02 -.28600442209E+02 -.34573437980E+02
 -.40302315490E+02 -.45201131445E+02 -.49095594278E+02 -.51868760301E+02 -.53900553497E+02
 -.58295946032E+02 -.58061056412E+02 -.55444491063E+02 -.51868760301E+02 -.47964294706E+02
 -.42954479291E+02 -.37177301884E+02 -.30781346667E+02 -.24502209317E+02 -.18046103313E+02
 -.12490147681E+02 -.85059462665E+01 -.55734581412E+01 -.35489643613E+01 -.15464442047E+01
 -.78904447541E+00 -.14176929417E+01 -.78904447541E+00 -.15464442047E+01 -.35489643613E+01
 -.55734581412E+01 -.85059462665E+01 -.12490147681E+02 -.18046103313E+02 -.24502209317E+02
 -.30781346667E+02 -.37177301884E+02 -.42954479291E+02 -.47964294706E+02 -.51868760301E+02
 -.55444491063E+02 -.58061056412E+02 -.60165072964E+02 -.60014978719E+02 -.58061056412E+02
 -.53900553497E+02 -.49671885713E+02 -.44613775951E+02 -.38743869913E+02 -.32177458761E+02
 -.25737230081E+02 -.19120670187E+02 -.13284966175E+02 -.89981417734E+01 -.59574212391E+01
 -.38005188797E+01 -.17925974215E+01 -.92948718070E+00 -.14739509467E+01 -.92948718070E+00
 -.17925974215E+01 -.38005188797E+01 -.59574212391E+01 -.89981417734E+01 -.13284966175E+02
 -.19120670187E+02 -.25737230081E+02 -.32177458761E+02 -.38743869913E+02 -.44613775951E+02
 -.49671885713E+02 -.53900553497E+02 -.58061056412E+02 -.60014978719E+02 -.60165072964E+02
 -.60014978719E+02 -.58061056412E+02 -.53900553497E+02 -.49671885713E+02 -.44613775951E+02
 -.38743869913E+02 -.32177458761E+02 -.25737230081E+02 -.19120670187E+02 -.13284966175E+02
 -.89981417734E+01 -.59574212391E+01 -.38005188797E+01 -.17925974215E+01 -.92948718070E+00
 -.14739509467E+01 -.92948718070E+00 -.17925974215E+01 -.38005188797E+01 -.59574212391E+01
 -.89981417734E+01 -.13284966175E+02 -.19120670187E+02 -.25737230081E+02 -.32177458761E+02
 -.38743869913E+02 -.44613775951E+02 -.49671885713E+02 -.53900553497E+02 -.58061056412E+02
 -.60014978719E+02 -.60014978719E+02 -.59770052702E+02 -.57273812106E+02 -.53161372531E+02
 -.49216380238E+02 -.44013270870E+02 -.38241614897E+02 -.31684814655E+02 -.25342912230E+02
 -.18743329672E+02 -.13025906779E+02 -.88177042888E+01 -.58443704724E+01 -.36973760708E+01
 -.17347801334E+01 -.85365756314E+00 -.14817965575E+01 -.85365756314E+00 -.17347801334E+01
 -.36973760708E+01 -.58443704724E+01 -.88177042888E+01 -.13025906779E+02 -.18743329672E+02
 -.25342912230E+02 -.31684814655E+02 -.38241614897E+02 -.44013270870E+02 -.49216380238E+02
 -.53161372531E+02 -.57273812106E+02 -.59770052702E+02 -.58061056412E+02 -.57273812106E+02
 -.54614632961E+02 -.51345849058E+02 -.47423870416E+02 -.42407926272E+02 -.36645856167E+02
 -.30342324975E+02 -.24073521033E+02 -.17715584014E+02 -.12220612039E+02 -.83612053562E+01
 -.54334902760E+01 -.34641865744E+01 -.14739206553E+01 -.74218676272E+00 -.13719553169E+01
 -.74218676272E+00 -.14739206553E+01 -.34641865744E+01 -.54334902760E+01 -.83612053562E+01
 -.12220612039E+02 -.17715584014E+02 -.24073521033E+02 -.30342324975E+02 -.36645856167E+02
 -.42407926272E+02 -.47423870416E+02 -.51345849058E+02 -.54614632961E+02 -.57273812106E+02
 -.53900553497E+02 -.53161372531E+02 -.51345849058E+02 -.48595964053E+02 -.44631810192E+02
 -.39740692119E+02 -.34096970445E+02 -.28156822118E+02 -.22056820130E+02 -.16054111674E+02
 -.11029131805E+02 -.76047227186E+01 -.48414050341E+01 -.30413682092E+01 -.11298822355E+01
 -.48929182174E+00 -.13222687434E+01 -.48929182174E+00 -.11298822355E+01 -.30413682092E+01
 -.48414050341E+01 -.76047227186E+01 -.11029131805E+02 -.16054111674E+02 -.22056820130E+02
 -.28156822118E+02 -.34096970445E+02 -.39740692119E+02 -.44631810192E+02 -.48595964053E+02
 -.51345849058E+02 -.53161372531E+02 -.49671885713E+02 -.49216380238E+02 -.47423870416E+02
 -.44631810192E+02 -.40720384125E+02 -.36132974933E+02 -.30747222974E+02 -.25225549944E+02
 -.19381278577E+02 -.13902161642E+02 -.96358547588E+01 -.65705579911E+01 -.41374378876E+01
 -.24310834681E+01 -.69880909955E+00 -.22844245646E+00 -.12801508343E+01 -.22844245646E+00
 -.69880909955E+00 -.24310834681E+01 -.41374378876E+01 -.65705579911E+01 -.96358547588E+01
 -.13902161642E+02 -.19381278577E+02 -.25225549944E+02 -.30747222974E+02 -.36132974933E+02
 -.40720384125E+02 -.44631810192E+02 -.47423870416E+02 -.49216380238E+02 -.44613775951E+02
 -.44013270870E+02 -.42407926272E+02 -.39740692119E+02 -.36132974933E+02 -.31702291157E+02
 -.26798226619E+02 -.21649894128E+02 -.16209390800E+02 -.11595443023E+02 -.80715558810E+01
 -.54225547713E+01 -.32996719984E+01 -.17406319980E+01 -.18629709495E+00 -.13778370322E+00
 -.11187752621E+01 -.13778370322E+00 -.18629709495E+00 -.17406319980E+01 -.32996719984E+01
 -.54225547713E+01 -.80715558810E+01 -.11595443023E+02 -.16209390800E+02 -.21649894128E+02
 -.26798226619E+02 -.31702291157E+02 -.36132974933E+02 -.39740692119E+02 -.42407926272E+02
 -.44013270870E+02 -.38743869913E+02 -.38241614897E+02 -.36645856167E+02 -.34096970445E+02
 -.30747222974E+02 -.26798226619E+02 -.22415213683E+02 -.17526591168E+02 -.12968266380E+02
 -.93239675677E+01 -.64670509514E+01 -.42081128287E+01 -.24079195249E+01 -.93071589188E+00
 0.16781993154E+00 -.15085120221E+00 -.83738894778E+00 -.15085120221E+00 0.16781993155E+00
 -.93071589188E+00 -.24079195249E+01 -.42081128287E+01 -.64670509514E+01 -.93239675677E+01
 -.12968266380E+02 -.17526591168E+02 -.22415213683E+02 -.26798226619E+02 -.30747222974E+02
 -.34096970445E+02 -.36645856167E+02 -.38241614897E+02 -.32177458761E+02 -.31684814655E+02
 -.30342324975E+02 -.28156822118E+02 -.25225549944E+02 -.21649894128E+02 -.17526591168E+02
 -.13471016994E+02 -.10026976911E+02 -.71999945481E+01 -.48900570194E+01 -.30077852842E+01
 -.14609952107E+01 -.20029232711E+00 0.22837870854E+00 -.17571908236E+00 -.43208034229E+00
 -.17571908236E+00 0.22837870854E+00 -.20029232711E+00 -.14609952107E+01 -.30077852842E+01
 -.48900570194E+01 -.71999945481E+01 -.10026976911E+02 -.13471016994E+02 -.17526591168E+02
 -.21649894128E+02 -.25225549944E+02 -.28156822118E+02 -.30342324975E+02 -.31684814655E+02
 -.25737230081E+02 -.25342912230E+02 -.24073521033E+02 -.22056820130E+02 -.19381278577E+02
 -.16209390800E+02 -.12968266380E+02 -.10026976911E+02 -.74628890451E+01 -.52650719146E+01
 -.34176755714E+01 -.18418406379E+01 -.53987107734E+00 0.18177123634E+00 0.10427708979E+00
 -.44464464112E-01 0.68590822929E-02 -.44464464112E-01 0.10427708979E+00 0.18177123634E+00
 -.53987107734E+00 -.18418406379E+01 -.34176755714E+01 -.52650719146E+01 -.74628890451E+01
 -.10026976911E+02 -.12968266380E+02 -.16209390800E+02 -.19381278577E+02 -.22056820130E+02
 -.24073521033E+02 -.25342912230E+02 -.19120670187E+02 -.18743329672E+02 -.17715584014E+02
 -.16054111674E+02 -.13902161642E+02 -.11595443023E+02 -.93239675677E+01 -.71999945481E+01
 -.52650719146E+01 -.35622056250E+01 -.20484073774E+01 -.76092526915E+00 0.53177357277E-01
 0.13391883222E+00 0.77610946008E-01 0.29591311791E+00 0.40345927534E+00 0.29591311791E+00
 0.77610946008E-01 0.13391883222E+00 0.53177357277E-01 -.76092526915E+00 -.20484073774E+01
 -.35622056250E+01 -.52650719146E+01 -.71999945481E+01 -.93239675677E+01 -.11595443023E+02
 -.13902161642E+02 -.16054111674E+02 -.17715584014E+02 -.18743329672E+02 -.13284966175E+02
 -.13025906779E+02 -.12220612039E+02 -.11029131805E+02 -.96358547588E+01 -.80715558810E+01
 -.64670509514E+01 -.48900570194E+01 -.34176755714E+01 -.20484073774E+01 -.84074221118E+00
 -.31824008616E-01 0.10798139308E+00 0.76322935849E-01 0.34374967488E+00 0.60093573797E+00
 0.69918115912E+00 0.60093573797E+00 0.34374967488E+00 0.76322935849E-01 0.10798139308E+00
 -.31824008616E-01 -.84074221118E+00 -.20484073774E+01 -.34176755714E+01 -.48900570194E+01
 -.64670509514E+01 -.80715558810E+01 -.96358547588E+01 -.11029131805E+02 -.12220612039E+02
 -.13025906779E+02 -.89981417734E+01 -.88177042888E+01 -.83612053562E+01 -.76047227186E+01
 -.65705579911E+01 -.54225547713E+01 -.42081128287E+01 -.30077852842E+01 -.18418406379E+01
 -.76092526915E+00 -.31824008616E-01 0.94247385457E-01 0.68179227618E-01 0.32992252917E+00
 0.64736305635E+00 0.86032558646E+00 0.93875838206E+00 0.86032558646E+00 0.64736305635E+00
 0.32992252917E+00 0.68179227619E-01 0.94247385457E-01 -.31824008616E-01 -.76092526915E+00
 -.18418406379E+01 -.30077852842E+01 -.42081128287E+01 -.54225547713E+01 -.65705579911E+01
 -.76047227186E+01 -.83612053562E+01 -.88177042888E+01 -.59574212391E+01 -.58443704724E+01
 -.54334902760E+01 -.48414050341E+01 -.41374378876E+01 -.32996719984E+01 -.24079195249E+01
 -.14609952107E+01 -.53987107735E+00 0.53177357277E-01 0.10798139308E+00 0.68179227618E-01
 0.31618362222E+00 0.66055536405E+00 0.95626418069E+00 0.11346892496E+01 0.11771310511E+01
 0.11346892496E+01 0.95626418069E+00 0.66055536405E+00 0.31618362222E+00 0.68179227619E-01
 0.10798139308E+00 0.53177357277E-01 -.53987107734E+00 -.14609952107E+01 -.24079195249E+01
 -.32996719984E+01 -.41374378876E+01 -.48414050341E+01 -.54334902760E+01 -.58443704724E+01
 -.38005188797E+01 -.36973760708E+01 -.34641865744E+01 -.30413682092E+01 -.24310834681E+01
 -.17406319980E+01 -.93071589188E+00 -.20029232711E+00 0.18177123634E+00 0.13391883222E+00
 0.76322935849E-01 0.32992252917E+00 0.66055536405E+00 0.99154057160E+00 0.12010578668E+01
 0.12728675515E+01 0.13071134780E+01 0.12728675515E+01 0.12010578668E+01 0.99154057160E+00
 0.66055536405E+00 0.32992252917E+00 0.76322935849E-01 0.13391883222E+00 0.18177123634E+00
 -.20029232711E+00 -.93071589188E+00 -.17406319980E+01 -.24310834681E+01 -.30413682092E+01
 -.34641865744E+01 -.36973760708E+01 -.17925974215E+01 -.17347801334E+01 -.14739206553E+01
 -.11298822355E+01 -.69880909955E+00 -.18629709495E+00 0.16781993154E+00 0.22837870854E+00
 0.10427708979E+00 0.77610946008E-01 0.34374967488E+00 0.64736305635E+00 0.95626418069E+00
 0.12010578668E+01 0.12731155085E+01 0.13495961576E+01 0.13507501663E+01 0.13495961576E+01
 0.12731155085E+01 0.12010578668E+01 0.95626418069E+00 0.64736305635E+00 0.34374967488E+00
 0.77610946008E-01 0.10427708979E+00 0.22837870854E+00 0.16781993154E+00 -.18629709495E+00
 -.69880909955E+00 -.11298822355E+01 -.14739206553E+01 -.17347801334E+01 -.92948718070E+00
 -.85365756314E+00 -.74218676272E+00 -.48929182174E+00 -.22844245646E+00 -.13778370322E+00
 -.15085120221E+00 -.17571908236E+00 -.44464464112E-01 0.29591311791E+00 0.60093573797E+00
 0.86032558646E+00 0.11346892496E+01 0.12728675515E+01 0.13495961576E+01 0.14075960846E+01
 0.14482484522E+01 0.14075960846E+01 0.13495961576E+01 0.12728675515E+01 0.11346892496E+01
 0.86032558646E+00 0.60093573797E+00 0.29591311791E+00 -.44464464112E-01 -.17571908236E+00
 -.15085120221E+00 -.13778370322E+00 -.22844245646E+00 -.48929182174E+00 -.74218676272E+00
 -.85365756314E+00 -.14739509467E+01 -.14817965575E+01 -.13719553169E+01 -.13222687434E+01
 -.12801508343E+01 -.11187752621E+01 -.83738894778E+00 -.43208034229E+00 0.68590822927E-02
 0.40345927534E+00 0.69918115912E+00 0.93875838206E+00 0.11771310511E+01 0.13071134780E+01
 0.13507501663E+01 0.14482484522E+01 0.14695939563E+01 0.14482484522E+01 0.13507501663E+01
 0.13071134780E+01 0.11771310511E+01 0.93875838206E+00 0.69918115912E+00 0.40345927534E+00
 0.68590822926E-02 -.43208034229E+00 -.83738894778E+00 -.11187752621E+01 -.12801508343E+01
 -.13222687434E+01 -.13719553169E+01 -.14817965575E+01 -.92948718070E+00 -.85365756314E+00
 -.74218676272E+00 -.48929182174E+00 -.22844245646E+00 -.13778370322E+00 -.15085120221E+00
 -.17571908236E+00 -.44464464112E-01 0.29591311791E+00 0.60093573797E+00 0.86032558646E+00
 0.11346892496E+01 0.12728675515E+01 0.13495961576E+01 0.14075960846E+01 0.14482484522E+01
 0.14075960846E+01 0.13495961576E+01 0.12728675515E+01 0.11346892496E+01 0.86032558646E+00
 0.60093573797E+00 0.29591311791E+00 -.44464464112E-01 -.17571908236E+00 -.15085120221E+00
 -.13778370322E+00 -.22844245646E+00 -.48929182174E+00 -.74218676272E+00 -.85365756314E+00
 -.17925974215E+01 -.17347801334E+01 -.14739206553E+01 -.11298822355E+01 -.69880909955E+00
 -.18629709495E+00 0.16781993154E+00 0.22837870854E+00 0.10427708979E+00 0.77610946008E-01
 0.34374967488E+00 0.64736305635E+00 0.95626418069E+00 0.12010578668E+01 0.12731155085E+01
 0.13495961576E+01 0.13507501663E+01 0.13495961576E+01 0.12731155085E+01 0.12010578668E+01
 0.95626418069E+00 0.64736305635E+00 0.34374967488E+00 0.77610946008E-01 0.10427708979E+00
 0.22837870854E+00 0.16781993154E+00 -.18629709495E+00 -.69880909955E+00 -.11298822355E+01