       N       E                     dE             d eps       ncg     rms          rms(c)
DAV:   1     0.483759740978E+02    0.48376E+02   -0.42570E+03  2100   0.273E+02
DAV:   2    -0.517314110986E+01   -0.53549E+02   -0.51215E+02  2890   0.806E+01
DAV:   3    -0.718937527290E+01   -0.20162E+01   -0.20069E+01  2590   0.151E+01
DAV:   4    -0.719743139104E+01   -0.80561E-02   -0.80559E-02  2490   0.109E+00
DAV:   5    -0.719747101789E+01   -0.39627E-04   -0.39627E-04  2640   0.693E-02    0.256E+00
DAV:   6    -0.689510249938E+01    0.30237E+00   -0.25604E-01  2600   0.170E+00    0.179E+00
DAV:   7    -0.685630108353E+01    0.38801E-01   -0.82530E-02  2800   0.923E-01    0.116E+00
DAV:   8    -0.685472400141E+01    0.15771E-02   -0.14591E-02  2580   0.425E-01    0.370E-01
DAV:   9    -0.685406286449E+01    0.66114E-03   -0.14306E-03  2610   0.115E-01    0.110E-01
DAV:  10    -0.685422094327E+01   -0.15808E-03   -0.32554E-04  2410   0.603E-02    0.365E-02
DAV:  11    -0.685420927635E+01    0.11667E-04   -0.12740E-05  2630   0.123E-02    0.824E-03
DAV:  12    -0.685420958490E+01   -0.30854E-06   -0.35985E-06  2280   0.695E-03
   1 F= -.68542096E+01 E0= -.68542096E+01  d E =-.685421E+01
