<?xml version="1.0" encoding="ISO-8859-1"?>
<modeling>
 <generator>
  <i name="program" type="string">vasp </i>
  <i name="version" type="string">6.5.1  </i>
  <i name="subversion" type="string">10Mar25 (build May 05 2025 13:45:00) complex                          parallel </i>
  <i name="platform" type="string">LinuxIFC </i>
  <i name="date" type="string">2026 05 11 </i>
  <i name="time" type="string">14:46:30 </i>
 </generator>
 <incar>
  <i type="string" name="PREC">Normal</i>
  <i type="string" name="ALGO">Normal</i>
  <i type="int" name="NELM">   100</i>
  <i type="int" name="IBRION">     2</i>
  <i name="EDIFF">      0.00001000</i>
  <i type="int" name="NSW">     1</i>
  <i type="int" name="ISIF">     0</i>
  <i name="ENCUT">    262.47200000</i>
  <i type="int" name="NBANDS">    21</i>
  <i type="int" name="NEDOS">  3602</i>
  <i type="logical" name="LREAL"> F  </i>
  <i name="EMIN">    -15.01000000</i>
  <i name="EMAX">     21.00000000</i>
  <i type="int" name="ISMEAR">    -4</i>
  <i name="SIGMA">      0.10000000</i>
  <i type="logical" name="LWAVE"> F  </i>
  <i type="logical" name="LCHARG"> F  </i>
  <i type="logical" name="LVTOT"> T  </i>
  <i type="int" name="LORBIT">    11</i>
  <i type="logical" name="LASPH"> T  </i>
  <i type="logical" name="LAECHG"> T  </i>
  <i type="string" name="GGA">Ps</i>
 </incar>
 <primitive_cell>
  <structure name="primitive_cell" >
   <crystal>
    <varray name="basis" >
     <v>       4.07544864       0.00000000       0.00000000 </v>
     <v>       0.00000000       4.07544864       0.00000000 </v>
     <v>       0.00000000       0.00000000       4.07544864 </v>
    </varray>
    <i name="volume">     67.69027413 </i>
    <varray name="rec_basis" >
     <v>       0.24537176       0.00000000       0.00000000 </v>
     <v>       0.00000000       0.24537176       0.00000000 </v>
     <v>       0.00000000       0.00000000       0.24537176 </v>
    </varray>
   </crystal>
   <varray name="positions" >
    <v>       0.00000000       0.00000000       0.00000000 </v>
    <v>       0.50000000       0.50000000       0.50000000 </v>
   </varray>
  </structure>
  <varray name="primitive_index" >
   <v type="int" >        1 </v>
   <v type="int" >        2 </v>
  </varray>
 </primitive_cell>
 <kpoints>
  <generation param="Gamma">
   <v type="int" name="divisions">       8        8        8 </v>
   <v name="usershift">      0.00000000       0.00000000       0.00000000 </v>
   <v name="genvec1">      0.12500000       0.00000000       0.00000000 </v>
   <v name="genvec2">      0.00000000       0.12500000       0.00000000 </v>
   <v name="genvec3">      0.00000000       0.00000000       0.12500000 </v>
   <v name="shift">      0.00000000       0.00000000       0.00000000 </v>
  </generation>
  <varray name="kpointlist" >
   <v>       0.00000000       0.00000000       0.00000000 </v>
   <v>       0.12500000       0.00000000       0.00000000 </v>
   <v>       0.25000000       0.00000000       0.00000000 </v>
   <v>       0.37500000       0.00000000       0.00000000 </v>
   <v>       0.50000000       0.00000000       0.00000000 </v>
   <v>       0.12500000       0.12500000       0.00000000 </v>
   <v>       0.25000000       0.12500000       0.00000000 </v>
   <v>       0.37500000       0.12500000       0.00000000 </v>
   <v>       0.50000000       0.12500000       0.00000000 </v>
   <v>       0.25000000       0.25000000       0.00000000 </v>
   <v>       0.37500000       0.25000000       0.00000000 </v>
   <v>       0.50000000       0.25000000       0.00000000 </v>
   <v>       0.37500000       0.37500000       0.00000000 </v>
   <v>       0.50000000       0.37500000       0.00000000 </v>
   <v>       0.50000000       0.50000000       0.00000000 </v>
   <v>       0.12500000       0.12500000       0.12500000 </v>
   <v>       0.25000000       0.12500000       0.12500000 </v>
   <v>       0.37500000       0.12500000       0.12500000 </v>
   <v>       0.50000000       0.12500000       0.12500000 </v>
   <v>       0.25000000       0.25000000       0.12500000 </v>
   <v>       0.37500000       0.25000000       0.12500000 </v>
   <v>       0.50000000       0.25000000       0.12500000 </v>
   <v>       0.37500000       0.37500000       0.12500000 </v>
   <v>       0.50000000       0.37500000       0.12500000 </v>
   <v>       0.50000000       0.50000000       0.12500000 </v>
   <v>       0.25000000       0.25000000       0.25000000 </v>
   <v>       0.37500000       0.25000000       0.25000000 </v>
   <v>       0.50000000       0.25000000       0.25000000 </v>
   <v>       0.37500000       0.37500000       0.25000000 </v>
   <v>       0.50000000       0.37500000       0.25000000 </v>
   <v>       0.50000000       0.50000000       0.25000000 </v>
   <v>       0.37500000       0.37500000       0.37500000 </v>
   <v>       0.50000000       0.37500000       0.37500000 </v>
   <v>       0.50000000       0.50000000       0.37500000 </v>
   <v>       0.50000000       0.50000000       0.50000000 </v>
  </varray>
  <varray name="weights" >
   <v>       0.00195312 </v>
   <v>       0.01171875 </v>
   <v>       0.01171875 </v>
   <v>       0.01171875 </v>
   <v>       0.00585938 </v>
   <v>       0.02343750 </v>
   <v>       0.04687500 </v>
   <v>       0.04687500 </v>
   <v>       0.02343750 </v>
   <v>       0.02343750 </v>
   <v>       0.04687500 </v>
   <v>       0.02343750 </v>
   <v>       0.02343750 </v>
   <v>       0.02343750 </v>
   <v>       0.00585938 </v>
   <v>       0.01562500 </v>
   <v>       0.04687500 </v>
   <v>       0.04687500 </v>
   <v>       0.02343750 </v>
   <v>       0.04687500 </v>
   <v>       0.09375000 </v>
   <v>       0.04687500 </v>
   <v>       0.04687500 </v>
   <v>       0.04687500 </v>
   <v>       0.01171875 </v>
   <v>       0.01562500 </v>
   <v>       0.04687500 </v>
   <v>       0.02343750 </v>
   <v>       0.04687500 </v>
   <v>       0.04687500 </v>
   <v>       0.01171875 </v>
   <v>       0.01562500 </v>
   <v>       0.02343750 </v>
   <v>       0.01171875 </v>
   <v>       0.00195312 </v>
  </varray>
  <varray name="tetrahedronlist"  type="int" >
   <v type="int" >       12       16       17       17       20 </v>
   <v type="int" >       12       17       17       20       20 </v>
   <v type="int" >       12       17       20       20       26 </v>
   <v type="int" >       12       17       18       20       21 </v>
   <v type="int" >       12       17       20       20       21 </v>
   <v type="int" >       12       20       20       21       26 </v>
   <v type="int" >       12       18       20       21       21 </v>
   <v type="int" >       24       20       21       21       27 </v>
   <v type="int" >       24       20       21       26       27 </v>
   <v type="int" >       12       18       19       21       22 </v>
   <v type="int" >       12       18       21       21       22 </v>
   <v type="int" >       12       21       21       22       27 </v>
   <v type="int" >       12       19       21       22       22 </v>
   <v type="int" >       12       21       22       22       28 </v>
   <v type="int" >       12       21       22       27       28 </v>
   <v type="int" >       24        6        7       16       17 </v>
   <v type="int" >       12        7       16       17       17 </v>
   <v type="int" >       12        7       17       17       20 </v>
   <v type="int" >       24        6        7        7       17 </v>
   <v type="int" >       12        7        7       10       17 </v>
   <v type="int" >       12        7       10       17       20 </v>
   <v type="int" >       12       20       21       23       26 </v>
   <v type="int" >       12       21       23       26       27 </v>
   <v type="int" >       12       23       26       27       29 </v>
   <v type="int" >       12       21       22       24       27 </v>
   <v type="int" >       12       21       23       24       27 </v>
   <v type="int" >       12       23       24       27       29 </v>
   <v type="int" >       12       22       24       27       28 </v>
   <v type="int" >       12       24       27       28       30 </v>
   <v type="int" >       12       24       27       29       30 </v>
   <v type="int" >       12       21       22       23       28 </v>
   <v type="int" >       12       22       23       24       28 </v>
   <v type="int" >       12       23       24       28       30 </v>
   <v type="int" >       12       21       23       27       28 </v>
   <v type="int" >       12       23       27       28       29 </v>
   <v type="int" >       12       23       28       29       30 </v>
   <v type="int" >       12       21       21       23       27 </v>
   <v type="int" >       12       21       23       27       29 </v>
   <v type="int" >       12       21       26       27       27 </v>
   <v type="int" >       12       21       27       27       29 </v>
   <v type="int" >       12       17       18       20       26 </v>
   <v type="int" >       12       18       20       21       26 </v>
   <v type="int" >       12       18       21       26       27 </v>
   <v type="int" >       12        7        8       17       20 </v>
   <v type="int" >       12        8       17       18       20 </v>
   <v type="int" >       12        8       18       20       21 </v>
   <v type="int" >       12        7        8       10       20 </v>
   <v type="int" >       12        8       10       11       20 </v>
   <v type="int" >       12        8       11       20       21 </v>
   <v type="int" >       12        7       10       17       18 </v>
   <v type="int" >       12        7        8       10       18 </v>
   <v type="int" >       12        8       10       11       18 </v>
   <v type="int" >       12       10       17       18       20 </v>
   <v type="int" >       12       10       18       20       21 </v>
   <v type="int" >       12       10       11       18       21 </v>
   <v type="int" >       12       23       24       25       29 </v>
   <v type="int" >       12       24       25       29       30 </v>
   <v type="int" >       12       25       29       30       31 </v>
   <v type="int" >       12       23       24       24       30 </v>
   <v type="int" >       12       24       24       25       30 </v>
   <v type="int" >       12       24       25       30       31 </v>
   <v type="int" >       12       23       24       29       30 </v>
   <v type="int" >       12       24       29       30       30 </v>
   <v type="int" >       12       24       30       30       31 </v>
   <v type="int" >       12       21       22       23       29 </v>
   <v type="int" >       12       22       23       24       29 </v>
   <v type="int" >       12       22       24       29       30 </v>
   <v type="int" >       12       21       22       27       29 </v>
   <v type="int" >       12       22       27       28       29 </v>
   <v type="int" >       12       22       28       29       30 </v>
   <v type="int" >       12       18       19       21       27 </v>
   <v type="int" >       12       19       21       22       27 </v>
   <v type="int" >       12       19       22       27       28 </v>
   <v type="int" >       12        8        9       18       21 </v>
   <v type="int" >       12        9       18       19       21 </v>
   <v type="int" >       12        9       19       21       22 </v>
   <v type="int" >       12        8        9       11       21 </v>
   <v type="int" >       12        9       11       12       21 </v>
   <v type="int" >       12        9       12       21       22 </v>
   <v type="int" >       12        8       11       18       19 </v>
   <v type="int" >       12        8        9       11       19 </v>
   <v type="int" >       12        9       11       12       19 </v>
   <v type="int" >       12       11       18       19       21 </v>
   <v type="int" >       12       11       19       21       22 </v>
   <v type="int" >       12       11       12       19       22 </v>
   <v type="int" >       12       23       24       25       31 </v>
   <v type="int" >       12       23       24       30       31 </v>
   <v type="int" >       12       23       29       30       31 </v>
   <v type="int" >       12       21       22       24       30 </v>
   <v type="int" >       12       21       23       24       30 </v>
   <v type="int" >       12       21       23       29       30 </v>
   <v type="int" >       12       21       22       28       30 </v>
   <v type="int" >       12       21       27       28       30 </v>
   <v type="int" >       12       21       27       29       30 </v>
   <v type="int" >       12       18       19       22       28 </v>
   <v type="int" >       12       18       21       22       28 </v>
   <v type="int" >       12       18       21       27       28 </v>
   <v type="int" >       12        8        9       19       22 </v>
   <v type="int" >       12        8       18       19       22 </v>
   <v type="int" >       12        8       18       21       22 </v>
   <v type="int" >       12        8        9       12       22 </v>
   <v type="int" >       12        8       11       12       22 </v>
   <v type="int" >       12        8       11       21       22 </v>
   <v type="int" >       12        9       12       18       19 </v>
   <v type="int" >       12        8        9       12       18 </v>
   <v type="int" >       12        8       11       12       18 </v>
   <v type="int" >       12       12       18       19       22 </v>
   <v type="int" >       12       12       18       21       22 </v>
   <v type="int" >       12       11       12       18       21 </v>
   <v type="int" >       12       20       21       23       29 </v>
   <v type="int" >       12       20       21       27       29 </v>
   <v type="int" >       12       20       26       27       29 </v>
   <v type="int" >       12       17       18       21       27 </v>
   <v type="int" >       12       17       20       21       27 </v>
   <v type="int" >       12       17       20       26       27 </v>
   <v type="int" >       12        7        8       18       21 </v>
   <v type="int" >       12        7       17       18       21 </v>
   <v type="int" >       12        7       17       20       21 </v>
   <v type="int" >       12        7        8       11       21 </v>
   <v type="int" >       12        7       10       11       21 </v>
   <v type="int" >       12        7       10       20       21 </v>
   <v type="int" >       12        8       11       17       18 </v>
   <v type="int" >       12        7        8       11       17 </v>
   <v type="int" >       12        7       10       11       17 </v>
   <v type="int" >       12       11       17       18       21 </v>
   <v type="int" >       12       11       17       20       21 </v>
   <v type="int" >       12       10       11       17       20 </v>
   <v type="int" >       12       16       17       20       26 </v>
   <v type="int" >       12        6        7       17       20 </v>
   <v type="int" >       12        6       16       17       20 </v>
   <v type="int" >       12        6        7       10       20 </v>
   <v type="int" >       12        7       10       16       17 </v>
   <v type="int" >       12        6        7       10       16 </v>
   <v type="int" >       12       10       16       17       20 </v>
   <v type="int" >       12        2        6       16       17 </v>
   <v type="int" >       12        2        6        7       17 </v>
   <v type="int" >       12        2        3        7       17 </v>
   <v type="int" >       12        6        6        7       16 </v>
   <v type="int" >       12        2        6        6        7 </v>
   <v type="int" >       12        2        3        6        7 </v>
   <v type="int" >       12        3        6        7        7 </v>
   <v type="int" >       12        2        3        6       16 </v>
   <v type="int" >       12        3        6        7       16 </v>
   <v type="int" >       12        3        7       16       17 </v>
   <v type="int" >       12       26       27       27       29 </v>
   <v type="int" >       12       27       27       29       29 </v>
   <v type="int" >       12       27       29       29       32 </v>
   <v type="int" >       12       27       28       29       30 </v>
   <v type="int" >       12       27       29       29       30 </v>
   <v type="int" >       12       29       29       30       32 </v>
   <v type="int" >       12       28       29       30       30 </v>
   <v type="int" >       24       29       30       30       33 </v>
   <v type="int" >       24       29       30       32       33 </v>
   <v type="int" >       12       10       11       20       21 </v>
   <v type="int" >       12       11       20       21       21 </v>
   <v type="int" >       12       11       21       21       23 </v>
   <v type="int" >       12       10       11       11       21 </v>
   <v type="int" >       12       11       11       13       21 </v>
   <v type="int" >       12       11       13       21       23 </v>
   <v type="int" >       12       29       30       31       32 </v>
   <v type="int" >       12       30       31       32       33 </v>
   <v type="int" >       12       31       32       33       34 </v>
   <v type="int" >       12       30       30       31       33 </v>
   <v type="int" >       12       30       31       33       34 </v>
   <v type="int" >       12       30       32       33       33 </v>
   <v type="int" >       12       30       33       33       34 </v>
   <v type="int" >       12       27       28       29       32 </v>
   <v type="int" >       12       28       29       30       32 </v>
   <v type="int" >       12       28       30       32       33 </v>
   <v type="int" >       12       11       12       21       23 </v>
   <v type="int" >       12       12       21       22       23 </v>
   <v type="int" >       12       12       22       23       24 </v>
   <v type="int" >       12       11       12       13       23 </v>
   <v type="int" >       12       12       13       14       23 </v>
   <v type="int" >       12       12       14       23       24 </v>
   <v type="int" >       12       11       13       21       22 </v>
   <v type="int" >       12       11       12       13       22 </v>
   <v type="int" >       12       12       13       14       22 </v>
   <v type="int" >       12       13       21       22       23 </v>
   <v type="int" >       12       13       22       23       24 </v>
   <v type="int" >       12       13       14       22       24 </v>
   <v type="int" >       12       29       30       31       34 </v>
   <v type="int" >       12       29       30       33       34 </v>
   <v type="int" >       12       29       32       33       34 </v>
   <v type="int" >       12       27       28       30       33 </v>
   <v type="int" >       12       27       29       30       33 </v>
   <v type="int" >       12       27       29       32       33 </v>
   <v type="int" >       12       11       12       22       24 </v>
   <v type="int" >       12       11       21       22       24 </v>
   <v type="int" >       12       11       21       23       24 </v>
   <v type="int" >       12       11       12       14       24 </v>
   <v type="int" >       12       11       13       14       24 </v>
   <v type="int" >       12       11       13       23       24 </v>
   <v type="int" >       12       12       14       21       22 </v>
   <v type="int" >       12       11       12       14       21 </v>
   <v type="int" >       12       11       13       14       21 </v>
   <v type="int" >       12       14       21       22       24 </v>
   <v type="int" >       12       14       21       23       24 </v>
   <v type="int" >       12       13       14       21       23 </v>
   <v type="int" >       12       26       27       29       32 </v>
   <v type="int" >       12       10       11       21       23 </v>
   <v type="int" >       12       10       20       21       23 </v>
   <v type="int" >       12       10       11       13       23 </v>
   <v type="int" >       12       11       13       20       21 </v>
   <v type="int" >       12       10       11       13       20 </v>
   <v type="int" >       12       13       20       21       23 </v>
   <v type="int" >       12        3        7       17       18 </v>
   <v type="int" >       12        3        7        8       18 </v>
   <v type="int" >       12        3        4        8       18 </v>
   <v type="int" >       12        7        7        8       17 </v>
   <v type="int" >       12        3        7        7        8 </v>
   <v type="int" >       12        3        4        7        8 </v>
   <v type="int" >       12        7        8       17       18 </v>
   <v type="int" >       12        7        8        8       18 </v>
   <v type="int" >       12        4        7        8        8 </v>
   <v type="int" >       12        3        4        7       17 </v>
   <v type="int" >       12        4        7        8       17 </v>
   <v type="int" >       12        4        8       17       18 </v>
   <v type="int" >       12       32       33       33       34 </v>
   <v type="int" >       12       33       33       34       34 </v>
   <v type="int" >       12       33       34       34       35 </v>
   <v type="int" >       12       13       14       23       24 </v>
   <v type="int" >       12       14       23       24       24 </v>
   <v type="int" >       12       14       24       24       25 </v>
   <v type="int" >       12       13       14       14       24 </v>
   <v type="int" >       12       14       14       15       24 </v>
   <v type="int" >       12       14       15       24       25 </v>
   <v type="int" >       12       32       33       34       35 </v>
   <v type="int" >       12       13       14       24       25 </v>
   <v type="int" >       12       13       23       24       25 </v>
   <v type="int" >       12       13       14       15       25 </v>
   <v type="int" >       12       14       15       23       24 </v>
   <v type="int" >       12       13       14       15       23 </v>
   <v type="int" >       12       15       23       24       25 </v>
   <v type="int" >       12        4        8       18       19 </v>
   <v type="int" >       12        4        8        9       19 </v>
   <v type="int" >       12        4        5        9       19 </v>
   <v type="int" >       12        8        8        9       18 </v>
   <v type="int" >       12        4        8        8        9 </v>
   <v type="int" >       12        4        5        8        9 </v>
   <v type="int" >       12        8        9       18       19 </v>
   <v type="int" >       12        8        9        9       19 </v>
   <v type="int" >       12        5        8        9        9 </v>
   <v type="int" >       12        4        5        8       18 </v>
   <v type="int" >       12        5        8        9       18 </v>
   <v type="int" >       12        5        9       18       19 </v>
   <v type="int" >       12        2        6        6       16 </v>
   <v type="int" >       12        2        2        6        6 </v>
   <v type="int" >       12        1        2        2        6 </v>
   <v type="int" >       12        1        2        6       16 </v>
  </varray>
  <i name="volumeweight">      0.00032552 </i>
 </kpoints>
 <parameters>
  <separator name="general" >
   <i type="string" name="SYSTEM">unknown system</i>
   <i type="logical" name="LCOMPAT"> F  </i>
  </separator>
  <separator name="electronic" >
   <i type="string" name="PREC">normal</i>
   <i name="ENMAX">    262.47200000</i>
   <i name="ENAUG">    407.93300000</i>
   <i name="EDIFF">      0.00001000</i>
   <i type="int" name="IALGO">    38</i>
   <i type="int" name="IWAVPR">    11</i>
   <i type="int" name="NBANDS">    30</i>
   <i type="int" name="NBANDSLOW">    -1</i>
   <i type="int" name="NBANDSHIGH">    -1</i>
   <i name="NELECT">     16.00000000</i>
   <i type="int" name="TURBO">     0</i>
   <i type="int" name="IRESTART">     0</i>
   <i type="int" name="NREBOOT">     0</i>
   <i type="int" name="NMIN">     0</i>
   <i name="EREF">      0.00000000</i>
   <separator name="electronic smearing" >
    <i type="int" name="ISMEAR">    -4</i>
    <i name="SIGMA">      0.10000000</i>
    <i name="KSPACING">      0.50000000</i>
    <i type="logical" name="KGAMMA"> T  </i>
    <i type="logical" name="KBLOWUP"> T  </i>
   </separator>
   <separator name="electronic projectors" >
    <i type="logical" name="LREAL"> F  </i>
    <v name="ROPT">      0.00000000      0.00000000</v>
    <i type="int" name="LMAXPAW">  -100</i>
    <i type="int" name="LMAXMIX">     2</i>
    <i type="logical" name="NLSPLINE"> F  </i>
   </separator>
   <separator name="electronic startup" >
    <i type="int" name="ISTART">     0</i>
    <i type="int" name="ICHARG">     2</i>
    <i type="int" name="INIWAV">     1</i>
   </separator>
   <separator name="electronic spin" >
    <i type="int" name="ISPIN">     1</i>
    <i type="logical" name="LNONCOLLINEAR"> F  </i>
    <v name="MAGMOM">      1.00000000      1.00000000</v>
    <i name="NUPDOWN">     -1.00000000</i>
    <i type="logical" name="LSORBIT"> F  </i>
    <v name="SAXIS">      0.00000000      0.00000000      1.00000000</v>
    <i type="logical" name="LSPIRAL"> F  </i>
    <v name="QSPIRAL">      0.00000000      0.00000000      0.00000000</v>
    <i type="logical" name="LZEROZ"> F  </i>
   </separator>
   <separator name="electronic exchange-correlation" >
    <i type="logical" name="LASPH"> T  </i>
   </separator>
   <separator name="electronic convergence" >
    <i type="int" name="NELM">   100</i>
    <i type="int" name="NELMDL">    -5</i>
    <i type="int" name="NELMIN">     2</i>
    <i name="ENINI">    262.47200000</i>
    <separator name="electronic convergence detail" >
     <i type="logical" name="LDIAG"> T  </i>
     <i type="logical" name="LSUBROT"> F  </i>
     <i type="logical" name="LROBUST"> F  </i>
     <i type="int" name="ISEARCH">     0</i>
     <i name="WEIMIN">      0.00100000</i>
     <i name="EBREAK">      0.00000008</i>
     <i name="DEPER">      0.30000000</i>
     <i type="int" name="NRMM">     4</i>
     <i name="TIME">      0.40000000</i>
    </separator>
   </separator>
   <separator name="electronic mixer" >
    <i name="AMIX">      0.40000000</i>
    <i name="BMIX">      1.00000000</i>
    <i name="AMIN">      0.10000000</i>
    <i name="AMIX_MAG">      1.60000000</i>
    <i name="BMIX_MAG">      1.00000000</i>
    <separator name="electronic mixer details" >
     <i type="int" name="IMIX">     4</i>
     <i type="logical" name="MIXFIRST"> F  </i>
     <i type="int" name="MAXMIX">   -45</i>
     <i name="WC">    100.00000000</i>
     <i type="int" name="INIMIX">     1</i>
     <i type="int" name="MIXPRE">     1</i>
     <i type="int" name="MREMOVE">     5</i>
    </separator>
   </separator>
   <separator name="electronic dipolcorrection" >
    <i type="logical" name="LDIPOL"> F  </i>
    <i type="logical" name="LMONO"> F  </i>
    <i type="int" name="IDIPOL">     0</i>
    <i name="EPSILON">      1.00000000</i>
    <v name="DIPOL">   -100.00000000   -100.00000000   -100.00000000</v>
    <i name="EFIELD">      0.00000000</i>
    <i type="logical" name="LVACPOTAV"> F  </i>
   </separator>
  </separator>
  <separator name="grids" >
   <i type="int" name="NGX">    16</i>
   <i type="int" name="NGY">    16</i>
   <i type="int" name="NGZ">    16</i>
   <i type="int" name="NGXF">    32</i>
   <i type="int" name="NGYF">    32</i>
   <i type="int" name="NGZF">    32</i>
   <i type="logical" name="ADDGRID"> F  </i>
  </separator>
  <separator name="ionic" >
   <i type="int" name="NSW">     1</i>
   <i type="int" name="IBRION">     2</i>
   <i type="int" name="MDALGO">     0</i>
   <i type="int" name="ISIF">     0</i>
   <i name="PSTRESS">      0.00000000</i>
   <i name="EDIFFG">      0.00010000</i>
   <i type="int" name="NFREE">     1</i>
   <i name="POTIM">      0.50000000</i>
   <i name="SMASS">     -3.00000000</i>
   <i name="SCALEE">      1.00000000</i>
  </separator>
  <separator name="ionic md" >
   <i name="TEBEG">      0.00010000</i>
   <i name="TEEND">      0.00010000</i>
   <i type="int" name="NBLOCK">     1</i>
   <i type="int" name="KBLOCK">     1</i>
   <i type="int" name="NPACO">   256</i>
   <i name="APACO">     10.00000000</i>
  </separator>
  <separator name="symmetry" >
   <i type="int" name="ISYM">     2</i>
   <i name="SYMPREC">      0.00001000</i>
  </separator>
  <separator name="dos" >
   <i type="int" name="LORBIT">    11</i>
   <v name="RWIGS">     -1.00000000     -1.00000000</v>
   <i type="int" name="NEDOS">  3602</i>
   <i name="EMIN">    -15.01000000</i>
   <i name="EMAX">     21.00000000</i>
   <i name="EFERMI">      0.00000000</i>
  </separator>
  <separator name="writing" >
   <i type="int" name="NWRITE">     2</i>
   <i type="logical" name="LWAVE"> F  </i>
   <i type="logical" name="LDOWNSAMPLE"> F  </i>
   <i type="logical" name="LCHARG"> F  </i>
   <i type="logical" name="LPARD"> F  </i>
   <i type="logical" name="LVTOT"> T  </i>
   <i type="logical" name="LVHAR"> F  </i>
   <i type="logical" name="LELF"> F  </i>
   <i type="logical" name="LOPTICS"> F  </i>
   <v name="STM">      0.00000000      0.00000000      0.00000000      0.00000000      0.00000000      0.00000000      0.00000000</v>
  </separator>
  <separator name="performance" >
   <i type="int" name="NPAR">    10</i>
   <i type="int" name="NSIM">     4</i>
   <i type="int" name="NBLK">    -1</i>
   <i type="logical" name="LPLANE"> T  </i>
   <i type="logical" name="LSCALAPACK"> T  </i>
   <i type="logical" name="LSCAAWARE"> F  </i>
   <i type="logical" name="LSCALU"> F  </i>
   <i type="logical" name="LASYNC"> F  </i>
   <i type="logical" name="LORBITALREAL"> F  </i>
  </separator>
  <separator name="miscellaneous" >
   <i type="int" name="IDIOT">     3</i>
   <i type="int" name="PHON_NSTRUCT">    -1</i>
   <i type="logical" name="LMUSIC"> F  </i>
   <v name="POMASS">    132.90000000     35.45300000</v>
   <v name="DARWINR">      0.00000000      0.00000000</v>
   <v name="DARWINV">      1.00000000      1.00000000</v>
   <i type="logical" name="LCORR"> T  </i>
  </separator>
  <i type="logical" name="GGA_COMPAT"> T  </i>
  <i type="logical" name="LBERRY"> F  </i>
  <i type="int" name="ICORELEVEL">     0</i>
  <i type="logical" name="LDAU"> F  </i>
  <i type="int" name="I_CONSTRAINED_M">     0</i>
  <separator name="electronic exchange-correlation" >
   <i type="string" name="GGA    ">PS</i>
   <i type="string" name="XC_C">1</i>
   <i type="int" name="VOSKOWN">     0</i>
   <i type="logical" name="LHFCALC"> F  </i>
   <i type="string" name="PRECFOCK"></i>
   <i type="logical" name="LSYMGRAD"> F  </i>
   <i type="logical" name="LHFONE"> F  </i>
   <i type="logical" name="LRHFCALC"> F  </i>
   <i type="logical" name="LTHOMAS"> F  </i>
   <i type="logical" name="LMODELHF"> F  </i>
   <i type="logical" name="LFOCKACE"> F  </i>
   <i name="ENCUT4O">     -1.00000000</i>
   <i type="int" name="EXXOEP">     0</i>
   <i type="int" name="FOURORBIT">     0</i>
   <i name="AEXX">      0.00000000</i>
   <i name="HFALPHA">      0.00000000</i>
   <i name="MCALPHA">      0.00000000</i>
   <i name="ALDAX">      1.00000000</i>
   <i name="AGGAX">      1.00000000</i>
   <i name="AMGGAX">      1.00000000</i>
   <i name="ALDAC">      1.00000000</i>
   <i name="AGGAC">      1.00000000</i>
   <i name="AMGGAC">      1.00000000</i>
   <i type="int" name="NKREDX">     1</i>
   <i type="int" name="NKREDY">     1</i>
   <i type="int" name="NKREDZ">     1</i>
   <i type="logical" name="SHIFTRED"> F  </i>
   <i type="logical" name="ODDONLY"> F  </i>
   <i type="logical" name="EVENONLY"> F  </i>
   <i type="int" name="LMAXFOCK">     0</i>
   <i type="int" name="NMAXFOCKAE">     0</i>
   <i type="logical" name="LFOCKAEDFT"> F  </i>
   <i name="HFSCREEN">      0.00000000</i>
   <i name="HFSCREENC">      0.00000000</i>
   <i type="int" name="NBANDSGWLOW">     0</i>
  </separator>
  <separator name="vdW DFT" >
   <i type="logical" name="LUSE_VDW"> F  </i>
   <i type="int" name="IVDW_NL">    -1</i>
   <i type="logical" name="LSPIN_VDW"> F  </i>
   <i name="ZAB_VDW">     -0.84910000</i>
   <i name="GAMMA_VDW">      1.39626340</i>
   <i name="ALPHA_VDW">      0.00000000</i>
   <i name="PARAM1">      0.12340000</i>
   <i name="PARAM2">      1.00000000</i>
   <i name="BPARAM">      6.30000000</i>
   <i name="CPARAM">      0.00930000</i>
  </separator>
  <separator name="model GW" >
   <i type="int" name="MODEL_GW">     0</i>
   <i name="MODEL_EPS0">     20.30708224</i>
   <i name="MODEL_ALPHA">      1.00000000</i>
  </separator>
  <separator name="linear response parameters" >
   <i type="logical" name="LEPSILON"> F  </i>
   <i type="logical" name="LRPA"> F  </i>
   <i type="logical" name="LNABLA"> F  </i>
   <i type="logical" name="LVEL"> F  </i>
   <i name="CSHIFT">      0.10000000</i>
   <i name="OMEGAMAX">     -1.00000000</i>
   <i name="DEG_THRESHOLD">      0.00200000</i>
   <i name="RTIME">     -0.10000000</i>
   <i name="WPLASMAI">      0.00000000</i>
   <v name="DFIELD">      0.00000000      0.00000000      0.00000000</v>
   <v name="WPLASMA">      0.00000000      0.00000000      0.00000000      0.00000000      0.00000000      0.00000000      0.00000000      0.00000000      0.00000000</v>
  </separator>
  <separator name="orbital magnetization" >
   <i type="logical" name="NUCIND"> F  </i>
   <v name="MAGPOS">      0.00000000      0.00000000      0.00000000</v>
   <i type="logical" name="LNICSALL"> T  </i>
   <i type="logical" name="ORBITALMAG"> F  </i>
   <i type="logical" name="LMAGBLOCH"> F  </i>
   <i type="logical" name="LCHIMAG"> F  </i>
   <i type="logical" name="LGAUGE"> T  </i>
   <i type="int" name="MAGATOM">     0</i>
   <v name="MAGDIPOL">      0.00000000      0.00000000      0.00000000</v>
   <v name="AVECCONST">      0.00000000      0.00000000      0.00000000</v>
  </separator>
  <separator name="response functions" >
   <i type="logical" name="LALL_IN_ONE"> F  </i>
   <i type="int" name="IALL_IN_ONE">    -1</i>
   <i type="int" name="NBANDS_WAVE">    -1</i>
   <i type="logical" name="LFINITE_TEMPERATURE"> F  </i>
   <i type="logical" name="LADDER"> F  </i>
   <i type="logical" name="LRPAFORCE"> F  </i>
   <i type="logical" name="LFXC"> F  </i>
   <i type="logical" name="LHARTREE"> T  </i>
   <i type="int" name="IBSE">     2</i>
   <v type="int" name="KPOINT">    -1     0     0     0</v>
   <i type="logical" name="LTCTC"> F  </i>
   <i type="logical" name="LTCTE"> F  </i>
   <i type="logical" name="LTETE"> F  </i>
   <i type="logical" name="LTRIPLET"> F  </i>
   <i type="logical" name="LFXCEPS"> F  </i>
   <i type="logical" name="LFXHEG"> F  </i>
   <i type="int" name="NATURALO">     2</i>
   <i type="logical" name="LHOLEGF"> F  </i>
   <i type="logical" name="L2ORDER"> F  </i>
   <i type="logical" name="LDMP1"> F  </i>
   <i type="logical" name="LMP2LT"> F  </i>
   <i type="logical" name="LSMP2LT"> F  </i>
   <i type="logical" name="LGWLF"> F  </i>
   <i name="ENCUTGW">     -1.60000002</i>
   <i name="ENCUTGWSOFT">     -1.60000002</i>
   <i name="ENCUTLF">     -1.00000000</i>
   <i type="logical" name="ESF_SPLINES"> F  </i>
   <i name="ESF_CONV">      0.01000000</i>
   <i type="int" name="ESF_NINTER">    15</i>
   <i type="int" name="LMAXMP2">    -1</i>
   <i name="SCISSOR">      0.00000000</i>
   <i type="int" name="NOMEGA">     0</i>
   <i type="int" name="NOMEGAR">     0</i>
   <i type="int" name="NBANDSGW">    -1</i>
   <i type="int" name="NBANDSO">    -1</i>
   <i type="int" name="NBANDSV">    -1</i>
   <i type="int" name="NELMGW">     1</i>
   <i type="int" name="NELMHF">     1</i>
   <i type="int" name="DIM">     3</i>
   <i type="int" name="IESPILON">     4</i>
   <i type="int" name="ANTIRES">     0</i>
   <i name="OMEGAMAX">    -30.00000000</i>
   <i name="OMEGAMIN">    -30.00000000</i>
   <i name="OMEGATL">   -200.00000000</i>
   <i type="int" name="OMEGAGRID">     0</i>
   <i name="CSHIFT">     -0.10000000</i>
   <i type="logical" name="LSELFENERGY"> F  </i>
   <i type="logical" name="LSPECTRAL"> F  </i>
   <i type="logical" name="LSPECTRALGW"> F  </i>
   <i type="logical" name="LSINGLES"> F  </i>
   <i type="logical" name="LFERMIGW"> F  </i>
   <i type="logical" name="ODDONLYGW"> F  </i>
   <i type="logical" name="EVENONLYGW"> F  </i>
   <i type="int" name="NKREDLFX">     1</i>
   <i type="int" name="NKREDLFY">     1</i>
   <i type="int" name="NKREDLFZ">     1</i>
   <i type="int" name="MAXMEM">  2800</i>
   <i type="int" name="TELESCOPE">     0</i>
   <i type="int" name="NTAUPAR">    -1</i>
   <i type="int" name="NOMEGAPAR">    -1</i>
   <i name="DAMP_NEWTON">      0.80000001</i>
   <i name="LAMBDA">      1.00000000</i>
  </separator>
  <separator name="External order field" >
   <i name="OFIELD_KAPPA">      0.00000000</i>
   <v name="OFIELD_K">      0.00000000      0.00000000      0.00000000</v>
   <i name="OFIELD_Q6_NEAR">      0.00000000</i>
   <i name="OFIELD_Q6_FAR">      0.00000000</i>
   <i name="OFIELD_A">      0.00000000</i>
  </separator>
  <separator name="optional k-points parameters" >
   <i type="int" name="KPOINTS_OPT_MODE">     1</i>
   <i type="logical" name="LKPOINTS_OPT"> F  </i>
  </separator>
 </parameters>
 <atominfo>
  <atoms>       2 </atoms>
  <types>       2 </types>
  <array name="atoms" >
   <dimension dim="1">ion</dimension>
   <field type="string">element</field>
   <field type="int">atomtype</field>
   <set>
    <rc><c>Cs</c><c>   1</c></rc>
    <rc><c>Cl</c><c>   2</c></rc>
   </set>
  </array>
  <array name="atomtypes" >
   <dimension dim="1">type</dimension>
   <field type="int">atomspertype</field>
   <field type="string">element</field>
   <field>mass</field>
   <field>valence</field>
   <field type="string">pseudopotential</field>
   <set>
    <rc><c>   1</c><c>Cs</c><c>    132.90000000</c><c>      9.00000000</c><c>  PAW_PBE Cs_sv 08Apr2002               </c></rc>
    <rc><c>   1</c><c>Cl</c><c>     35.45300000</c><c>      7.00000000</c><c>  PAW_PBE Cl 06Sep2000                  </c></rc>
   </set>
  </array>
 </atominfo>
 <structure name="initialpos" >
  <crystal>
   <varray name="basis" >
    <v>       4.07544864       0.00000000       0.00000000 </v>
    <v>       0.00000000       4.07544864       0.00000000 </v>
    <v>       0.00000000       0.00000000       4.07544864 </v>
   </varray>
   <i name="volume">     67.69027413 </i>
   <varray name="rec_basis" >
    <v>       0.24537176       0.00000000       0.00000000 </v>
    <v>       0.00000000       0.24537176       0.00000000 </v>
    <v>       0.00000000       0.00000000       0.24537176 </v>
   </varray>
  </crystal>
  <varray name="positions" >
   <v>       0.00000000       0.00000000       0.00000000 </v>
   <v>       0.50000000       0.50000000       0.50000000 </v>
  </varray>
 </structure>
 <calculation>
  <scstep>
   <time name="dav">    0.17    0.24</time>
   <time name="total">    0.23    0.30</time>
   <energy>
    <i name="alphaZ">     54.34366693 </i>
    <i name="ewald">   -830.13603332 </i>
    <i name="hartreedc">   -126.29286671 </i>
    <i name="XCdc">     31.46207719 </i>
    <i name="pawpsdc">    749.47380581 </i>
    <i name="pawaedc">   -742.20009777 </i>
    <i name="eentropy">      0.00000000 </i>
    <i name="bandstr">    -52.67079785 </i>
    <i name="atom">    964.39621982 </i>
    <i name="e_fr_energy">     48.37597410 </i>
    <i name="e_wo_entrp">     48.37597410 </i>
    <i name="e_0_energy">     48.37597410 </i>
   </energy>
  </scstep>
  <scstep>
   <time name="dav">    0.17    0.18</time>
   <time name="total">    0.17    0.18</time>
   <energy>
    <i name="e_fr_energy">     -5.17314111 </i>
    <i name="e_wo_entrp">     -5.17314111 </i>
    <i name="e_0_energy">     -5.17314111 </i>
   </energy>
  </scstep>
  <scstep>
   <time name="dav">    0.15    0.15</time>
   <time name="total">    0.15    0.15</time>
   <energy>
    <i name="e_fr_energy">     -7.18937527 </i>
    <i name="e_wo_entrp">     -7.18937527 </i>
    <i name="e_0_energy">     -7.18937527 </i>
   </energy>
  </scstep>
  <scstep>
   <time name="dav">    0.14    0.14</time>
   <time name="total">    0.14    0.14</time>
   <energy>
    <i name="e_fr_energy">     -7.19743139 </i>
    <i name="e_wo_entrp">     -7.19743139 </i>
    <i name="e_0_energy">     -7.19743139 </i>
   </energy>
  </scstep>
  <scstep>
   <time name="dav">    0.15    0.16</time>
   <time name="total">    0.16    0.16</time>
   <energy>
    <i name="e_fr_energy">     -7.19747102 </i>
    <i name="e_wo_entrp">     -7.19747102 </i>
    <i name="e_0_energy">     -7.19747102 </i>
   </energy>
  </scstep>
  <scstep>
   <time name="dav">    0.15    0.15</time>
   <time name="total">    0.21    0.25</time>
   <energy>
    <i name="e_fr_energy">     -6.89510250 </i>
    <i name="e_wo_entrp">     -6.89510250 </i>
    <i name="e_0_energy">     -6.89510250 </i>
   </energy>
  </scstep>
  <scstep>
   <time name="dav">    0.16    0.16</time>
   <time name="total">    0.21    0.23</time>
   <energy>
    <i name="e_fr_energy">     -6.85630108 </i>
    <i name="e_wo_entrp">     -6.85630108 </i>
    <i name="e_0_energy">     -6.85630108 </i>
   </energy>
  </scstep>
  <scstep>
   <time name="dav">    0.15    0.15</time>
   <time name="total">    0.20    0.22</time>
   <energy>
    <i name="e_fr_energy">     -6.85472400 </i>
    <i name="e_wo_entrp">     -6.85472400 </i>
    <i name="e_0_energy">     -6.85472400 </i>
   </energy>
  </scstep>
  <scstep>
   <time name="dav">    0.15    0.15</time>
   <time name="total">    0.20    0.21</time>
   <energy>
    <i name="e_fr_energy">     -6.85406286 </i>
    <i name="e_wo_entrp">     -6.85406286 </i>
    <i name="e_0_energy">     -6.85406286 </i>
   </energy>
  </scstep>
  <scstep>
   <time name="dav">    0.14    0.14</time>
   <time name="total">    0.19    0.19</time>
   <energy>
    <i name="e_fr_energy">     -6.85422094 </i>
    <i name="e_wo_entrp">     -6.85422094 </i>
    <i name="e_0_energy">     -6.85422094 </i>
   </energy>
  </scstep>
  <scstep>
   <time name="dav">    0.15    0.15</time>
   <time name="total">    0.20    0.20</time>
   <energy>
    <i name="e_fr_energy">     -6.85420928 </i>
    <i name="e_wo_entrp">     -6.85420928 </i>
    <i name="e_0_energy">     -6.85420928 </i>
   </energy>
  </scstep>
  <scstep>
   <time name="dav">    0.13    0.13</time>
   <time name="total">    0.18    0.18</time>
   <energy>
    <i name="alphaZ">     54.34366693 </i>
    <i name="ewald">   -830.13603332 </i>
    <i name="hartreedc">   -130.58079652 </i>
    <i name="XCdc">     31.91253056 </i>
    <i name="pawpsdc">    912.52374757 </i>
    <i name="pawaedc">   -905.57617501 </i>
    <i name="eentropy">      0.00000000 </i>
    <i name="bandstr">   -103.73736961 </i>
    <i name="atom">    964.39621982 </i>
    <i name="e_fr_energy">     -6.85420958 </i>
    <i name="e_wo_entrp">     -6.85420958 </i>
    <i name="e_0_energy">     -6.85420958 </i>
   </energy>
  </scstep>
  <structure>
   <crystal>
    <varray name="basis" >
     <v>       4.07544864       0.00000000       0.00000000 </v>
     <v>       0.00000000       4.07544864       0.00000000 </v>
     <v>       0.00000000       0.00000000       4.07544864 </v>
    </varray>
    <i name="volume">     67.69027413 </i>
    <varray name="rec_basis" >
     <v>       0.24537176       0.00000000       0.00000000 </v>
     <v>       0.00000000       0.24537176       0.00000000 </v>
     <v>       0.00000000       0.00000000       0.24537176 </v>
    </varray>
   </crystal>
   <varray name="positions" >
    <v>       0.00000000       0.00000000       0.00000000 </v>
    <v>       0.50000000       0.50000000       0.50000000 </v>
   </varray>
  </structure>
  <varray name="forces" >
   <v>       0.00000000       0.00000000       0.00000000 </v>
   <v>      -0.00000000      -0.00000000      -0.00000000 </v>
  </varray>
  <energy>
   <i name="e_fr_energy">     -6.85420958 </i>
   <i name="e_wo_entrp">     -6.85420958 </i>
   <i name="e_0_energy">     -6.85420958 </i>
  </energy>
  <time name="totalsc">    2.35    2.51</time>
  <eigenvalues>
   <array>
    <dimension dim="1">band</dimension>
    <dimension dim="2">kpoint</dimension>
    <dimension dim="3">spin</dimension>
    <field>eigene</field>
    <field>occ</field>
    <set>
     <set comment="spin 1">
      <set comment="kpoint 1">
       <r>  -19.4193    1.0000 </r>
       <r>  -12.3044    1.0000 </r>
       <r>   -5.8642    1.0000 </r>
       <r>   -5.8642    1.0000 </r>
       <r>   -5.8642    1.0000 </r>
       <r>   -0.0838    1.0000 </r>
       <r>   -0.0838    1.0000 </r>
       <r>   -0.0838    1.0000 </r>
       <r>    5.1161    0.0000 </r>
       <r>    5.1363    0.0000 </r>
       <r>    5.1363    0.0000 </r>
       <r>   10.0423    0.0000 </r>
       <r>   10.0423    0.0000 </r>
       <r>   10.0423    0.0000 </r>
       <r>   13.2138    0.0000 </r>
       <r>   13.2138    0.0000 </r>
       <r>   15.5729    0.0000 </r>
       <r>   15.5729    0.0000 </r>
       <r>   15.5729    0.0000 </r>
       <r>   15.6347    0.0000 </r>
       <r>   15.6347    0.0000 </r>
       <r>   15.6347    0.0000 </r>
       <r>   17.2017    0.0000 </r>
       <r>   17.2017    0.0000 </r>
       <r>   17.2017    0.0000 </r>
       <r>   21.5181    0.0000 </r>
       <r>   21.5402    0.0000 </r>
       <r>   26.0099    0.0000 </r>
       <r>   26.0099    0.0000 </r>
       <r>   27.4368    0.0000 </r>
      </set>
      <set comment="kpoint 2">
       <r>  -19.4058    1.0000 </r>
       <r>  -12.3123    1.0000 </r>
       <r>   -5.9614    1.0000 </r>
       <r>   -5.8408    1.0000 </r>
       <r>   -5.8408    1.0000 </r>
       <r>   -0.3250    1.0000 </r>
       <r>   -0.1270    1.0000 </r>
       <r>   -0.1270    1.0000 </r>
       <r>    5.2461    0.0000 </r>
       <r>    5.4784    0.0000 </r>
       <r>    5.5667    0.0000 </r>
       <r>    9.8949    0.0000 </r>
       <r>    9.8949    0.0000 </r>
       <r>   10.1370    0.0000 </r>
       <r>   12.1588    0.0000 </r>
       <r>   13.4185    0.0000 </r>
       <r>   14.5709    0.0000 </r>
       <r>   14.5709    0.0000 </r>
       <r>   15.1641    0.0000 </r>
       <r>   16.1663    0.0000 </r>
       <r>   16.1663    0.0000 </r>
       <r>   16.5642    0.0000 </r>
       <r>   16.8550    0.0000 </r>
       <r>   18.4925    0.0000 </r>
       <r>   18.4925    0.0000 </r>
       <r>   22.1198    0.0000 </r>
       <r>   22.3768    0.0000 </r>
       <r>   23.2069    0.0000 </r>
       <r>   26.1438    0.0000 </r>
       <r>   26.3550    0.0000 </r>
      </set>
      <set comment="kpoint 3">
       <r>  -19.3718    1.0000 </r>
       <r>  -12.3330    1.0000 </r>
       <r>   -6.1752    1.0000 </r>
       <r>   -5.7826    1.0000 </r>
       <r>   -5.7826    1.0000 </r>
       <r>   -0.8098    1.0000 </r>
       <r>   -0.2245    1.0000 </r>
       <r>   -0.2245    1.0000 </r>
       <r>    5.5583    0.0000 </r>
       <r>    6.3068    0.0000 </r>
       <r>    6.7245    0.0000 </r>
       <r>    9.6514    0.0000 </r>
       <r>    9.6514    0.0000 </r>
       <r>   10.4029    0.0000 </r>
       <r>   10.6845    0.0000 </r>
       <r>   13.3049    0.0000 </r>
       <r>   13.3049    0.0000 </r>
       <r>   13.6551    0.0000 </r>
       <r>   14.6691    0.0000 </r>
       <r>   15.4409    0.0000 </r>
       <r>   17.7048    0.0000 </r>
       <r>   17.7048    0.0000 </r>
       <r>   19.0082    0.0000 </r>
       <r>   19.8818    0.0000 </r>
       <r>   20.5346    0.0000 </r>
       <r>   20.5346    0.0000 </r>
       <r>   22.3401    0.0000 </r>
       <r>   24.1513    0.0000 </r>
       <r>   25.3982    0.0000 </r>
       <r>   26.2379    0.0000 </r>
      </set>
      <set comment="kpoint 4">
       <r>  -19.3371    1.0000 </r>
       <r>  -12.3565    1.0000 </r>
       <r>   -6.3643    1.0000 </r>
       <r>   -5.7222    1.0000 </r>
       <r>   -5.7222    1.0000 </r>
       <r>   -1.2200    1.0000 </r>
       <r>   -0.3264    1.0000 </r>
       <r>   -0.3264    1.0000 </r>
       <r>    5.9825    0.0000 </r>
       <r>    7.1710    0.0000 </r>
       <r>    8.1346    0.0000 </r>
       <r>    9.5127    0.0000 </r>
       <r>    9.5259    0.0000 </r>
       <r>    9.5259    0.0000 </r>
       <r>   10.7455    0.0000 </r>
       <r>   12.4132    0.0000 </r>
       <r>   12.4132    0.0000 </r>
       <r>   13.1756    0.0000 </r>
       <r>   14.4858    0.0000 </r>
       <r>   15.2234    0.0000 </r>
       <r>   17.4690    0.0000 </r>
       <r>   19.8374    0.0000 </r>
       <r>   19.8374    0.0000 </r>
       <r>   20.3231    0.0000 </r>
       <r>   21.2740    0.0000 </r>
       <r>   22.6562    0.0000 </r>
       <r>   22.6562    0.0000 </r>
       <r>   25.1574    0.0000 </r>
       <r>   25.7327    0.0000 </r>
       <r>   25.7327    0.0000 </r>
      </set>
      <set comment="kpoint 5">
       <r>  -19.3226    1.0000 </r>
       <r>  -12.3670    1.0000 </r>
       <r>   -6.4363    1.0000 </r>
       <r>   -5.6964    1.0000 </r>
       <r>   -5.6964    1.0000 </r>
       <r>   -1.3756    1.0000 </r>
       <r>   -0.3694    1.0000 </r>
       <r>   -0.3694    1.0000 </r>
       <r>    6.2263    0.0000 </r>
       <r>    7.5713    0.0000 </r>
       <r>    8.8415    0.0000 </r>
       <r>    9.0166    0.0000 </r>
       <r>    9.5061    0.0000 </r>
       <r>    9.5061    0.0000 </r>
       <r>   10.9274    0.0000 </r>
       <r>   12.0813    0.0000 </r>
       <r>   12.0813    0.0000 </r>
       <r>   13.2572    0.0000 </r>
       <r>   14.0892    0.0000 </r>
       <r>   14.5624    0.0000 </r>
       <r>   18.1966    0.0000 </r>
       <r>   18.2481    0.0000 </r>
       <r>   21.8800    0.0000 </r>
       <r>   21.8800    0.0000 </r>
       <r>   22.7907    0.0000 </r>
       <r>   22.7907    0.0000 </r>
       <r>   23.0781    0.0000 </r>
       <r>   23.7715    0.0000 </r>
       <r>   25.0561    0.0000 </r>
       <r>   25.0561    0.0000 </r>
      </set>
      <set comment="kpoint 6">
       <r>  -19.3922    1.0000 </r>
       <r>  -12.3159    1.0000 </r>
       <r>   -6.0080    1.0000 </r>
       <r>   -5.8874    1.0000 </r>
       <r>   -5.8185    1.0000 </r>
       <r>   -0.4705    1.0000 </r>
       <r>   -0.1808    1.0000 </r>
       <r>   -0.1568    1.0000 </r>
       <r>    5.4795    0.0000 </r>
       <r>    5.7778    0.0000 </r>
       <r>    5.8339    0.0000 </r>
       <r>    9.5525    0.0000 </r>
       <r>    9.6570    0.0000 </r>
       <r>   10.3810    0.0000 </r>
       <r>   12.3214    0.0000 </r>
       <r>   12.9108    0.0000 </r>
       <r>   13.5363    0.0000 </r>
       <r>   13.9349    0.0000 </r>
       <r>   15.8122    0.0000 </r>
       <r>   16.3610    0.0000 </r>
       <r>   16.5217    0.0000 </r>
       <r>   17.5650    0.0000 </r>
       <r>   17.8208    0.0000 </r>
       <r>   18.1461    0.0000 </r>
       <r>   18.6977    0.0000 </r>
       <r>   22.8157    0.0000 </r>
       <r>   22.8713    0.0000 </r>
       <r>   23.2525    0.0000 </r>
       <r>   23.9955    0.0000 </r>
       <r>   25.8201    0.0000 </r>
      </set>
      <set comment="kpoint 7">
       <r>  -19.3590    1.0000 </r>
       <r>  -12.3263    1.0000 </r>
       <r>   -6.2095    1.0000 </r>
       <r>   -5.8919    1.0000 </r>
       <r>   -5.7634    1.0000 </r>
       <r>   -0.8173    1.0000 </r>
       <r>   -0.2711    1.0000 </r>
       <r>   -0.2305    1.0000 </r>
       <r>    5.8077    0.0000 </r>
       <r>    6.4647    0.0000 </r>
       <r>    6.8405    0.0000 </r>
       <r>    9.2237    0.0000 </r>
       <r>    9.3089    0.0000 </r>
       <r>   10.4373    0.0000 </r>
       <r>   11.3042    0.0000 </r>
       <r>   12.5153    0.0000 </r>
       <r>   13.2198    0.0000 </r>
       <r>   13.5286    0.0000 </r>
       <r>   15.4578    0.0000 </r>
       <r>   16.2100    0.0000 </r>
       <r>   17.6161    0.0000 </r>
       <r>   18.1326    0.0000 </r>
       <r>   19.5124    0.0000 </r>
       <r>   19.8465    0.0000 </r>
       <r>   20.1443    0.0000 </r>
       <r>   20.2229    0.0000 </r>
       <r>   22.7498    0.0000 </r>
       <r>   23.9025    0.0000 </r>
       <r>   25.0297    0.0000 </r>
       <r>   25.1573    0.0000 </r>
      </set>
      <set comment="kpoint 8">
       <r>  -19.3252    1.0000 </r>
       <r>  -12.3393    1.0000 </r>
       <r>   -6.4037    1.0000 </r>
       <r>   -5.8809    1.0000 </r>
       <r>   -5.7063    1.0000 </r>
       <r>   -1.1181    1.0000 </r>
       <r>   -0.3645    1.0000 </r>
       <r>   -0.3096    1.0000 </r>
       <r>    6.1781    0.0000 </r>
       <r>    7.1729    0.0000 </r>
       <r>    7.8613    0.0000 </r>
       <r>    9.1307    0.0000 </r>
       <r>    9.2408    0.0000 </r>
       <r>   10.1383    0.0000 </r>
       <r>   10.5013    0.0000 </r>
       <r>   12.0463    0.0000 </r>
       <r>   13.1688    0.0000 </r>
       <r>   13.7189    0.0000 </r>
       <r>   15.1668    0.0000 </r>
       <r>   15.3785    0.0000 </r>
       <r>   17.2639    0.0000 </r>
       <r>   19.7754    0.0000 </r>
       <r>   20.0427    0.0000 </r>
       <r>   20.1063    0.0000 </r>
       <r>   21.8129    0.0000 </r>
       <r>   21.9307    0.0000 </r>
       <r>   22.5487    0.0000 </r>
       <r>   23.5216    0.0000 </r>
       <r>   25.3053    0.0000 </r>
       <r>   25.6557    0.0000 </r>
      </set>
      <set comment="kpoint 9">
       <r>  -19.3110    1.0000 </r>
       <r>  -12.3454    1.0000 </r>
       <r>   -6.4780    1.0000 </r>
       <r>   -5.8770    1.0000 </r>
       <r>   -5.6820    1.0000 </r>
       <r>   -1.2298    1.0000 </r>
       <r>   -0.4062    1.0000 </r>
       <r>   -0.3426    1.0000 </r>
       <r>    6.3748    0.0000 </r>
       <r>    7.6478    0.0000 </r>
       <r>    7.8594    0.0000 </r>
       <r>    9.1810    0.0000 </r>
       <r>    9.3289    0.0000 </r>
       <r>    9.8942    0.0000 </r>
       <r>   10.5800    0.0000 </r>
       <r>   12.0247    0.0000 </r>
       <r>   13.4004    0.0000 </r>
       <r>   13.4774    0.0000 </r>
       <r>   14.5928    0.0000 </r>
       <r>   14.8780    0.0000 </r>
       <r>   17.8597    0.0000 </r>
       <r>   18.1375    0.0000 </r>
       <r>   21.5845    0.0000 </r>
       <r>   22.0360    0.0000 </r>
       <r>   22.0777    0.0000 </r>
       <r>   22.8299    0.0000 </r>
       <r>   23.3595    0.0000 </r>
       <r>   23.6590    0.0000 </r>
       <r>   24.2547    0.0000 </r>
       <r>   25.3348    0.0000 </r>
      </set>
      <set comment="kpoint 10">
       <r>  -19.3277    1.0000 </r>
       <r>  -12.3111    1.0000 </r>
       <r>   -6.3300    1.0000 </r>
       <r>   -6.0964    1.0000 </r>
       <r>   -5.7160    1.0000 </r>
       <r>   -0.8622    1.0000 </r>
       <r>   -0.3535    1.0000 </r>
       <r>   -0.2460    1.0000 </r>
       <r>    6.0996    0.0000 </r>
       <r>    6.7740    0.0000 </r>
       <r>    7.4645    0.0000 </r>
       <r>    8.6996    0.0000 </r>
       <r>    9.2228    0.0000 </r>
       <r>    9.9179    0.0000 </r>
       <r>   11.3490    0.0000 </r>
       <r>   12.7870    0.0000 </r>
       <r>   12.9403    0.0000 </r>
       <r>   13.6634    0.0000 </r>
       <r>   16.2103    0.0000 </r>
       <r>   17.3326    0.0000 </r>
       <r>   17.7932    0.0000 </r>
       <r>   18.9840    0.0000 </r>
       <r>   19.2306    0.0000 </r>
       <r>   19.4359    0.0000 </r>
       <r>   20.4981    0.0000 </r>
       <r>   20.9041    0.0000 </r>
       <r>   21.7296    0.0000 </r>
       <r>   22.9492    0.0000 </r>
       <r>   23.3123    0.0000 </r>
       <r>   26.4829    0.0000 </r>
      </set>
      <set comment="kpoint 11">
       <r>  -19.2958    1.0000 </r>
       <r>  -12.2974    1.0000 </r>
       <r>   -6.5045    1.0000 </r>
       <r>   -6.2231    1.0000 </r>
       <r>   -5.6672    1.0000 </r>
       <r>   -0.9085    1.0000 </r>
       <r>   -0.4327    1.0000 </r>
       <r>   -0.2640    1.0000 </r>
       <r>    6.2109    0.0000 </r>
       <r>    6.8157    0.0000 </r>
       <r>    8.3308    0.0000 </r>
       <r>    8.4789    0.0000 </r>
       <r>    9.2096    0.0000 </r>
       <r>    9.8225    0.0000 </r>
       <r>   11.1262    0.0000 </r>
       <r>   12.4908    0.0000 </r>
       <r>   13.7394    0.0000 </r>
       <r>   14.5001    0.0000 </r>
       <r>   16.0869    0.0000 </r>
       <r>   16.6866    0.0000 </r>
       <r>   16.8054    0.0000 </r>
       <r>   18.9906    0.0000 </r>
       <r>   20.3211    0.0000 </r>
       <r>   20.4225    0.0000 </r>
       <r>   21.0758    0.0000 </r>
       <r>   21.1401    0.0000 </r>
       <r>   21.3757    0.0000 </r>
       <r>   22.9354    0.0000 </r>
       <r>   24.7550    0.0000 </r>
       <r>   25.2909    0.0000 </r>
      </set>
      <set comment="kpoint 12">
       <r>  -19.2825    1.0000 </r>
       <r>  -12.2922    1.0000 </r>
       <r>   -6.5818    1.0000 </r>
       <r>   -6.2652    1.0000 </r>
       <r>   -5.6467    1.0000 </r>
       <r>   -0.9177    1.0000 </r>
       <r>   -0.4751    1.0000 </r>
       <r>   -0.2734    1.0000 </r>
       <r>    6.2596    0.0000 </r>
       <r>    6.7899    0.0000 </r>
       <r>    8.5188    0.0000 </r>
       <r>    8.5498    0.0000 </r>
       <r>    8.7929    0.0000 </r>
       <r>   10.3092    0.0000 </r>
       <r>   11.7814    0.0000 </r>
       <r>   12.1140    0.0000 </r>
       <r>   13.6228    0.0000 </r>
       <r>   15.3193    0.0000 </r>
       <r>   15.7313    0.0000 </r>
       <r>   15.7712    0.0000 </r>
       <r>   16.9320    0.0000 </r>
       <r>   17.7656    0.0000 </r>
       <r>   20.4579    0.0000 </r>
       <r>   20.9238    0.0000 </r>
       <r>   21.9607    0.0000 </r>
       <r>   22.6748    0.0000 </r>
       <r>   22.8346    0.0000 </r>
       <r>   23.4609    0.0000 </r>
       <r>   23.9136    0.0000 </r>
       <r>   23.9314    0.0000 </r>
      </set>
      <set comment="kpoint 13">
       <r>  -19.2660    1.0000 </r>
       <r>  -12.2548    1.0000 </r>
       <r>   -6.6220    1.0000 </r>
       <r>   -6.5124    1.0000 </r>
       <r>   -5.6274    1.0000 </r>
       <r>   -0.7267    1.0000 </r>
       <r>   -0.4845    1.0000 </r>
       <r>   -0.2183    1.0000 </r>
       <r>    5.9744    0.0000 </r>
       <r>    6.3154    0.0000 </r>
       <r>    8.0709    0.0000 </r>
       <r>    8.4676    0.0000 </r>
       <r>    9.7639    0.0000 </r>
       <r>   10.5098    0.0000 </r>
       <r>   11.7877    0.0000 </r>
       <r>   13.0785    0.0000 </r>
       <r>   13.7485    0.0000 </r>
       <r>   15.5653    0.0000 </r>
       <r>   15.8858    0.0000 </r>
       <r>   16.8092    0.0000 </r>
       <r>   17.3693    0.0000 </r>
       <r>   17.9649    0.0000 </r>
       <r>   19.6969    0.0000 </r>
       <r>   19.7969    0.0000 </r>
       <r>   20.8329    0.0000 </r>
       <r>   21.0173    0.0000 </r>
       <r>   22.4384    0.0000 </r>
       <r>   23.1342    0.0000 </r>
       <r>   23.5726    0.0000 </r>
       <r>   24.0993    0.0000 </r>
      </set>
      <set comment="kpoint 14">
       <r>  -19.2535    1.0000 </r>
       <r>  -12.2369    1.0000 </r>
       <r>   -6.6898    1.0000 </r>
       <r>   -6.6053    1.0000 </r>
       <r>   -5.6106    1.0000 </r>
       <r>   -0.6401    1.0000 </r>
       <r>   -0.5190    1.0000 </r>
       <r>   -0.1989    1.0000 </r>
       <r>    5.9073    0.0000 </r>
       <r>    6.0712    0.0000 </r>
       <r>    8.0389    0.0000 </r>
       <r>    8.0896    0.0000 </r>
       <r>   10.2577    0.0000 </r>
       <r>   11.4618    0.0000 </r>
       <r>   12.4655    0.0000 </r>
       <r>   12.9800    0.0000 </r>
       <r>   13.2728    0.0000 </r>
       <r>   15.7848    0.0000 </r>
       <r>   15.9851    0.0000 </r>
       <r>   16.5142    0.0000 </r>
       <r>   17.1806    0.0000 </r>
       <r>   17.2080    0.0000 </r>
       <r>   19.9432    0.0000 </r>
       <r>   20.2796    0.0000 </r>
       <r>   20.4764    0.0000 </r>
       <r>   22.0509    0.0000 </r>
       <r>   22.3189    0.0000 </r>
       <r>   22.4951    0.0000 </r>
       <r>   23.8153    0.0000 </r>
       <r>   24.6799    0.0000 </r>
      </set>
      <set comment="kpoint 15">
       <r>  -19.2415    1.0000 </r>
       <r>  -12.2135    1.0000 </r>
       <r>   -6.7357    1.0000 </r>
       <r>   -6.7357    1.0000 </r>
       <r>   -5.5956    1.0000 </r>
       <r>   -0.5319    1.0000 </r>
       <r>   -0.5319    1.0000 </r>
       <r>   -0.1689    1.0000 </r>
       <r>    5.7469    0.0000 </r>
       <r>    5.8167    0.0000 </r>
       <r>    7.8482    0.0000 </r>
       <r>    7.8482    0.0000 </r>
       <r>   11.9781    0.0000 </r>
       <r>   11.9781    0.0000 </r>
       <r>   12.4347    0.0000 </r>
       <r>   12.8839    0.0000 </r>
       <r>   14.4300    0.0000 </r>
       <r>   14.4362    0.0000 </r>
       <r>   14.4362    0.0000 </r>
       <r>   16.4806    0.0000 </r>
       <r>   18.2462    0.0000 </r>
       <r>   18.2462    0.0000 </r>
       <r>   19.3733    0.0000 </r>
       <r>   20.4791    0.0000 </r>
       <r>   20.8466    0.0000 </r>
       <r>   20.8466    0.0000 </r>
       <r>   21.4374    0.0000 </r>
       <r>   21.6180    0.0000 </r>
       <r>   24.9858    0.0000 </r>
       <r>   26.2043    0.0000 </r>
      </set>
      <set comment="kpoint 16">
       <r>  -19.3789    1.0000 </r>
       <r>  -12.3162    1.0000 </r>
       <r>   -5.9819    1.0000 </r>
       <r>   -5.9819    1.0000 </r>
       <r>   -5.8379    1.0000 </r>
       <r>   -0.5289    1.0000 </r>
       <r>   -0.2298    1.0000 </r>
       <r>   -0.2298    1.0000 </r>
       <r>    5.8717    0.0000 </r>
       <r>    5.8717    0.0000 </r>
       <r>    6.1084    0.0000 </r>
       <r>    9.3474    0.0000 </r>
       <r>    9.3474    0.0000 </r>
       <r>   10.3256    0.0000 </r>
       <r>   12.6682    0.0000 </r>
       <r>   12.6682    0.0000 </r>
       <r>   12.9429    0.0000 </r>
       <r>   14.7360    0.0000 </r>
       <r>   14.7360    0.0000 </r>
       <r>   15.9879    0.0000 </r>
       <r>   17.6765    0.0000 </r>
       <r>   18.0778    0.0000 </r>
       <r>   18.0778    0.0000 </r>
       <r>   18.8047    0.0000 </r>
       <r>   18.8047    0.0000 </r>
       <r>   22.7421    0.0000 </r>
       <r>   23.0283    0.0000 </r>
       <r>   23.0283    0.0000 </r>
       <r>   24.5284    0.0000 </r>
       <r>   25.4593    0.0000 </r>
      </set>
      <set comment="kpoint 17">
       <r>  -19.3464    1.0000 </r>
       <r>  -12.3182    1.0000 </r>
       <r>   -6.2171    1.0000 </r>
       <r>   -5.9168    1.0000 </r>
       <r>   -5.8584    1.0000 </r>
       <r>   -0.7743    1.0000 </r>
       <r>   -0.3507    1.0000 </r>
       <r>   -0.2677    1.0000 </r>
       <r>    6.1334    0.0000 </r>
       <r>    6.6197    0.0000 </r>
       <r>    6.9785    0.0000 </r>
       <r>    8.9697    0.0000 </r>
       <r>    9.0635    0.0000 </r>
       <r>    9.8460    0.0000 </r>
       <r>   11.8246    0.0000 </r>
       <r>   12.9542    0.0000 </r>
       <r>   13.4698    0.0000 </r>
       <r>   13.5449    0.0000 </r>
       <r>   14.7598    0.0000 </r>
       <r>   17.0210    0.0000 </r>
       <r>   17.4619    0.0000 </r>
       <r>   18.3271    0.0000 </r>
       <r>   19.2546    0.0000 </r>
       <r>   20.0607    0.0000 </r>
       <r>   20.5677    0.0000 </r>
       <r>   20.7833    0.0000 </r>
       <r>   22.6301    0.0000 </r>
       <r>   23.3977    0.0000 </r>
       <r>   24.5218    0.0000 </r>
       <r>   24.9940    0.0000 </r>
      </set>
      <set comment="kpoint 18">
       <r>  -19.3133    1.0000 </r>
       <r>  -12.3225    1.0000 </r>
       <r>   -6.4274    1.0000 </r>
       <r>   -5.8816    1.0000 </r>
       <r>   -5.8488    1.0000 </r>
       <r>   -1.0246    1.0000 </r>
       <r>   -0.4754    1.0000 </r>
       <r>   -0.2679    1.0000 </r>
       <r>    6.4732    0.0000 </r>
       <r>    7.1547    0.0000 </r>
       <r>    7.7928    0.0000 </r>
       <r>    8.6518    0.0000 </r>
       <r>    9.4043    0.0000 </r>
       <r>    9.5892    0.0000 </r>
       <r>   11.0395    0.0000 </r>
       <r>   12.7073    0.0000 </r>
       <r>   13.1501    0.0000 </r>
       <r>   13.9054    0.0000 </r>
       <r>   14.9053    0.0000 </r>
       <r>   16.3677    0.0000 </r>
       <r>   17.3706    0.0000 </r>
       <r>   18.9261    0.0000 </r>
       <r>   19.7169    0.0000 </r>
       <r>   20.9162    0.0000 </r>
       <r>   21.6751    0.0000 </r>
       <r>   21.8994    0.0000 </r>
       <r>   22.7528    0.0000 </r>
       <r>   22.9046    0.0000 </r>
       <r>   25.0893    0.0000 </r>
       <r>   25.3758    0.0000 </r>
      </set>
      <set comment="kpoint 19">
       <r>  -19.2993    1.0000 </r>
       <r>  -12.3250    1.0000 </r>
       <r>   -6.5074    1.0000 </r>
       <r>   -5.8929    1.0000 </r>
       <r>   -5.8197    1.0000 </r>
       <r>   -1.1198    1.0000 </r>
       <r>   -0.5285    1.0000 </r>
       <r>   -0.2672    1.0000 </r>
       <r>    6.6570    0.0000 </r>
       <r>    7.5386    0.0000 </r>
       <r>    7.6262    0.0000 </r>
       <r>    8.5041    0.0000 </r>
       <r>    9.5186    0.0000 </r>
       <r>   10.2529    0.0000 </r>
       <r>   10.7472    0.0000 </r>
       <r>   12.3992    0.0000 </r>
       <r>   12.9561    0.0000 </r>
       <r>   14.3819    0.0000 </r>
       <r>   14.6339    0.0000 </r>
       <r>   15.5793    0.0000 </r>
       <r>   17.6487    0.0000 </r>
       <r>   18.3023    0.0000 </r>
       <r>   20.8016    0.0000 </r>
       <r>   21.4048    0.0000 </r>
       <r>   22.3352    0.0000 </r>
       <r>   23.0506    0.0000 </r>
       <r>   23.2122    0.0000 </r>
       <r>   23.2915    0.0000 </r>
       <r>   23.8658    0.0000 </r>
       <r>   24.2325    0.0000 </r>
      </set>
      <set comment="kpoint 20">
       <r>  -19.3155    1.0000 </r>
       <r>  -12.2993    1.0000 </r>
       <r>   -6.2982    1.0000 </r>
       <r>   -6.1163    1.0000 </r>
       <r>   -5.8592    1.0000 </r>
       <r>   -0.7759    1.0000 </r>
       <r>   -0.4281    1.0000 </r>
       <r>   -0.3601    1.0000 </r>
       <r>    6.5221    0.0000 </r>
       <r>    7.0571    0.0000 </r>
       <r>    7.5123    0.0000 </r>
       <r>    8.5853    0.0000 </r>
       <r>    8.9297    0.0000 </r>
       <r>    9.0717    0.0000 </r>
       <r>   12.3625    0.0000 </r>
       <r>   13.0874    0.0000 </r>
       <r>   13.1787    0.0000 </r>
       <r>   14.1011    0.0000 </r>
       <r>   15.1833    0.0000 </r>
       <r>   17.2884    0.0000 </r>
       <r>   17.7809    0.0000 </r>
       <r>   18.5800    0.0000 </r>
       <r>   19.4102    0.0000 </r>
       <r>   20.0684    0.0000 </r>
       <r>   20.9657    0.0000 </r>
       <r>   21.5449    0.0000 </r>
       <r>   21.7536    0.0000 </r>
       <r>   23.1140    0.0000 </r>
       <r>   23.3208    0.0000 </r>
       <r>   24.4257    0.0000 </r>
      </set>
      <set comment="kpoint 21">
       <r>  -19.2843    1.0000 </r>
       <r>  -12.2815    1.0000 </r>
       <r>   -6.4935    1.0000 </r>
       <r>   -6.2109    1.0000 </r>
       <r>   -5.8216    1.0000 </r>
       <r>   -0.8640    1.0000 </r>
       <r>   -0.5699    1.0000 </r>
       <r>   -0.2970    1.0000 </r>
       <r>    6.6285    0.0000 </r>
       <r>    7.0008    0.0000 </r>
       <r>    8.1007    0.0000 </r>
       <r>    8.4050    0.0000 </r>
       <r>    8.9291    0.0000 </r>
       <r>    9.6986    0.0000 </r>
       <r>   11.8790    0.0000 </r>
       <r>   12.7482    0.0000 </r>
       <r>   13.7345    0.0000 </r>
       <r>   14.8259    0.0000 </r>
       <r>   15.3511    0.0000 </r>
       <r>   17.0120    0.0000 </r>
       <r>   17.6965    0.0000 </r>
       <r>   18.6465    0.0000 </r>
       <r>   19.5063    0.0000 </r>
       <r>   20.0361    0.0000 </r>
       <r>   20.8704    0.0000 </r>
       <r>   21.4205    0.0000 </r>
       <r>   22.4522    0.0000 </r>
       <r>   23.3302    0.0000 </r>
       <r>   23.6763    0.0000 </r>
       <r>   24.3682    0.0000 </r>
      </set>
      <set comment="kpoint 22">
       <r>  -19.2711    1.0000 </r>
       <r>  -12.2745    1.0000 </r>
       <r>   -6.5822    1.0000 </r>
       <r>   -6.2398    1.0000 </r>
       <r>   -5.8014    1.0000 </r>
       <r>   -0.8959    1.0000 </r>
       <r>   -0.6451    1.0000 </r>
       <r>   -0.2545    1.0000 </r>
       <r>    6.6648    0.0000 </r>
       <r>    6.8877    0.0000 </r>
       <r>    8.0587    0.0000 </r>
       <r>    8.3839    0.0000 </r>
       <r>    9.0536    0.0000 </r>
       <r>   10.5814    0.0000 </r>
       <r>   11.9656    0.0000 </r>
       <r>   12.4495    0.0000 </r>
       <r>   13.3612    0.0000 </r>
       <r>   15.2519    0.0000 </r>
       <r>   15.5328    0.0000 </r>
       <r>   16.7776    0.0000 </r>
       <r>   16.9958    0.0000 </r>
       <r>   18.2753    0.0000 </r>
       <r>   20.1839    0.0000 </r>
       <r>   20.4956    0.0000 </r>
       <r>   21.1149    0.0000 </r>
       <r>   22.0220    0.0000 </r>
       <r>   22.3133    0.0000 </r>
       <r>   22.6886    0.0000 </r>
       <r>   24.1807    0.0000 </r>
       <r>   24.6926    0.0000 </r>
      </set>
      <set comment="kpoint 23">
       <r>  -19.2548    1.0000 </r>
       <r>  -12.2398    1.0000 </r>
       <r>   -6.5855    1.0000 </r>
       <r>   -6.4971    1.0000 </r>
       <r>   -5.7754    1.0000 </r>
       <r>   -0.7859    1.0000 </r>
       <r>   -0.5875    1.0000 </r>
       <r>   -0.3334    1.0000 </r>
       <r>    6.4212    0.0000 </r>
       <r>    6.5708    0.0000 </r>
       <r>    8.0733    0.0000 </r>
       <r>    8.3336    0.0000 </r>
       <r>    9.7507    0.0000 </r>
       <r>   10.3584    0.0000 </r>
       <r>   12.2607    0.0000 </r>
       <r>   13.3000    0.0000 </r>
       <r>   13.7623    0.0000 </r>
       <r>   15.4120    0.0000 </r>
       <r>   16.2380    0.0000 </r>
       <r>   16.6878    0.0000 </r>
       <r>   17.4263    0.0000 </r>
       <r>   18.4980    0.0000 </r>
       <r>   18.7009    0.0000 </r>
       <r>   20.0287    0.0000 </r>
       <r>   20.5741    0.0000 </r>
       <r>   21.4816    0.0000 </r>
       <r>   21.8552    0.0000 </r>
       <r>   22.3317    0.0000 </r>
       <r>   24.2249    0.0000 </r>
       <r>   24.7500    0.0000 </r>
      </set>
      <set comment="kpoint 24">
       <r>  -19.2425    1.0000 </r>
       <r>  -12.2223    1.0000 </r>
       <r>   -6.6626    1.0000 </r>
       <r>   -6.5701    1.0000 </r>
       <r>   -5.7551    1.0000 </r>
       <r>   -0.7143    1.0000 </r>
       <r>   -0.6705    1.0000 </r>
       <r>   -0.3187    1.0000 </r>
       <r>    6.3477    0.0000 </r>
       <r>    6.3706    0.0000 </r>
       <r>    8.0669    0.0000 </r>
       <r>    8.0758    0.0000 </r>
       <r>   10.2199    0.0000 </r>
       <r>   11.3673    0.0000 </r>
       <r>   12.6520    0.0000 </r>
       <r>   13.2513    0.0000 </r>
       <r>   13.2836    0.0000 </r>
       <r>   16.0115    0.0000 </r>
       <r>   16.0510    0.0000 </r>
       <r>   16.2293    0.0000 </r>
       <r>   17.3779    0.0000 </r>
       <r>   17.5651    0.0000 </r>
       <r>   19.3770    0.0000 </r>
       <r>   20.4068    0.0000 </r>
       <r>   20.4515    0.0000 </r>
       <r>   21.0451    0.0000 </r>
       <r>   22.4826    0.0000 </r>
       <r>   22.4968    0.0000 </r>
       <r>   23.5579    0.0000 </r>
       <r>   24.0861    0.0000 </r>
      </set>
      <set comment="kpoint 25">
       <r>  -19.2305    1.0000 </r>
       <r>  -12.2002    1.0000 </r>
       <r>   -6.6975    1.0000 </r>
       <r>   -6.6975    1.0000 </r>
       <r>   -5.7352    1.0000 </r>
       <r>   -0.6477    1.0000 </r>
       <r>   -0.6477    1.0000 </r>
       <r>   -0.3743    1.0000 </r>
       <r>    6.2008    0.0000 </r>
       <r>    6.2233    0.0000 </r>
       <r>    7.9032    0.0000 </r>
       <r>    7.9032    0.0000 </r>
       <r>   11.7919    0.0000 </r>
       <r>   11.7919    0.0000 </r>
       <r>   12.4687    0.0000 </r>
       <r>   12.9540    0.0000 </r>
       <r>   14.6188    0.0000 </r>
       <r>   14.8701    0.0000 </r>
       <r>   14.8701    0.0000 </r>
       <r>   16.5394    0.0000 </r>
       <r>   18.1361    0.0000 </r>
       <r>   18.1361    0.0000 </r>
       <r>   18.2632    0.0000 </r>
       <r>   19.9003    0.0000 </r>
       <r>   21.3313    0.0000 </r>
       <r>   21.4004    0.0000 </r>
       <r>   21.4004    0.0000 </r>
       <r>   22.7180    0.0000 </r>
       <r>   23.9305    0.0000 </r>
       <r>   24.6213    0.0000 </r>
      </set>
      <set comment="kpoint 26">
       <r>  -19.2860    1.0000 </r>
       <r>  -12.2709    1.0000 </r>
       <r>   -6.2183    1.0000 </r>
       <r>   -6.2183    1.0000 </r>
       <r>   -6.1229    1.0000 </r>
       <r>   -0.6118    1.0000 </r>
       <r>   -0.6118    1.0000 </r>
       <r>   -0.5846    1.0000 </r>
       <r>    7.5157    0.0000 </r>
       <r>    7.6325    0.0000 </r>
       <r>    7.6325    0.0000 </r>
       <r>    8.3352    0.0000 </r>
       <r>    8.4127    0.0000 </r>
       <r>    8.4127    0.0000 </r>
       <r>   13.4035    0.0000 </r>
       <r>   13.4035    0.0000 </r>
       <r>   14.0475    0.0000 </r>
       <r>   14.0475    0.0000 </r>
       <r>   15.0350    0.0000 </r>
       <r>   16.9738    0.0000 </r>
       <r>   17.2298    0.0000 </r>
       <r>   19.4465    0.0000 </r>
       <r>   19.4465    0.0000 </r>
       <r>   20.3628    0.0000 </r>
       <r>   20.3628    0.0000 </r>
       <r>   22.0307    0.0000 </r>
       <r>   22.4279    0.0000 </r>
       <r>   22.4279    0.0000 </r>
       <r>   22.7309    0.0000 </r>
       <r>   24.4052    0.0000 </r>
      </set>
      <set comment="kpoint 27">
       <r>  -19.2560    1.0000 </r>
       <r>  -12.2427    1.0000 </r>
       <r>   -6.4789    1.0000 </r>
       <r>   -6.1976    1.0000 </r>
       <r>   -6.1341    1.0000 </r>
       <r>   -0.8058    1.0000 </r>
       <r>   -0.7999    1.0000 </r>
       <r>   -0.4366    1.0000 </r>
       <r>    7.1742    0.0000 </r>
       <r>    7.7223    0.0000 </r>
       <r>    7.7601    0.0000 </r>
       <r>    8.3407    0.0000 </r>
       <r>    8.7722    0.0000 </r>
       <r>    9.5327    0.0000 </r>
       <r>   13.1069    0.0000 </r>
       <r>   13.3847    0.0000 </r>
       <r>   13.5953    0.0000 </r>
       <r>   14.7747    0.0000 </r>
       <r>   16.0284    0.0000 </r>
       <r>   17.1616    0.0000 </r>
       <r>   18.0016    0.0000 </r>
       <r>   18.2580    0.0000 </r>
       <r>   19.2251    0.0000 </r>
       <r>   20.0615    0.0000 </r>
       <r>   20.4821    0.0000 </r>
       <r>   20.8940    0.0000 </r>
       <r>   21.7522    0.0000 </r>
       <r>   22.5781    0.0000 </r>
       <r>   22.8562    0.0000 </r>
       <r>   24.2004    0.0000 </r>
      </set>
      <set comment="kpoint 28">
       <r>  -19.2435    1.0000 </r>
       <r>  -12.2311    1.0000 </r>
       <r>   -6.5864    1.0000 </r>
       <r>   -6.2222    1.0000 </r>
       <r>   -6.0977    1.0000 </r>
       <r>   -0.8806    1.0000 </r>
       <r>   -0.8794    1.0000 </r>
       <r>   -0.3772    1.0000 </r>
       <r>    6.9780    0.0000 </r>
       <r>    7.5396    0.0000 </r>
       <r>    7.8160    0.0000 </r>
       <r>    8.3336    0.0000 </r>
       <r>    9.1020    0.0000 </r>
       <r>   10.7189    0.0000 </r>
       <r>   12.8892    0.0000 </r>
       <r>   12.9758    0.0000 </r>
       <r>   13.1614    0.0000 </r>
       <r>   15.4069    0.0000 </r>
       <r>   16.0481    0.0000 </r>
       <r>   16.9395    0.0000 </r>
       <r>   17.9551    0.0000 </r>
       <r>   19.1048    0.0000 </r>
       <r>   19.5035    0.0000 </r>
       <r>   19.5636    0.0000 </r>
       <r>   20.1351    0.0000 </r>
       <r>   20.6781    0.0000 </r>
       <r>   21.5239    0.0000 </r>
       <r>   22.2337    0.0000 </r>
       <r>   22.5346    0.0000 </r>
       <r>   24.3786    0.0000 </r>
      </set>
      <set comment="kpoint 29">
       <r>  -19.2274    1.0000 </r>
       <r>  -12.2031    1.0000 </r>
       <r>   -6.4935    1.0000 </r>
       <r>   -6.4615    1.0000 </r>
       <r>   -6.1055    1.0000 </r>
       <r>   -0.9499    1.0000 </r>
       <r>   -0.8378    1.0000 </r>
       <r>   -0.5761    1.0000 </r>
       <r>    7.0631    0.0000 </r>
       <r>    7.6095    0.0000 </r>
       <r>    8.1368    0.0000 </r>
       <r>    8.3821    0.0000 </r>
       <r>    9.6749    0.0000 </r>
       <r>    9.8901    0.0000 </r>
       <r>   13.2401    0.0000 </r>
       <r>   13.5289    0.0000 </r>
       <r>   14.1417    0.0000 </r>
       <r>   15.2646    0.0000 </r>
       <r>   16.8031    0.0000 </r>
       <r>   17.0812    0.0000 </r>
       <r>   17.1985    0.0000 </r>
       <r>   18.3069    0.0000 </r>
       <r>   19.0492    0.0000 </r>
       <r>   19.5338    0.0000 </r>
       <r>   20.0601    0.0000 </r>
       <r>   20.3941    0.0000 </r>
       <r>   21.0843    0.0000 </r>
       <r>   22.4291    0.0000 </r>
       <r>   22.8014    0.0000 </r>
       <r>   23.9245    0.0000 </r>
      </set>
      <set comment="kpoint 30">
       <r>  -19.2155    1.0000 </r>
       <r>  -12.1865    1.0000 </r>
       <r>   -6.5956    1.0000 </r>
       <r>   -6.4820    1.0000 </r>
       <r>   -6.0785    1.0000 </r>
       <r>   -0.9767    1.0000 </r>
       <r>   -0.9066    1.0000 </r>
       <r>   -0.6193    1.0000 </r>
       <r>    7.0417    0.0000 </r>
       <r>    7.4757    0.0000 </r>
       <r>    8.2232    0.0000 </r>
       <r>    8.2294    0.0000 </r>
       <r>    9.9979    0.0000 </r>
       <r>   11.0400    0.0000 </r>
       <r>   12.8789    0.0000 </r>
       <r>   13.3360    0.0000 </r>
       <r>   14.1886    0.0000 </r>
       <r>   16.0773    0.0000 </r>
       <r>   16.5676    0.0000 </r>
       <r>   16.5730    0.0000 </r>
       <r>   17.6046    0.0000 </r>
       <r>   17.6931    0.0000 </r>
       <r>   18.8594    0.0000 </r>
       <r>   19.3046    0.0000 </r>
       <r>   20.3206    0.0000 </r>
       <r>   20.6840    0.0000 </r>
       <r>   21.2884    0.0000 </r>
       <r>   21.9426    0.0000 </r>
       <r>   22.5591    0.0000 </r>
       <r>   23.9894    0.0000 </r>
      </set>
      <set comment="kpoint 31">
       <r>  -19.2037    1.0000 </r>
       <r>  -12.1677    1.0000 </r>
       <r>   -6.6010    1.0000 </r>
       <r>   -6.6010    1.0000 </r>
       <r>   -6.0499    1.0000 </r>
       <r>   -0.9254    1.0000 </r>
       <r>   -0.9254    1.0000 </r>
       <r>   -0.8051    1.0000 </r>
       <r>    7.1126    0.0000 </r>
       <r>    7.5187    0.0000 </r>
       <r>    8.0758    0.0000 </r>
       <r>    8.0758    0.0000 </r>
       <r>   11.3074    0.0000 </r>
       <r>   11.3074    0.0000 </r>
       <r>   12.5539    0.0000 </r>
       <r>   13.1061    0.0000 </r>
       <r>   15.1996    0.0000 </r>
       <r>   16.0730    0.0000 </r>
       <r>   16.0730    0.0000 </r>
       <r>   16.7037    0.0000 </r>
       <r>   16.8567    0.0000 </r>
       <r>   18.1141    0.0000 </r>
       <r>   18.1141    0.0000 </r>
       <r>   18.3029    0.0000 </r>
       <r>   21.1385    0.0000 </r>
       <r>   21.3389    0.0000 </r>
       <r>   22.0790    0.0000 </r>
       <r>   22.0790    0.0000 </r>
       <r>   22.6959    0.0000 </r>
       <r>   23.8281    0.0000 </r>
      </set>
      <set comment="kpoint 32">
       <r>  -19.1998    1.0000 </r>
       <r>  -12.1657    1.0000 </r>
       <r>   -6.4373    1.0000 </r>
       <r>   -6.3953    1.0000 </r>
       <r>   -6.3953    1.0000 </r>
       <r>   -1.0902    1.0000 </r>
       <r>   -1.0902    1.0000 </r>
       <r>   -0.8284    1.0000 </r>
       <r>    7.4319    0.0000 </r>
       <r>    8.2977    0.0000 </r>
       <r>    8.2977    0.0000 </r>
       <r>    9.5040    0.0000 </r>
       <r>    9.5040    0.0000 </r>
       <r>    9.6545    0.0000 </r>
       <r>   13.4275    0.0000 </r>
       <r>   13.4275    0.0000 </r>
[...]
        <r>  0.0000  0.0000  0.0000  0.0000  0.0000  0.0000  0.0000  0.0000  0.0000 </r>
       </set>
       <set comment="band 6">
        <r>  0.0000  0.0000  0.0000  0.0000  0.0088  0.0000  0.0000  0.0088  0.0000 </r>
        <r>  0.0000  0.2660  0.2660  0.0000  0.0000  0.0000  0.0000  0.0000  0.0000 </r>
       </set>
       <set comment="band 7">
        <r>  0.0002  0.0127  0.0127  0.0000  0.0000  0.0141  0.0000  0.0000  0.0000 </r>
        <r>  0.0000  0.0000  0.0000  0.5294  0.0000  0.0000  0.0000  0.0000  0.0000 </r>
       </set>
       <set comment="band 8">
        <r>  0.0000  0.0000  0.0000  0.0229  0.0062  0.0000  0.0000  0.0062  0.0000 </r>
        <r>  0.0010  0.2725  0.2725  0.0000  0.0000  0.0000  0.0000  0.0000  0.0000 </r>
       </set>
       <set comment="band 9">
        <r>  0.0000  0.0000  0.0000  0.0027  0.1203  0.0000  0.0000  0.1203  0.0000 </r>
        <r>  0.0179  0.0650  0.0650  0.0000  0.0000  0.0000  0.0000  0.0000  0.0000 </r>
       </set>
       <set comment="band 10">
        <r>  0.0067  0.0095  0.0095  0.0000  0.0000  0.2232  0.0013  0.0000  0.0038 </r>
        <r>  0.0000  0.0000  0.0000  0.1094  0.0000  0.0000  0.0000  0.0000  0.0000 </r>
       </set>
       <set comment="band 11">
        <r>  0.0000  0.0000  0.0000  0.0000  0.1258  0.0000  0.0000  0.1258  0.0000 </r>
        <r>  0.0000  0.1050  0.1050  0.0000  0.0000  0.0000  0.0000  0.0000  0.0000 </r>
       </set>
       <set comment="band 12">
        <r>  0.0000  0.0596  0.0596  0.0000  0.0000  0.0000  0.1305  0.0000  0.0435 </r>
        <r>  0.0000  0.0000  0.0000  0.0000  0.0000  0.0000  0.0000  0.0000  0.0000 </r>
       </set>
       <set comment="band 13">
        <r>  0.0303  0.0456  0.0456  0.0000  0.0000  0.0425  0.0161  0.0000  0.0484 </r>
        <r>  0.0000  0.0000  0.0000  0.0946  0.0000  0.0000  0.0000  0.0000  0.0000 </r>
       </set>
       <set comment="band 14">
        <r>  0.0000  0.0000  0.0000  0.1740  0.0006  0.0000  0.0000  0.0006  0.0000 </r>
        <r>  0.0054  0.0174  0.0174  0.0000  0.0000  0.0000  0.0000  0.0000  0.0000 </r>
       </set>
       <set comment="band 15">
        <r>  0.0149  0.0050  0.0050  0.0000  0.0000  0.0019  0.1212  0.0000  0.3637 </r>
        <r>  0.0000  0.0000  0.0000  0.0053  0.0000  0.0000  0.0000  0.0000  0.0000 </r>
       </set>
       <set comment="band 16">
        <r>  0.0000  0.0237  0.0237  0.0000  0.0000  0.0000  0.2450  0.0000  0.0817 </r>
        <r>  0.0000  0.0000  0.0000  0.0000  0.0000  0.0000  0.0000  0.0000  0.0000 </r>
       </set>
       <set comment="band 17">
        <r>  0.0000  0.0000  0.0000  0.0000  0.0566  0.0000  0.0000  0.0566  0.0000 </r>
        <r>  0.0000  0.0013  0.0013  0.0000  0.0000  0.0000  0.0000  0.0000  0.0000 </r>
       </set>
       <set comment="band 18">
        <r>  0.0000  0.0000  0.0000  0.0029  0.0022  0.0000  0.0000  0.0022  0.0000 </r>
        <r>  0.0991  0.0142  0.0142  0.0000  0.0000  0.0000  0.0000  0.0000  0.0000 </r>
       </set>
       <set comment="band 19">
        <r>  0.0000  0.0000  0.0000  0.0024  0.0339  0.0000  0.0000  0.0339  0.0000 </r>
        <r>  0.0096  0.0006  0.0006  0.0000  0.0000  0.0000  0.0000  0.0000  0.0000 </r>
       </set>
       <set comment="band 20">
        <r>  0.1429  0.0159  0.0159  0.0000  0.0000  0.0610  0.0009  0.0000  0.0028 </r>
        <r>  0.0000  0.0000  0.0000  0.0303  0.0000  0.0000  0.0000  0.0000  0.0000 </r>
       </set>
       <set comment="band 21">
        <r>  0.0000  0.0000  0.0000  0.0060  0.0005  0.0000  0.0000  0.0005  0.0000 </r>
        <r>  0.0057  0.0106  0.0106  0.0000  0.0000  0.0000  0.0000  0.0000  0.0000 </r>
       </set>
       <set comment="band 22">
        <r>  0.0801  0.0117  0.0117  0.0000  0.0000  0.1272  0.0000  0.0000  0.0001 </r>
        <r>  0.0000  0.0000  0.0000  0.0214  0.0000  0.0000  0.0000  0.0000  0.0000 </r>
       </set>
       <set comment="band 23">
        <r>  0.0000  0.0083  0.0083  0.0000  0.0000  0.0000  0.0551  0.0000  0.0184 </r>
        <r>  0.0000  0.0000  0.0000  0.0000  0.0000  0.0000  0.0000  0.0000  0.0000 </r>
       </set>
       <set comment="band 24">
        <r>  0.0005  0.0091  0.0091  0.0000  0.0000  0.0169  0.0040  0.0000  0.0120 </r>
        <r>  0.0000  0.0000  0.0000  0.0000  0.0000  0.0000  0.0000  0.0000  0.0000 </r>
       </set>
       <set comment="band 25">
        <r>  0.0000  0.0000  0.0000  0.0000  0.0242  0.0000  0.0000  0.0242  0.0000 </r>
        <r>  0.0000  0.0170  0.0170  0.0000  0.0000  0.0000  0.0000  0.0000  0.0000 </r>
       </set>
       <set comment="band 26">
        <r>  0.0000  0.0000  0.0000  0.0013  0.1149  0.0000  0.0000  0.1149  0.0000 </r>
        <r>  0.0018  0.0282  0.0282  0.0000  0.0000  0.0000  0.0000  0.0000  0.0000 </r>
       </set>
       <set comment="band 27">
        <r>  0.0000  0.0013  0.0013  0.0000  0.0000  0.0000  0.0007  0.0000  0.0002 </r>
        <r>  0.0000  0.0000  0.0000  0.0000  0.0000  0.0000  0.0000  0.0000  0.0000 </r>
       </set>
       <set comment="band 28">
        <r>  0.0000  0.0000  0.0000  0.0000  0.0469  0.0000  0.0000  0.0469  0.0000 </r>
        <r>  0.0000  0.0129  0.0129  0.0000  0.0000  0.0000  0.0000  0.0000  0.0000 </r>
       </set>
       <set comment="band 29">
        <r>  0.0062  0.0025  0.0025  0.0000  0.0000  0.0745  0.0012  0.0000  0.0035 </r>
        <r>  0.0000  0.0000  0.0000  0.0239  0.0000  0.0000  0.0000  0.0000  0.0000 </r>
       </set>
       <set comment="band 30">
        <r>  0.0000  0.0000  0.0000  0.0216  0.0010  0.0000  0.0000  0.0010  0.0000 </r>
        <r>  0.0029  0.0004  0.0004  0.0000  0.0000  0.0000  0.0000  0.0000  0.0000 </r>
       </set>
      </set>
      <set comment="kpoint 34">
       <set comment="band 1">
        <r>  0.9854  0.0000  0.0000  0.0000  0.0000  0.0000  0.0000  0.0000  0.0000 </r>
        <r>  0.0000  0.0000  0.0000  0.0000  0.0000  0.0000  0.0000  0.0000  0.0000 </r>
       </set>
       <set comment="band 2">
        <r>  0.0000  0.0000  0.0000  0.0000  0.0001  0.0000  0.0000  0.0000  0.0000 </r>
        <r>  0.7972  0.0000  0.0000  0.0000  0.0000  0.0000  0.0000  0.0000  0.0000 </r>
       </set>
       <set comment="band 3">
        <r>  0.0000  0.3817  0.0000  0.3515  0.0000  0.0000  0.0000  0.0000  0.0000 </r>
        <r>  0.0000  0.0017  0.0000  0.0018  0.0000  0.0000  0.0000  0.0000  0.0000 </r>
       </set>
       <set comment="band 4">
        <r>  0.0000  0.3515  0.0000  0.3817  0.0000  0.0000  0.0000  0.0000  0.0000 </r>
        <r>  0.0000  0.0018  0.0000  0.0017  0.0000  0.0000  0.0000  0.0000  0.0000 </r>
       </set>
       <set comment="band 5">
        <r>  0.0003  0.0000  0.7525  0.0000  0.0000  0.0000  0.0002  0.0000  0.0000 </r>
        <r>  0.0000  0.0000  0.0000  0.0000  0.0000  0.0000  0.0000  0.0000  0.0000 </r>
       </set>
       <set comment="band 6">
        <r>  0.0000  0.0071  0.0000  0.0066  0.0000  0.0085  0.0000  0.0079  0.0000 </r>
        <r>  0.0000  0.2524  0.0000  0.2729  0.0000  0.0000  0.0000  0.0000  0.0000 </r>
       </set>
       <set comment="band 7">
        <r>  0.0000  0.0066  0.0000  0.0071  0.0000  0.0079  0.0000  0.0085  0.0000 </r>
        <r>  0.0000  0.2729  0.0000  0.2524  0.0000  0.0000  0.0000  0.0000  0.0000 </r>
       </set>
       <set comment="band 8">
        <r>  0.0000  0.0000  0.0000  0.0000  0.0171  0.0000  0.0000  0.0000  0.0000 </r>
        <r>  0.0007  0.0000  0.5332  0.0000  0.0000  0.0000  0.0000  0.0000  0.0000 </r>
       </set>
       <set comment="band 9">
        <r>  0.0000  0.0000  0.0000  0.0000  0.2422  0.0000  0.0000  0.0000  0.0000 </r>
        <r>  0.0121  0.0000  0.1935  0.0000  0.0000  0.0000  0.0000  0.0000  0.0000 </r>
       </set>
       <set comment="band 10">
        <r>  0.0000  0.0035  0.0000  0.0038  0.0000  0.1227  0.0000  0.1325  0.0000 </r>
        <r>  0.0000  0.0920  0.0000  0.0852  0.0000  0.0000  0.0000  0.0000  0.0000 </r>
       </set>
       <set comment="band 11">
        <r>  0.0000  0.0038  0.0000  0.0035  0.0000  0.1325  0.0000  0.1227  0.0000 </r>
        <r>  0.0000  0.0852  0.0000  0.0920  0.0000  0.0000  0.0000  0.0000  0.0000 </r>
       </set>
       <set comment="band 12">
        <r>  0.0187  0.0000  0.1205  0.0000  0.0000  0.0000  0.1108  0.0000  0.0000 </r>
        <r>  0.0000  0.0000  0.0000  0.0000  0.0000  0.0000  0.0000  0.0000  0.0000 </r>
       </set>
       <set comment="band 13">
        <r>  0.0000  0.0838  0.0000  0.0908  0.0000  0.0044  0.0000  0.0047  0.0000 </r>
        <r>  0.0000  0.0217  0.0000  0.0200  0.0000  0.0000  0.0000  0.0000  0.0000 </r>
       </set>
       <set comment="band 14">
        <r>  0.0000  0.0908  0.0000  0.0838  0.0000  0.0047  0.0000  0.0044  0.0000 </r>
        <r>  0.0000  0.0200  0.0000  0.0217  0.0000  0.0000  0.0000  0.0000  0.0000 </r>
       </set>
       <set comment="band 15">
        <r>  0.0000  0.0000  0.0000  0.0000  0.0000  0.0000  0.0000  0.0000  0.5776 </r>
        <r>  0.0000  0.0000  0.0000  0.0000  0.0000  0.0000  0.0000  0.0000  0.0000 </r>
       </set>
       <set comment="band 16">
        <r>  0.0172  0.0000  0.0206  0.0000  0.0000  0.0000  0.4265  0.0000  0.0000 </r>
        <r>  0.0000  0.0000  0.0000  0.0000  0.0000  0.0000  0.0000  0.0000  0.0000 </r>
       </set>
       <set comment="band 17">
        <r>  0.0000  0.0000  0.0000  0.0000  0.0063  0.0000  0.0000  0.0000  0.0000 </r>
        <r>  0.1270  0.0000  0.0205  0.0000  0.0000  0.0000  0.0000  0.0000  0.0000 </r>
       </set>
       <set comment="band 18">
        <r>  0.0000  0.0000  0.0000  0.0000  0.0956  0.0000  0.0000  0.0000  0.0000 </r>
        <r>  0.0018  0.0000  0.0006  0.0000  0.0000  0.0000  0.0000  0.0000  0.0000 </r>
       </set>
       <set comment="band 19">
        <r>  0.2422  0.0000  0.0305  0.0000  0.0000  0.0000  0.0030  0.0000  0.0000 </r>
        <r>  0.0000  0.0000  0.0000  0.0000  0.0000  0.0000  0.0000  0.0000  0.0000 </r>
       </set>
       <set comment="band 20">
        <r>  0.0000  0.0000  0.0000  0.0000  0.0000  0.0000  0.0000  0.0000  0.0000 </r>
        <r>  0.0000  0.0000  0.0000  0.0000  0.0000  0.0000  0.0000  0.0000  0.0000 </r>
       </set>
       <set comment="band 21">
        <r>  0.0000  0.0052  0.0000  0.0009  0.0000  0.0452  0.0000  0.0079  0.0000 </r>
        <r>  0.0000  0.0037  0.0000  0.0210  0.0000  0.0000  0.0000  0.0000  0.0000 </r>
       </set>
       <set comment="band 22">
        <r>  0.0000  0.0009  0.0000  0.0052  0.0000  0.0079  0.0000  0.0452  0.0000 </r>
        <r>  0.0000  0.0210  0.0000  0.0037  0.0000  0.0000  0.0000  0.0000  0.0000 </r>
       </set>
       <set comment="band 23">
        <r>  0.0000  0.0012  0.0000  0.0014  0.0000  0.0724  0.0000  0.0816  0.0000 </r>
        <r>  0.0000  0.0116  0.0000  0.0102  0.0000  0.0000  0.0000  0.0000  0.0000 </r>
       </set>
       <set comment="band 24">
        <r>  0.0000  0.0014  0.0000  0.0012  0.0000  0.0816  0.0000  0.0724  0.0000 </r>
        <r>  0.0000  0.0102  0.0000  0.0116  0.0000  0.0000  0.0000  0.0000  0.0000 </r>
       </set>
       <set comment="band 25">
        <r>  0.0026  0.0000  0.0211  0.0000  0.0000  0.0000  0.0379  0.0000  0.0000 </r>
        <r>  0.0000  0.0000  0.0000  0.0000  0.0000  0.0000  0.0000  0.0000  0.0000 </r>
       </set>
       <set comment="band 26">
        <r>  0.0000  0.0000  0.0000  0.0000  0.1805  0.0000  0.0000  0.0000  0.0000 </r>
        <r>  0.0003  0.0000  0.0655  0.0000  0.0000  0.0000  0.0000  0.0000  0.0000 </r>
       </set>
       <set comment="band 27">
        <r>  0.0000  0.0001  0.0000  0.0001  0.0000  0.0217  0.0000  0.0262  0.0000 </r>
        <r>  0.0000  0.0073  0.0000  0.0060  0.0000  0.0000  0.0000  0.0000  0.0000 </r>
       </set>
       <set comment="band 28">
        <r>  0.0000  0.0001  0.0000  0.0001  0.0000  0.0262  0.0000  0.0217  0.0000 </r>
        <r>  0.0000  0.0060  0.0000  0.0073  0.0000  0.0000  0.0000  0.0000  0.0000 </r>
       </set>
       <set comment="band 29">
        <r>  0.0000  0.0000  0.0000  0.0000  0.0000  0.0000  0.0000  0.0000  0.0033 </r>
        <r>  0.0000  0.0000  0.0000  0.0000  0.0000  0.0000  0.0000  0.0000  0.0000 </r>
       </set>
       <set comment="band 30">
        <r>  0.0000  0.0000  0.0000  0.0000  0.0000  0.0000  0.0000  0.0000  0.0000 </r>
        <r>  0.0000  0.0000  0.0000  0.0000  0.0000  0.0000  0.0000  0.0000  0.0000 </r>
       </set>
      </set>
      <set comment="kpoint 35">
       <set comment="band 1">
        <r>  0.9855  0.0000  0.0000  0.0000  0.0000  0.0000  0.0000  0.0000  0.0000 </r>
        <r>  0.0000  0.0000  0.0000  0.0000  0.0000  0.0000  0.0000  0.0000  0.0000 </r>
       </set>
       <set comment="band 2">
        <r>  0.0000  0.0000  0.0000  0.0000  0.0000  0.0000  0.0000  0.0000  0.0000 </r>
        <r>  0.7988  0.0000  0.0000  0.0000  0.0000  0.0000  0.0000  0.0000  0.0000 </r>
       </set>
       <set comment="band 3">
        <r>  0.0000  0.2594  0.4398  0.0441  0.0000  0.0000  0.0000  0.0000  0.0000 </r>
        <r>  0.0000  0.0000  0.0000  0.0000  0.0000  0.0000  0.0000  0.0000  0.0000 </r>
       </set>
       <set comment="band 4">
        <r>  0.0000  0.2644  0.0497  0.4292  0.0000  0.0000  0.0000  0.0000  0.0000 </r>
        <r>  0.0000  0.0000  0.0000  0.0000  0.0000  0.0000  0.0000  0.0000  0.0000 </r>
       </set>
       <set comment="band 5">
        <r>  0.0000  0.2195  0.2538  0.2700  0.0000  0.0000  0.0000  0.0000  0.0000 </r>
        <r>  0.0000  0.0000  0.0000  0.0000  0.0000  0.0000  0.0000  0.0000  0.0000 </r>
       </set>
       <set comment="band 6">
        <r>  0.0000  0.0000  0.0000  0.0000  0.0168  0.0016  0.0000  0.0003  0.0000 </r>
        <r>  0.0000  0.0085  0.4663  0.0447  0.0000  0.0000  0.0000  0.0000  0.0000 </r>
       </set>
       <set comment="band 7">
        <r>  0.0000  0.0000  0.0000  0.0000  0.0005  0.0061  0.0000  0.0121  0.0000 </r>
        <r>  0.0000  0.3360  0.0141  0.1694  0.0000  0.0000  0.0000  0.0000  0.0000 </r>
       </set>
       <set comment="band 8">
        <r>  0.0000  0.0000  0.0000  0.0000  0.0014  0.0110  0.0000  0.0063  0.0000 </r>
        <r>  0.0000  0.1750  0.0391  0.3054  0.0000  0.0000  0.0000  0.0000  0.0000 </r>
       </set>
       <set comment="band 9">
        <r>  0.0000  0.0000  0.0000  0.0000  0.2342  0.0237  0.0000  0.0045  0.0000 </r>
        <r>  0.0000  0.0039  0.2014  0.0204  0.0000  0.0000  0.0000  0.0000  0.0000 </r>
       </set>
       <set comment="band 10">
        <r>  0.0000  0.0000  0.0000  0.0000  0.0163  0.1471  0.0000  0.0990  0.0000 </r>
        <r>  0.0000  0.0852  0.0140  0.1265  0.0000  0.0000  0.0000  0.0000  0.0000 </r>
       </set>
       <set comment="band 11">
        <r>  0.0000  0.0000  0.0000  0.0000  0.0119  0.0916  0.0000  0.1589  0.0000 </r>
        <r>  0.0000  0.1366  0.0103  0.0788  0.0000  0.0000  0.0000  0.0000  0.0000 </r>
       </set>
       <set comment="band 12">
        <r>  0.0000  0.1550  0.0278  0.0018  0.0000  0.0000  0.0000  0.0000  0.0000 </r>
        <r>  0.0000  0.0000  0.0000  0.0000  0.0000  0.0000  0.0000  0.0000  0.0000 </r>
       </set>
       <set comment="band 13">
        <r>  0.0000  0.0098  0.0457  0.1292  0.0000  0.0000  0.0000  0.0000  0.0000 </r>
        <r>  0.0000  0.0000  0.0000  0.0000  0.0000  0.0000  0.0000  0.0000  0.0000 </r>
       </set>
       <set comment="band 14">
        <r>  0.0000  0.0198  0.1112  0.0537  0.0000  0.0000  0.0000  0.0000  0.0000 </r>
        <r>  0.0000  0.0000  0.0000  0.0000  0.0000  0.0000  0.0000  0.0000  0.0000 </r>
       </set>
       <set comment="band 15">
        <r>  0.0000  0.0000  0.0000  0.0000  0.0000  0.0000  0.5815  0.0000  0.0000 </r>
        <r>  0.0000  0.0000  0.0000  0.0000  0.0000  0.0000  0.0000  0.0000  0.0000 </r>
       </set>
       <set comment="band 16">
        <r>  0.0000  0.0000  0.0000  0.0000  0.0000  0.0000  0.0000  0.0000  0.5815 </r>
        <r>  0.0000  0.0000  0.0000  0.0000  0.0000  0.0000  0.0000  0.0000  0.0000 </r>
       </set>
       <set comment="band 17">
        <r>  0.0000  0.0000  0.0000  0.0000  0.0000  0.0000  0.0000  0.0000  0.0000 </r>
        <r>  0.1432  0.0000  0.0000  0.0000  0.0000  0.0000  0.0000  0.0000  0.0000 </r>
       </set>
       <set comment="band 18">
        <r>  0.2859  0.0000  0.0000  0.0000  0.0000  0.0000  0.0000  0.0000  0.0000 </r>
        <r>  0.0000  0.0000  0.0000  0.0000  0.0000  0.0000  0.0000  0.0000  0.0000 </r>
       </set>
       <set comment="band 19">
        <r>  0.0000  0.0000  0.0000  0.0000  0.0000  0.0000  0.0000  0.0000  0.0000 </r>
        <r>  0.0000  0.0000  0.0000  0.0000  0.0000  0.0000  0.0000  0.0000  0.0000 </r>
       </set>
       <set comment="band 20">
        <r>  0.0000  0.0000  0.0000  0.0000  0.0000  0.0000  0.0000  0.0000  0.0000 </r>
        <r>  0.0000  0.0000  0.0000  0.0000  0.0000  0.0000  0.0000  0.0000  0.0000 </r>
       </set>
       <set comment="band 21">
        <r>  0.0000  0.0084  0.0004  0.0012  0.0000  0.0000  0.0000  0.0000  0.0000 </r>
        <r>  0.0000  0.0000  0.0000  0.0000  0.0000  0.0000  0.0000  0.0000  0.0000 </r>
       </set>
       <set comment="band 22">
        <r>  0.0000  0.0013  0.0051  0.0037  0.0000  0.0000  0.0000  0.0000  0.0000 </r>
        <r>  0.0000  0.0000  0.0000  0.0000  0.0000  0.0000  0.0000  0.0000  0.0000 </r>
       </set>
       <set comment="band 23">
        <r>  0.0000  0.0004  0.0045  0.0051  0.0000  0.0000  0.0000  0.0000  0.0000 </r>
        <r>  0.0000  0.0000  0.0000  0.0000  0.0000  0.0000  0.0000  0.0000  0.0000 </r>
       </set>
       <set comment="band 24">
        <r>  0.0000  0.0000  0.0000  0.0000  0.0095  0.1685  0.0000  0.0724  0.0000 </r>
        <r>  0.0000  0.0165  0.0022  0.0384  0.0000  0.0000  0.0000  0.0000  0.0000 </r>
       </set>
       <set comment="band 25">
        <r>  0.0000  0.0000  0.0000  0.0000  0.0104  0.0811  0.0000  0.1590  0.0000 </r>
        <r>  0.0000  0.0363  0.0024  0.0185  0.0000  0.0000  0.0000  0.0000  0.0000 </r>
       </set>
       <set comment="band 26">
        <r>  0.0000  0.0000  0.0000  0.0000  0.2305  0.0009  0.0000  0.0190  0.0000 </r>
        <r>  0.0000  0.0043  0.0526  0.0002  0.0000  0.0000  0.0000  0.0000  0.0000 </r>
       </set>
       <set comment="band 27">
        <r>  0.0000  0.0000  0.0000  0.0000  0.0000  0.0000  0.0000  0.0000  0.0000 </r>
        <r>  0.0000  0.0000  0.0000  0.0000  0.0000  0.0000  0.0000  0.0000  0.0000 </r>
       </set>
       <set comment="band 28">
        <r>  0.0000  0.0000  0.0000  0.0000  0.0000  0.0000  0.0000  0.0000  0.0000 </r>
        <r>  0.0000  0.0000  0.0000  0.0000  0.0000  0.0000  0.0000  0.0000  0.0000 </r>
       </set>
       <set comment="band 29">
        <r>  0.0000  0.0000  0.0000  0.0000  0.0000  0.0000  0.0000  0.0000  0.0000 </r>
        <r>  0.0000  0.0000  0.0000  0.0000  0.0000  0.0000  0.0000  0.0000  0.0000 </r>
       </set>
       <set comment="band 30">
        <r>  0.0000  0.0000  0.0000  0.0000  0.0000  0.0000  0.0000  0.0000  0.0000 </r>
        <r>  0.0000  0.0000  0.0000  0.0000  0.0000  0.0000  0.0000  0.0000  0.0000 </r>
       </set>
      </set>
     </set>
    </set>
   </array>
  </projected>
 </calculation>
 <structure name="finalpos" >
  <crystal>
   <varray name="basis" >
    <v>       4.07544864       0.00000000       0.00000000 </v>
    <v>       0.00000000       4.07544864       0.00000000 </v>
    <v>       0.00000000       0.00000000       4.07544864 </v>
   </varray>
   <i name="volume">     67.69027413 </i>
   <varray name="rec_basis" >
    <v>       0.24537176       0.00000000       0.00000000 </v>
    <v>       0.00000000       0.24537176       0.00000000 </v>
    <v>       0.00000000       0.00000000       0.24537176 </v>
   </varray>
  </crystal>
  <varray name="positions" >
   <v>       0.00000000       0.00000000       0.00000000 </v>
   <v>       0.50000000       0.50000000       0.50000000 </v>
  </varray>
 </structure>
</modeling>
