unknown system                          
    1.000000000000000     
     3.781584    0.000000    0.000000
    -1.890792    3.274948    0.000000
     0.000000    0.000000    6.204766
   Zn   S 
     2     2
Direct
   0.666667  0.333333  0.500401
   0.333333  0.666667  0.000401
   0.666667  0.333333  0.874599
   0.333333  0.666667  0.374599
 
   32   32   56
 0.14220717210E-04 0.11651364713E-04 0.35360811761E-04 0.12084512946E-03 0.30155367515E-03
 0.58530648621E-03 0.17108078263E-02 0.35039563099E-02 0.89243435378E-02 0.18797279955E-01
 0.37874356238E-01 0.74056490264E-01 0.12997622512E+00 0.20309744736E+00 0.28313263269E+00
 0.34832669586E+00 0.37352476063E+00 0.34860949881E+00 0.28377552194E+00 0.20317744562E+00
 0.12907754909E+00 0.73885366586E-01 0.38580222222E-01 0.18707549395E-01 0.85204090314E-02
 0.36504639821E-02 0.15073776186E-02 0.59059507468E-03 0.23168853097E-03 0.87300247192E-04
 0.35976569456E-04 0.15113800108E-04 0.15113800327E-04 0.19828088811E-04 0.24295043665E-04
 0.37721515118E-06 0.76145168628E-05 0.18246812936E-03 0.26422003790E-03 0.11852266010E-02
 0.21034912119E-02 0.53091641402E-02 0.11627670773E-01 0.20886672291E-01 0.35915482258E-01
 0.58246024611E-01 0.84406954319E-01 0.10799267581E+00 0.12251410392E+00 0.12225454296E+00
 0.10767148199E+00 0.83848537146E-01 0.58406370078E-01 0.36616157704E-01 0.20974492837E-01
 0.11002140617E-01 0.53645277408E-02 0.24953324621E-02 0.10890346156E-02 0.46927376548E-03
 0.19039021188E-03 0.81306333215E-04 0.36574002499E-04 0.22089486916E-04 0.35976569447E-04
 0.32383854014E-04 0.29413866461E-04 0.77481104392E-04 0.12331580971E-03 0.10480593597E-03
 0.35185944856E-03 0.29842244671E-03 0.11218942725E-02 0.16708984747E-02 0.27057380671E-02
 0.61391163659E-02 0.11444268020E-01 0.17789854653E-01 0.25749641116E-01 0.34479193021E-01
 0.41049619322E-01 0.43813118078E-01 0.41356423923E-01 0.34835966753E-01 0.26095740471E-01
 0.17652451712E-01 0.10790026637E-01 0.61566662238E-02 0.32767551813E-02 0.15995118354E-02
 0.76258087424E-03 0.33596785736E-03 0.15767515157E-03 0.75928023614E-04 0.47411611752E-04
 0.36574002709E-04 0.87300247106E-04 0.95506125510E-04 0.10147457640E-03 0.44416320126E-04
 -.17228421665E-05 0.30783149969E-04 -.11067090583E-03 0.13802347521E-03 -.11046803027E-03
 0.46440637398E-03 0.15059767731E-02 0.20231230291E-02 0.31906653653E-02 0.63294219082E-02
 0.10578880659E-01 0.15214358688E-01 0.19866943820E-01 0.22480088702E-01 0.22452131439E-01
 0.19457668026E-01 0.14979855367E-01 0.10283154026E-01 0.65240878327E-02 0.37070221010E-02
 0.19607739338E-02 0.10305573674E-02 0.49419677592E-03 0.25649208090E-03 0.13029019798E-03
 0.89315527292E-04 0.75928023609E-04 0.81306333136E-04 0.23168853087E-03 0.25553748195E-03
 0.25879727547E-03 0.30480177579E-03 0.32125506626E-03 0.25685854634E-03 0.36271628451E-03
 0.16418413883E-03 0.50397155057E-03 0.22969060303E-03 -.26897936650E-04 0.88492590547E-03
 0.24393197180E-02 0.41248858869E-02 0.76156671682E-02 0.13561507133E-01 0.20617201893E-01
 0.27131883375E-01 0.29643458325E-01 0.27268902199E-01 0.20986520426E-01 0.13779679434E-01
 0.77404060841E-02 0.40517225460E-02 0.20003565783E-02 0.89512459433E-03 0.43919099308E-03
 0.20846906939E-03 0.14752598987E-03 0.13029019783E-03 0.15767515130E-03 0.19039021149E-03
 0.59059507403E-03 0.70998129882E-03 0.77868373708E-03 0.71956512460E-03 0.60071255116E-03
 0.51016873476E-03 0.24140075343E-03 0.27301854491E-03 -.12035189517E-03 0.23500047731E-03
 0.73624127327E-03 0.65588146319E-03 0.11545733861E-02 0.40420875034E-02 0.97010457198E-02
 0.19745613684E-01 0.35028693183E-01 0.51545557245E-01 0.63291862870E-01 0.63176980092E-01
 0.51437231035E-01 0.34570004355E-01 0.19764373510E-01 0.95156825129E-02 0.40146678402E-02
 0.16448449430E-02 0.61788903064E-03 0.31190317018E-03 0.20846906989E-03 0.25649208089E-03
 0.33596785734E-03 0.46927376533E-03 0.15073776181E-02 0.18759870274E-02 0.21524906665E-02
 0.23208686638E-02 0.22838504280E-02 0.19949252284E-02 0.17431612364E-02 0.12146631562E-02
 0.11358932260E-02 0.46548983867E-03 -.26627354803E-04 0.64072067642E-03 0.20737857194E-02
 0.45194143346E-02 0.11707701281E-01 0.27874843548E-01 0.55659708980E-01 0.95514574181E-01
 0.13361489434E+00 0.14957293892E+00 0.13367372559E+00 0.95801842708E-01 0.55899869629E-01
 0.27831106766E-01 0.12014855140E-01 0.44674382527E-02 0.16534753523E-02 0.61788903070E-03
 0.43919099306E-03 0.49419677600E-03 0.76258087451E-03 0.10890346153E-02 0.36504639815E-02
 0.48753924541E-02 0.59771556643E-02 0.65010616175E-02 0.64465121378E-02 0.57931762714E-02
 0.46158569927E-02 0.34600756617E-02 0.20932474197E-02 0.16573737195E-02 0.15100698395E-02
 0.88753852705E-03 0.11735122292E-02 0.45146113859E-02 0.13177017893E-01 0.33658292977E-01
 0.76729078749E-01 0.14926074818E+00 0.23456049875E+00 0.29472440284E+00 0.29484787582E+00
 0.23427581055E+00 0.14911019740E+00 0.76608176944E-01 0.33538942877E-01 0.13005108534E-01
 0.44674382528E-02 0.16448449426E-02 0.89512459433E-03 0.10305573672E-02 0.15995118354E-02
 0.24953324614E-02 0.85204090305E-02 0.12146603304E-01 0.15901957732E-01 0.18723285751E-01
 0.19931224354E-01 0.18832201494E-01 0.16250179819E-01 0.12403015470E-01 0.89942443997E-02
 0.52700088877E-02 0.27655123513E-02 0.19591183098E-02 0.24979538480E-02 0.39419983017E-02
 0.11816860443E-01 0.33534292030E-01 0.85193105335E-01 0.18670733708E+00 0.33088972660E+00
 0.47414983588E+00 0.53672409334E+00 0.47420595872E+00 0.33116151081E+00 0.18666926570E+00
 0.85480580445E-01 0.33538942878E-01 0.12014855141E-01 0.40146678404E-02 0.20003565784E-02
 0.19607739335E-02 0.32767551808E-02 0.53645277402E-02 0.18707549394E-01 0.29036870358E-01
 0.40918055830E-01 0.51476169978E-01 0.57857351257E-01 0.57812189248E-01 0.51210698626E-01
 0.40492737565E-01 0.28470680682E-01 0.18792110186E-01 0.11605226373E-01 0.61559003939E-02
 0.31775437835E-02 0.41594103017E-02 0.97120966609E-02 0.27824626258E-01 0.76832130895E-01
 0.18674586153E+00 0.37257729825E+00 0.60878914252E+00 0.78814754820E+00 0.78800852066E+00
 0.60868383646E+00 0.37248221650E+00 0.18666926571E+00 0.76608176947E-01 0.27831106767E-01
 0.95156825139E-02 0.40517225465E-02 0.37070221006E-02 0.61566662235E-02 0.11002140617E-01
 0.38580222221E-01 0.65459475879E-01 0.10023074130E+00 0.13759526987E+00 0.16695215419E+00
 0.17821370559E+00 0.16711512263E+00 0.13798438904E+00 0.10107888787E+00 0.65412651326E-01
 0.37872832462E-01 0.20906681840E-01 0.11421034088E-01 0.63458715373E-02 0.75544188093E-02
 0.19785188643E-01 0.55680450413E-01 0.14908629233E+00 0.33097707698E+00 0.60874027953E+00
 0.89863143301E+00 0.10263346714E+01 0.89885698224E+00 0.60868383647E+00 0.33116151081E+00
 0.14911019740E+00 0.55899869632E-01 0.19764373513E-01 0.77404060854E-02 0.65240878333E-02
 0.10790026636E-01 0.20974492837E-01 0.73885366587E-01 0.13740476438E+00 0.23179171343E+00
 0.34849500641E+00 0.46188181067E+00 0.53341684683E+00 0.53332482775E+00 0.46162351112E+00
 0.34755947126E+00 0.23146540055E+00 0.13829286635E+00 0.74087813057E-01 0.35865732830E-01
 0.17861398405E-01 0.10510340208E-01 0.13710874448E-01 0.34809465236E-01 0.95791106249E-01
 0.23444555492E+00 0.47419006217E+00 0.78811285736E+00 0.10264541797E+01 0.10263346714E+01
 0.78800852067E+00 0.47420595874E+00 0.23427581056E+00 0.95801842714E-01 0.34570004358E-01
 0.13779679436E-01 0.10283154027E-01 0.17652451715E-01 0.36616157705E-01 0.12907754910E+00
 0.26508935382E+00 0.49644265645E+00 0.82934215759E+00 0.12041188561E+01 0.15037161404E+01
 0.16185682092E+01 0.15038742490E+01 0.12049266488E+01 0.82998893309E+00 0.49580779933E+00
 0.26440946940E+00 0.13005658255E+00 0.58155147805E-01 0.25835053278E-01 0.15075920878E-01
 0.20740724891E-01 0.51468422529E-01 0.13350505662E+00 0.29490031036E+00 0.53658013845E+00
 0.78811285736E+00 0.89863143300E+00 0.78814754820E+00 0.53672409335E+00 0.29484787583E+00
 0.13367372560E+00 0.51437231040E-01 0.20986520428E-01 0.14979855369E-01 0.26095740474E-01
 0.58406370083E-01 0.20317744564E+00 0.46206138707E+00 0.96256127054E+00 0.18207167455E+01
 0.30128050771E+01 0.42831201851E+01 0.51332993892E+01 0.51332642247E+01 0.42824222468E+01
 0.30121965556E+01 0.18207833500E+01 0.96355568365E+00 0.46123579005E+00 0.20315161951E+00
 0.84359954060E-01 0.34558015853E-01 0.19833785736E-01 0.27125836610E-01 0.63423501406E-01
 0.14943299792E+00 0.29490031035E+00 0.47419006216E+00 0.60874027952E+00 0.60878914251E+00
 0.47414983589E+00 0.29472440285E+00 0.14957293893E+00 0.63176980097E-01 0.27268902202E-01
 0.19457668029E-01 0.34835966758E-01 0.83848537156E-01 0.28377552197E+00 0.71517637374E+00
 0.16185515410E+01 0.35863270229E+01 0.67840904588E+01 0.11028177010E+02 0.14967270476E+02
 0.16612406694E+02 0.14967841391E+02 0.11028657261E+02 0.67843033050E+01 0.35855960839E+01
 0.16188762663E+01 0.71553724146E+00 0.28308319947E+00 0.10802346854E+00 0.40964206245E-01
 0.22593176347E-01 0.29413774534E-01 0.63423501405E-01 0.13350505661E+00 0.23444555492E+00
 0.33097707696E+00 0.37257729824E+00 0.33088972659E+00 0.23456049876E+00 0.13361489435E+00
 0.63291862874E-01 0.29643458328E-01 0.22452131443E-01 0.41356423930E-01 0.10767148201E+00
 0.34860949886E+00 0.96297167432E+00 0.25395172941E+01 0.61769214549E+01 0.13500507746E+02
 0.25577246811E+02 0.40362749030E+02 0.51237038643E+02 0.51236518066E+02 0.40362398740E+02
 0.25576999277E+02 0.13500907997E+02 0.61767876106E+01 0.25391962944E+01 0.96356076853E+00
 0.34839266604E+00 0.12250772092E+00 0.43793792435E-01 0.22593176348E-01 0.27125836610E-01
 0.51468422526E-01 0.95791106244E-01 0.14908629232E+00 0.18674586152E+00 0.18670733707E+00
 0.14926074818E+00 0.95514574182E-01 0.51545557248E-01 0.27131883378E-01 0.22480088706E-01
 0.43813118087E-01 0.12225454298E+00 0.37352476070E+00 0.11180743837E+01 0.32859302987E+01
 0.90499063932E+01 0.22909846883E+02 0.51236963483E+02 0.96328345906E+02 0.14456812990E+03
 0.16635731932E+03 0.14456842713E+03 0.96328554547E+02 0.51236727671E+02 0.22909986085E+02
 0.90501940841E+01 0.32853552277E+01 0.11182473214E+01 0.37331300953E+00 0.12250772093E+00
 0.40964206246E-01 0.19833785736E-01 0.20740724890E-01 0.34809465233E-01 0.55680450408E-01
 0.76832130890E-01 0.85193105329E-01 0.76729078745E-01 0.55659708979E-01 0.35028693183E-01
 0.20617201895E-01 0.19866943824E-01 0.41049619330E-01 0.12251410394E+00 0.34832669592E+00
 0.11181163102E+01 0.35859371189E+01 0.11028217432E+02 0.32024367657E+02 0.84539348818E+02
 0.19194539062E+03 0.34993731332E+03 0.48082300989E+03 0.48082319317E+03 0.34993712044E+03
 0.19194552377E+03 0.84539253408E+02 0.32024040735E+02 0.11028736323E+02 0.35858732109E+01
 0.11182473215E+01 0.34839266606E+00 0.10802346854E+00 0.34558015856E-01 0.15075920879E-01
 0.13710874447E-01 0.19785188641E-01 0.27824626255E-01 0.33534292027E-01 0.33658292975E-01
 0.27874843547E-01 0.19745613684E-01 0.13561507134E-01 0.15214358690E-01 0.34479193028E-01
 0.10799267583E+00 0.28313263275E+00 0.96361549271E+00 0.32854886146E+01 0.11028743232E+02
 0.35919084325E+02 0.11001937439E+03 0.29984170695E+03 0.66785234987E+03 0.11067148092E+04
 0.13077813783E+04 0.11067145952E+04 0.66785228152E+03 0.29984180122E+03 0.11001962039E+03
 0.35918716935E+02 0.11028736323E+02 0.32853552278E+01 0.96356076859E+00 0.28308319949E+00
 0.84359954069E-01 0.25835053281E-01 0.10510340206E-01 0.75544188080E-02 0.97120966600E-02
 0.11816860441E-01 0.13177017892E-01 0.11707701280E-01 0.97010457191E-02 0.76156671684E-02
 0.10578880661E-01 0.25749641121E-01 0.84406954337E-01 0.20309744741E+00 0.71549663153E+00
 0.25391250013E+01 0.90500329268E+01 0.32024106258E+02 0.11001925844E+03 0.34993711717E+03
 0.93482311443E+03 0.17934641867E+04 0.23542469272E+04 0.23542469065E+04 0.17934645445E+04
 0.93482304330E+03 0.34993689561E+03 0.11001962039E+03 0.32024040737E+02 0.90501940847E+01
 0.25391962946E+01 0.71553724154E+00 0.20315161954E+00 0.58155147814E-01 0.17861398407E-01
 0.63458715371E-02 0.41594103014E-02 0.39419983010E-02 0.45146113854E-02 0.45194143341E-02
 0.40420875033E-02 0.41248858873E-02 0.63294219092E-02 0.17789854656E-01 0.58246024624E-01
 0.12997622514E+00 0.46128728744E+00 0.16189181290E+01 0.61769175987E+01 0.22910030596E+02
 0.84539264347E+02 0.29984207755E+03 0.93482293334E+03 0.20646382524E+04 0.44089222513E+04
 0.14456847015E+05 0.44089221823E+04 0.20646380108E+04 0.93482304331E+03 0.29984180123E+03
 0.84539253413E+02 0.22909986087E+02 0.61767876112E+01 0.16188762664E+01 0.46123579011E+00
 0.13005658257E+00 0.35865732836E-01 0.11421034090E-01 0.31775437845E-02 0.24979538479E-02
 0.11735122290E-02 0.20737857184E-02 0.11545733859E-02 0.24393197184E-02 0.31906653659E-02
 0.11444268022E-01 0.35915482266E-01 0.74056490279E-01 0.26446982273E+00 0.96352458086E+00
 0.35854761200E+01 0.13500896018E+02 0.51236610798E+02 0.19194558127E+03 0.66785195867E+03
 0.17934643104E+04 0.44089223080E+04 0.96099609690E+05 0.96099609101E+05 0.44089221825E+04
 0.17934645445E+04 0.66785228155E+03 0.19194552379E+03 0.51236727676E+02 0.13500907999E+02
 0.35855960844E+01 0.96355568380E+00 0.26440946944E+00 0.74087813074E-01 0.20906681843E-01
 0.61559003947E-02 0.19591183100E-02 0.88753852768E-03 0.64072067701E-03 0.65588146419E-03
 0.88492590568E-03 0.20231230293E-02 0.61391163664E-02 0.20886672296E-01 0.37874356246E-01
 0.13833794660E+00 0.49572565984E+00 0.18208966703E+01 0.67843051344E+01 0.25577105867E+02
 0.96328570139E+02 0.34993715669E+03 0.11067152103E+04 0.23542468233E+04 0.14456847160E+05
 0.96099609688E+05 0.14456847016E+05 0.23542469066E+04 0.11067145952E+04 0.34993712047E+03
 0.96328554557E+02 0.25576999280E+02 0.67843033060E+01 0.18207833503E+01 0.49580779942E+00
 0.13829286638E+00 0.37872832471E-01 0.11605226376E-01 0.27655123525E-02 0.15100698396E-02
 -.26627355918E-04 0.73624127384E-03 -.26897936641E-04 0.15059767737E-02 0.27057380682E-02
 0.11627670776E-01 0.18797279958E-01 0.65380791060E-01 0.23146732529E+00 0.82996457285E+00
 0.30122232453E+01 0.11028528032E+02 0.40362416762E+02 0.14456831789E+03 0.48082285339E+03
 0.13077812043E+04 0.23542468233E+04 0.44089223078E+04 0.44089222512E+04 0.23542469273E+04
 0.13077813784E+04 0.48082319321E+03 0.14456842714E+03 0.40362398746E+02 0.11028657263E+02
 0.30121965561E+01 0.82998893324E+00 0.23146540059E+00 0.65412651341E-01 0.18792110190E-01
 0.52700088897E-02 0.16573737199E-02 0.46548983842E-03 0.23500047741E-03 0.22969060264E-03
 0.46440637432E-03 0.16708984752E-02 0.53091641416E-02 0.89243435390E-02 0.28505912315E-01
 0.10105367577E+00 0.34767386869E+00 0.12048012841E+01 0.42825396304E+01 0.14967835156E+02
 0.51236602083E+02 0.16635774510E+03 0.48082285338E+03 0.11067152103E+04 0.17934643104E+04
 0.20646382523E+04 0.17934641867E+04 0.11067148092E+04 0.48082300992E+03 0.16635731934E+03
 0.51236518072E+02 0.14967841393E+02 0.42824222475E+01 0.12049266490E+01 0.34755947132E+00
 0.10107888790E+00 0.28470680689E-01 0.89942444020E-02 0.20932474202E-02 0.11358932264E-02
 -.12035189501E-03 0.50397155063E-03 -.11046803035E-03 0.11218942727E-02 0.21034912123E-02
 0.35039563102E-02 0.12405494505E-01 0.40541722636E-01 0.13786080021E+00 0.46168951189E+00
 0.15038202700E+01 0.51333137937E+01 0.16612300149E+02 0.51236602082E+02 0.14456831789E+03
 0.34993715667E+03 0.66785195862E+03 0.93482293328E+03 0.93482311440E+03 0.66785234987E+03
 0.34993731333E+03 0.14456812991E+03 0.51237038648E+02 0.16612406696E+02 0.51332642254E+01
 0.15038742492E+01 0.46162351121E+00 0.13798438907E+00 0.40492737575E-01 0.12403015473E-01
 0.34600756630E-02 0.12146631571E-02 0.27301854486E-03 0.16418413876E-03 0.13802347524E-03
 0.29842244655E-03 0.11852266010E-02 0.17108078265E-02 0.46474295094E-02 0.16153957180E-01
 0.51324444123E-01 0.16705134639E+00 0.53344792854E+00 0.16184606282E+01 0.51333137936E+01
 0.14967835156E+02 0.40362416759E+02 0.96328570131E+02 0.19194558125E+03 0.29984207753E+03
 0.34993711714E+03 0.29984170694E+03 0.19194539062E+03 0.96328345909E+02 0.40362749032E+02
 0.14967270477E+02 0.51332993898E+01 0.16185682094E+01 0.53332482785E+00 0.16711512267E+00
 0.51210698638E-01 0.16250179823E-01 0.46158569936E-02 0.17431612364E-02 0.24140075311E-03
 0.36271628397E-03 -.11067090622E-03 0.35185944842E-03 0.26422003773E-03 0.58530648682E-03
 0.19160087188E-02 0.58938051438E-02 0.18726042583E-01 0.57914338711E-01 0.17806371300E+00
 0.53344792853E+00 0.15038202699E+01 0.42825396301E+01 0.11028528031E+02 0.25577105864E+02
 0.51236610792E+02 0.84539264338E+02 0.11001925842E+03 0.11001937438E+03 0.84539348813E+02
 0.51236963482E+02 0.25577246811E+02 0.11028177011E+02 0.42831201856E+01 0.15037161405E+01
 0.53341684691E+00 0.17821370563E+00 0.57812189260E-01 0.18832201499E-01 0.57931762733E-02
 0.19949252292E-02 0.51016873480E-03 0.25685854616E-03 0.30783150232E-04 0.10480593560E-03
 0.18246812927E-03 0.30155367510E-03 0.63136857805E-03 0.22384127424E-02 0.65324334509E-02
 0.19858275535E-01 0.57914338710E-01 0.16705134639E+00 0.46168951186E+00 0.12048012840E+01
 0.30122232450E+01 0.67843051336E+01 0.13500896016E+02 0.22910030593E+02 0.32024106254E+02
 0.35919084321E+02 0.32024367654E+02 0.22909846882E+02 0.13500507746E+02 0.67840904590E+01
 0.30128050773E+01 0.12041188562E+01 0.46188181073E+00 0.16695215422E+00 0.57857351268E-01
 0.19931224359E-01 0.64465121395E-02 0.22838504282E-02 0.60071255159E-03 0.32125506617E-03
 -.17228420997E-05 0.12331580956E-03 0.76145171432E-05 0.12084512959E-03 0.23165558474E-03
 0.79236742123E-03 0.22143933304E-02 0.65324334508E-02 0.18726042582E-01 0.51324444120E-01
 0.13786080020E+00 0.34767386865E+00 0.82996457275E+00 0.18208966701E+01 0.35854761194E+01
 0.61769175978E+01 0.90500329254E+01 0.11028743230E+02 0.11028217431E+02 0.90499063924E+01
 0.61769214546E+01 0.35863270229E+01 0.18207167455E+01 0.82934215764E+00 0.34849500644E+00
 0.13759526989E+00 0.51476169986E-01 0.18723285754E-01 0.65010616189E-02 0.23208686639E-02
 0.71956512494E-03 0.30480177605E-03 0.44416320246E-04 0.77481104664E-04 0.37721565950E-06
 0.35360811605E-04 0.87899560723E-04 0.27460628357E-03 0.79236742091E-03 0.22384127425E-02
 0.58938051431E-02 0.16153957179E-01 0.40541722632E-01 0.10105367575E+00 0.23146732526E+00
 0.49572565976E+00 0.96352458070E+00 0.16189181287E+01 0.25391250009E+01 0.32854886140E+01
 0.35859371184E+01 0.32859302983E+01 0.25395172939E+01 0.16185515410E+01 0.96256127053E+00
 0.49644265647E+00 0.23179171345E+00 0.10023074131E+00 0.40918055835E-01 0.15901957735E-01
 0.59771556656E-02 0.21524906665E-02 0.77868373712E-03 0.25879727540E-03 0.10147457707E-03
 0.29413866759E-04 0.24295043811E-04 0.11651364640E-04 0.42968393155E-04 0.87899560751E-04
 0.23165558451E-03 0.63136857813E-03 0.19160087178E-02 0.46474295089E-02 0.12405494503E-01
 0.28505912311E-01 0.65380791050E-01 0.13833794658E+00 0.26446982268E+00 0.46128728736E+00
 0.71549663140E+00 0.96361549254E+00 0.11181163100E+01 0.11180743835E+01 0.96297167421E+00
 0.71517637368E+00 0.46206138705E+00 0.26508935381E+00 0.13740476439E+00 0.65459475883E-01
 0.29036870361E-01 0.12146603305E-01 0.48753924549E-02 0.18759870279E-02 0.70998129959E-03
 0.25553748193E-03 0.95506125724E-04 0.32383853987E-04 0.19828088630E-04 0.14116575645E-04
 0.10387184200E-04 0.35318209192E-04 0.10655045741E-03 0.30792718061E-03 0.56908733128E-03
 0.16725920108E-02 0.33697858812E-02 0.85041717190E-02 0.18011844834E-01 0.36017446709E-01
 0.70263358620E-01 0.12326605912E+00 0.19220381789E+00 0.26740742017E+00 0.32848373933E+00
 0.35208708491E+00 0.32875410789E+00 0.26797628367E+00 0.19211501490E+00 0.12225598704E+00
 0.70166956747E-01 0.36787434192E-01 0.17855610824E-01 0.80869919060E-02 0.35051379221E-02
 0.14312790646E-02 0.58184072233E-03 0.21765060121E-03 0.87991230587E-04 0.33021693828E-04
 0.15553004695E-04 0.15553004806E-04 0.19136590274E-04 0.23854751371E-04 0.10370737847E-04
 -.63993916679E-05 0.16956747568E-03 0.23079840691E-03 0.11360672964E-02 0.20583260575E-02
 0.50468823613E-02 0.11155357888E-01 0.19960880624E-01 0.34074183459E-01 0.55128391180E-01
 0.79743304044E-01 0.10196318227E+00 0.11561278580E+00 0.11537666389E+00 0.10164738800E+00
 0.79356355956E-01 0.55444500933E-01 0.34831929574E-01 0.19934275032E-01 0.10522207316E-01
 0.52129776145E-02 0.23924019750E-02 0.10702950011E-02 0.43914541899E-03 0.19143847373E-03
 0.74318396258E-04 0.38495772004E-04 0.19633780797E-04 0.33021693646E-04 0.32850170113E-04
 0.27224817179E-04 0.65644639066E-04 0.13092784007E-03 0.11021788325E-03 0.36263628346E-03
 0.29002996295E-03 0.10391844376E-02 0.16170074490E-02 0.25133994005E-02 0.57366323904E-02
 0.10744307975E-01 0.16553301519E-01 0.23771176167E-01 0.31571957732E-01 0.37404270842E-01
 0.39842536823E-01 0.37711879405E-01 0.31815257063E-01 0.23918657102E-01 0.16308465390E-01
 0.10141883598E-01 0.57831814456E-02 0.30258661753E-02 0.15317062193E-02 0.70494397874E-03
 0.33827122148E-03 0.14348904946E-03 0.79130842851E-04 0.41817760941E-04 0.38495771702E-04
 0.87991230170E-04 0.89717823844E-04 0.10122317089E-03 0.51950918591E-04 -.10437430315E-04
 0.18680925652E-04 -.12892991608E-03 0.12990260032E-03 -.74428589928E-04 0.41453399180E-03
 0.14366050070E-02 0.18082982522E-02 0.26194712734E-02 0.50765914271E-02 0.81766024408E-02
 0.11289692061E-01 0.14276582112E-01 0.15834228404E-01 0.15748518192E-01 0.13979294587E-01
 0.11231422111E-01 0.80551541217E-02 0.52252009690E-02 0.31523143985E-02 0.18094395207E-02
 0.92238974491E-03 0.48744361949E-03 0.22479170134E-03 0.13493848412E-03 0.78913684267E-04
 0.79130843070E-04 0.74318396120E-04 0.21765060095E-03 0.25290107347E-03 0.24432709778E-03
 0.28775967143E-03 0.31529666764E-03 0.26343063891E-03 0.36982678233E-03 0.16006640697E-03
 0.44030266020E-03 0.20936457499E-03 -.14648589225E-03 0.61767511554E-03 0.17258406681E-02
 0.23816773540E-02 0.37829337441E-02 0.60789930650E-02 0.84673492658E-02 0.10721338050E-01
 0.11640994917E-01 0.10846058639E-01 0.86135537517E-02 0.60996332758E-02 0.39454166528E-02
 0.22800381532E-02 0.11856777967E-02 0.65728863282E-03 0.31460146125E-03 0.20098504434E-03
 0.12281142974E-03 0.13493848379E-03 0.14348904912E-03 0.19143847353E-03 0.58184072222E-03
 0.67318408457E-03 0.76210404312E-03 0.69685158440E-03 0.58042920193E-03 0.47103488827E-03
 0.21607292617E-03 0.25796774480E-03 -.76917346785E-04 0.20106860964E-03 0.68164781371E-03
 0.36582252131E-03 0.27437625510E-03 0.15889358032E-02 0.35281907351E-02 0.64382800238E-02
 0.10907460736E-01 0.15531958888E-01 0.18536865279E-01 0.18457746198E-01 0.15517734705E-01
 0.10832822947E-01 0.63451633851E-02 0.33792814360E-02 0.17040287083E-02 0.72769003783E-03
 0.38034967374E-03 0.19202121445E-03 0.20098504348E-03 0.22479170025E-03 0.33827122074E-03
 0.43914541895E-03 0.14312790640E-02 0.18224148845E-02 0.20539896154E-02 0.22306232449E-02
 0.21923546072E-02 0.19429618827E-02 0.16977018773E-02 0.11688126364E-02 0.10483993510E-02
 0.41897711502E-03 -.13992732422E-03 0.35545387887E-03 0.11386005401E-02 0.16028446016E-02
 0.36533990705E-02 0.81197530499E-02 0.15670217192E-01 0.24897325409E-01 0.32627945783E-01
 0.35997597639E-01 0.32658402777E-01 0.24801270379E-01 0.15819174826E-01 0.82492684467E-02
 0.36829808725E-02 0.16358929184E-02 0.62722068896E-03 0.38034967384E-03 0.31460146087E-03
 0.48744361976E-03 0.70494397879E-03 0.10702950003E-02 0.35051379212E-02 0.46798509879E-02
 0.57292924486E-02 0.62553947788E-02 0.61661934219E-02 0.55478191148E-02 0.43862815658E-02
 0.33426122736E-02 0.20347589977E-02 0.16210974588E-02 0.14190732128E-02 0.63768922921E-03
 0.25396465903E-03 0.16562025932E-02 0.40807974266E-02 0.97463699393E-02 0.20743413155E-01
 0.35527516905E-01 0.53678986451E-01 0.66986999199E-01 0.66996689362E-01 0.53747910814E-01
 0.35611434371E-01 0.20471658595E-01 0.97786798325E-02 0.39459869465E-02 0.16358929185E-02
 0.72769003786E-03 0.65728863271E-03 0.92238974461E-03 0.15317062193E-02 0.23924019740E-02
 0.80869919051E-02 0.11694538588E-01 0.15131669023E-01 0.17940021681E-01 0.18980058494E-01
 0.18085943921E-01 0.15507075101E-01 0.11929477062E-01 0.84992591929E-02 0.50810813907E-02
 0.24940411143E-02 0.18310250603E-02 0.16987166639E-02 0.16082565237E-02 0.35849316275E-02
 0.97412846135E-02 0.22153429367E-01 0.43338812257E-01 0.74912265839E-01 0.10537647606E+00
 0.11781109910E+00 0.10529824709E+00 0.74799285181E-01 0.43411996068E-01 0.22288938539E-01
 0.97786798324E-02 0.36829808727E-02 0.17040287082E-02 0.11856777968E-02 0.18094395202E-02
 0.30258661748E-02 0.52129776140E-02 0.17855610823E-01 0.27712011870E-01 0.38978882203E-01
 0.49033459560E-01 0.55033683087E-01 0.54975676775E-01 0.48691596348E-01 0.38583682152E-01
 0.27211859267E-01 0.18005529434E-01 0.11139341664E-01 0.57487531050E-02 0.26053326733E-02
 0.24118234382E-02 0.35034625159E-02 0.82468438465E-02 0.20672653976E-01 0.43370225245E-01
 0.83902357390E-01 0.13161193527E+00 0.16422572372E+00 0.16425877005E+00 0.13178315136E+00
 0.83843966653E-01 0.43411996068E-01 0.20471658596E-01 0.82492684470E-02 0.33792814364E-02
 0.22800381538E-02 0.31523143985E-02 0.57831814455E-02 0.10522207316E-01 0.36787434191E-01
 0.62223382974E-01 0.95164806451E-01 0.13037996258E+00 0.15815749711E+00 0.16877516560E+00
 0.15838430596E+00 0.13080117372E+00 0.95924284117E-01 0.62084844869E-01 0.36048378093E-01
 0.19936391227E-01 0.10775740295E-01 0.50280612983E-02 0.38282187401E-02 0.63422147222E-02
 0.15631717880E-01 0.35610921068E-01 0.74815951224E-01 0.13180487647E+00 0.18334894377E+00
 0.20489144641E+00 0.18320462796E+00 0.13178315137E+00 0.74799285182E-01 0.35611434371E-01
 0.15819174827E-01 0.63451633851E-02 0.39454166534E-02 0.52252009698E-02 0.10141883598E-01
 0.19934275032E-01 0.70166956748E-01 0.13026528063E+00 0.21915882753E+00 0.32884703542E+00
 0.43503157707E+00 0.50195961278E+00 0.50182597929E+00 0.43472724774E+00 0.32793482802E+00
 0.21898313006E+00 0.13122045968E+00 0.70259770578E-01 0.34076740902E-01 0.16552211619E-01
 0.82014988634E-02 0.60616248233E-02 0.11059711300E-01 0.24769675423E-01 0.53787015673E-01
 0.10520943082E+00 0.16425045036E+00 0.20475150057E+00 0.20489144640E+00 0.16425877005E+00
 0.10529824709E+00 0.53747910817E-01 0.24801270381E-01 0.10832822947E-01 0.60996332770E-02
 0.80551541230E-02 0.16308465393E-01 0.34831929576E-01 0.12225598704E+00 0.25054592002E+00
 0.46738849919E+00 0.77922658795E+00 0.11310762966E+01 0.14134509157E+01 0.15217640801E+01
 0.14136305205E+01 0.11319089749E+01 0.77976664254E+00 0.46657109132E+00 0.25001662234E+00
 0.12326777537E+00 0.55124503199E-01 0.23758566761E-01 0.11283570006E-01 0.83930860533E-02
 0.15522928070E-01 0.32643086471E-01 0.67028606586E-01 0.11788523773E+00 0.16425045036E+00
 0.18334894376E+00 0.16422572372E+00 0.11781109910E+00 0.66996689364E-01 0.32658402779E-01
 0.15517734707E-01 0.86135537529E-02 0.11231422113E-01 0.23918657105E-01 0.55444500937E-01
 0.19211501492E+00 0.43526666459E+00 0.90409255056E+00 0.16377541777E+01 0.28029985597E+01
 0.39733842651E+01 0.47557695432E+01 0.47557415529E+01 0.39726965771E+01 0.28023948839E+01
 0.16380552983E+01 0.90501217358E+00 0.43431142126E+00 0.19221172382E+00 0.79748246186E-01
 0.31588492837E-01 0.14327244866E-01 0.10734372157E-01 0.18583338463E-01 0.35876598153E-01
 0.67028606585E-01 0.10520943082E+00 0.13180487647E+00 0.13161193527E+00 0.10537647606E+00
 0.66986999202E-01 0.35997597641E-01 0.18457746200E-01 0.10846058641E-01 0.13979294589E-01
 0.31815257068E-01 0.79356355966E-01 0.26797628370E+00 0.67214887388E+00 0.15216615910E+01
 0.33327485956E+01 0.62700268962E+01 0.10143231508E+02 0.13724339654E+02 0.15218383278E+02
 0.13724871312E+02 0.10143680934E+02 0.62701273115E+01 0.33319345492E+01 0.15221915730E+01
 0.67237456717E+00 0.26739811329E+00 0.10194799367E+00 0.37354792948E-01 0.15838124426E-01
 0.11555478624E-01 0.18583338463E-01 0.32643086470E-01 0.53787015671E-01 0.74815951221E-01
 0.83902357387E-01 0.74912265837E-01 0.53678986452E-01 0.32627945784E-01 0.18536865280E-01
 0.11640994918E-01 0.15748518195E-01 0.37711879412E-01 0.10164738802E+00 0.32875410794E+00
 0.90449501842E+00 0.23660269819E+01 0.57119996120E+01 0.12393126454E+02 0.23316202764E+02
 0.36593301455E+02 0.46310780170E+02 0.46310203883E+02 0.36593107564E+02 0.23315977140E+02
 0.12393616650E+02 0.57117334014E+01 0.23657744785E+01 0.90501737750E+00 0.32855683978E+00
 0.11562031081E+00 0.39855360498E-01 0.15838124426E-01 0.10734372157E-01 0.15522928069E-01
 0.24769675423E-01 0.35610921066E-01 0.43370225243E-01 0.43338812256E-01 0.35527516905E-01
 0.24897325409E-01 0.15531958889E-01 0.10721338051E-01 0.15834228407E-01 0.39842536831E-01
 0.11537666391E+00 0.35208708497E+00 0.10502104272E+01 0.30546048631E+01 0.83417613570E+01
 0.20912090584E+02 0.46310676249E+02 0.86314093925E+02 0.12875341050E+03 0.14783481333E+03
 0.12875365003E+03 0.86314126513E+02 0.46310502875E+02 0.20912256338E+02 0.83420258008E+01
 0.30540551426E+01 0.10504035292E+01 0.35184274938E+00 0.11562031081E+00 0.37354792950E-01
 0.14327244867E-01 0.83930860533E-02 0.11059711299E-01 0.15631717879E-01 0.20672653975E-01
 0.22153429365E-01 0.20743413155E-01 0.15670217192E-01 0.10907460736E-01 0.84673492669E-02
 0.14276582116E-01 0.37404270850E-01 0.11561278582E+00 0.32848373939E+00 0.10502616568E+01
 0.33322330875E+01 0.10143333881E+02 0.29115607010E+02 0.75890579951E+02 0.17018682286E+03
 0.30730368390E+03 0.42018926555E+03 0.42018948966E+03 0.30730366406E+03 0.17018695789E+03
 0.75890368314E+02 0.29115371256E+02 0.10143806984E+02 0.33321713813E+01 0.10504035292E+01
 0.32855683979E+00 0.10194799367E+00 0.31588492840E-01 0.11283570007E-01 0.60616248229E-02
 0.63422147220E-02 0.82468438459E-02 0.97412846125E-02 0.97463699389E-02 0.81197530494E-02
 0.64382800232E-02 0.60789930655E-02 0.11289692064E-01 0.31571957739E-01 0.10196318229E+00
 0.26740742022E+00 0.90507624952E+00 0.30542042558E+01 0.10143812609E+02 0.32616014050E+02
 0.98389386273E+02 0.26396237783E+03 0.58110921586E+03 0.96050922495E+03 0.11369614174E+04
 0.96050884593E+03 0.58110912152E+03 0.26396258107E+03 0.98389582704E+02 0.32615650147E+02
 0.10143806985E+02 0.30540551427E+01 0.90501737756E+00 0.26739811332E+00 0.79748246194E-01
 0.23758566764E-01 0.82014988641E-02 0.38282187404E-02 0.35034625159E-02 0.35849316271E-02