unknown system                          
    1.000000000000000     
     3.781584    0.000000    0.000000
    -1.890792    3.274948    0.000000
     0.000000    0.000000    6.204766
   Zn   S 
     2     2
Direct
   0.666667  0.333333  0.500401
   0.333333  0.666667  0.000401
   0.666667  0.333333  0.874599
   0.333333  0.666667  0.374599
 
   32   32   56
 0.20180384576E+01 0.20914888545E+01 0.23181610304E+01 0.27216373434E+01 0.33403394200E+01
 0.42180116158E+01 0.54004899734E+01 0.69483495242E+01 0.89450844000E+01 0.11467595008E+02
 0.14519911007E+02 0.17976295672E+02 0.21577195352E+02 0.24973497175E+02 0.27784241851E+02
 0.29652697953E+02 0.30312111139E+02 0.29656987708E+02 0.27782069640E+02 0.24957369894E+02
 0.21553821064E+02 0.17961466308E+02 0.14523451476E+02 0.11484894019E+02 0.89628396564E+01
 0.69567948220E+01 0.53996911179E+01 0.42141543037E+01 0.33382228951E+01 0.27214589038E+01
 0.23180972820E+01 0.20910666561E+01 0.20911612845E+01 0.20913181109E+01 0.22444396153E+01
 0.25619617441E+01 0.30757888672E+01 0.38405961400E+01 0.49186729432E+01 0.63621210752E+01
 0.82135840833E+01 0.10516920923E+02 0.13302371825E+02 0.16532251299E+02 0.20043723963E+02
 0.23540162139E+02 0.26642736968E+02 0.28970850632E+02 0.30218481913E+02 0.30214364904E+02
 0.28959432232E+02 0.26628911068E+02 0.23533575412E+02 0.20051800357E+02 0.16551443836E+02
 0.13319758410E+02 0.10522339677E+02 0.82084744688E+01 0.63553519182E+01 0.49161167043E+01
 0.38412334077E+01 0.30763295660E+01 0.25614986822E+01 0.22438990844E+01 0.23182037218E+01
 0.22386393675E+01 0.23179561577E+01 0.25609549536E+01 0.29882584377E+01 0.36492026972E+01
 0.46206476547E+01 0.59814193351E+01 0.77827056292E+01 0.10044449417E+02 0.12773075932E+02
 0.15957998182E+02 0.19521347402E+02 0.23255390110E+02 0.26811235702E+02 0.29763692905E+02
 0.31717059921E+02 0.32398505949E+02 0.31712657113E+02 0.29758669109E+02 0.26812399288E+02
 0.23267729759E+02 0.19541203279E+02 0.15973015759E+02 0.12772442268E+02 0.10029557428E+02
 0.77656492910E+01 0.59727950123E+01 0.46209751442E+01 0.36524231895E+01 0.29901151644E+01
 0.25614889319E+01 0.27214614609E+01 0.25513354975E+01 0.25505765806E+01 0.27202533272E+01
 0.30759796331E+01 0.36522573732E+01 0.45129863611E+01 0.57523708219E+01 0.74688088378E+01
 0.97240265290E+01 0.12523655592E+02 0.15830518483E+02 0.19573505803E+02 0.23612881821E+02
 0.27681221515E+02 0.31367871740E+02 0.34190312112E+02 0.35724548078E+02 0.35726624678E+02
 0.34197317638E+02 0.31379415589E+02 0.27692141947E+02 0.23615516469E+02 0.19564586312E+02
 0.15814823496E+02 0.12510173405E+02 0.97186922739E+01 0.74707733958E+01 0.57564531519E+01
 0.45150805593E+01 0.36523162538E+01 0.30762128801E+01 0.33382228951E+01 0.30586677593E+01
 0.29693119273E+01 0.30589304575E+01 0.33402947971E+01 0.38446367979E+01 0.46207600257E+01
 0.57471248485E+01 0.73359810899E+01 0.95028972295E+01 0.12314603646E+02 0.15760765614E+02
 0.19765982714E+02 0.24199787013E+02 0.28840505404E+02 0.33318511036E+02 0.37118578027E+02
 0.39686044179E+02 0.40594601905E+02 0.39687009363E+02 0.37123915946E+02 0.33326853387E+02
 0.28842603328E+02 0.24187612679E+02 0.19743804716E+02 0.15743579106E+02 0.12314337558E+02
 0.95176104992E+01 0.73532466590E+01 0.57563468883E+01 0.46208687044E+01 0.38412424858E+01
 0.42145682775E+01 0.37965854390E+01 0.36057582018E+01 0.36066436123E+01 0.37983656294E+01
 0.42163101743E+01 0.49185367146E+01 0.59742512646E+01 0.74685358458E+01 0.95095706346E+01
 0.12211565885E+02 0.15652135736E+02 0.19831967597E+02 0.24653059116E+02 0.29898665186E+02
 0.35201456653E+02 0.40031156523E+02 0.43756289133E+02 0.45793990268E+02 0.45791828331E+02
 0.43750821865E+02 0.40024651136E+02 0.35195732917E+02 0.29894434065E+02 0.24651374353E+02
 0.19835197725E+02 0.15661395779E+02 0.12223421418E+02 0.95179207665E+01 0.74705707363E+01
 0.59724854170E+01 0.49164360498E+01 0.54008819050E+01 0.48110329192E+01 0.45009177875E+01
 0.44060035028E+01 0.45000385352E+01 0.48078945044E+01 0.53999228120E+01 0.63646093180E+01
 0.77831992076E+01 0.97336114892E+01 0.12313999425E+02 0.15644471158E+02 0.19822705148E+02
 0.24851390322E+02 0.30571864478E+02 0.36625774581E+02 0.42457979824E+02 0.47320047497E+02
 0.50546843345E+02 0.51676445052E+02 0.50546835228E+02 0.47315730663E+02 0.42448564129E+02
 0.36617617833E+02 0.30573187749E+02 0.24865283067E+02 0.19844152725E+02 0.15661705375E+02
 0.12315528345E+02 0.97187992096E+01 0.77645649437E+01 0.63553421679E+01 0.69582438345E+01
 0.61701408040E+01 0.57250418097E+01 0.55292172374E+01 0.55297262745E+01 0.57234148605E+01
 0.61645347234E+01 0.69557394028E+01 0.82147218650E+01 0.10042372906E+02 0.12522954105E+02
 0.15749407475E+02 0.19832836175E+02 0.24858991163E+02 0.30790661982E+02 0.37361343389E+02
 0.44004878190E+02 0.49876160011E+02 0.54210204334E+02 0.56499343879E+02 0.56502777896E+02
 0.54215615278E+02 0.49877143620E+02 0.44003626953E+02 0.37363654661E+02 0.30796386534E+02
 0.24863729676E+02 0.19833953929E+02 0.15745131825E+02 0.12511619860E+02 0.10028004037E+02
 0.82069113274E+01 0.89628396564E+01 0.79717602516E+01 0.73948742730E+01 0.71053415907E+01
 0.70222410333E+01 0.71116430830E+01 0.73945669308E+01 0.79586259513E+01 0.89451687106E+01
 0.10507892961E+02 0.12773074515E+02 0.15831984581E+02 0.19766060645E+02 0.24664456425E+02
 0.30572440971E+02 0.37355884365E+02 0.44530649020E+02 0.51185029763E+02 0.56441506596E+02
 0.59744201911E+02 0.60864405407E+02 0.59750877840E+02 0.56445615211E+02 0.51185782509E+02
 0.44536405471E+02 0.37365412035E+02 0.30571996962E+02 0.24647753993E+02 0.19743804716E+02
 0.15818027326E+02 0.12772335828E+02 0.10519038662E+02 0.11481933725E+02 0.10325051286E+02
 0.96682334910E+01 0.93429446656E+01 0.92209283289E+01 0.92264925047E+01 0.93509243807E+01
 0.96661045750E+01 0.10313325325E+02 0.11467972159E+02 0.13303697046E+02 0.15967932494E+02
 0.19571825799E+02 0.24198616479E+02 0.29900202955E+02 0.36617578018E+02 0.44003584665E+02
 0.51188978656E+02 0.57183048911E+02 0.61323215409E+02 0.63386113469E+02 0.63389691953E+02
 0.61326822471E+02 0.57179636363E+02 0.51186028602E+02 0.44008245016E+02 0.36620682505E+02
 0.29891059798E+02 0.24184548679E+02 0.19567757920E+02 0.15976080432E+02 0.13316703488E+02
 0.14518387364E+02 0.13298396594E+02 0.12699337888E+02 0.12503932616E+02 0.12501088205E+02
 0.12525379753E+02 0.12508591814E+02 0.12514109305E+02 0.12712214555E+02 0.13313244924E+02
 0.14522397135E+02 0.16533399629E+02 0.19518841854E+02 0.23602785772E+02 0.28842902329E+02
 0.35202633541E+02 0.42454929101E+02 0.49880772772E+02 0.56447339873E+02 0.61326818454E+02
 0.64193113914E+02 0.65118932148E+02 0.64195416305E+02 0.61323757798E+02 0.56440551100E+02
 0.49878697011E+02 0.42454819028E+02 0.35196042513E+02 0.28837539217E+02 0.23615623405E+02
 0.19546373830E+02 0.16551434085E+02 0.17957580798E+02 0.16852095492E+02 0.16547596091E+02
 0.16773532090E+02 0.17204374024E+02 0.17524107874E+02 0.17526563778E+02 0.17208954756E+02
 0.16780714266E+02 0.16564777580E+02 0.16875537187E+02 0.17967102108E+02 0.20041873585E+02
 0.23252557959E+02 0.27683367911E+02 0.33327160394E+02 0.40028052234E+02 0.47316131530E+02
 0.54213022015E+02 0.59749260012E+02 0.63391029890E+02 0.65121368826E+02 0.65122713279E+02
 0.63390408412E+02 0.59743785944E+02 0.54210280756E+02 0.47319511794E+02 0.40028741862E+02
 0.33323071584E+02 0.27688253881E+02 0.23271510890E+02 0.20055571738E+02 0.21553821064E+02
 0.20790276515E+02 0.21066987744E+02 0.22048040468E+02 0.23274669428E+02 0.24264898020E+02
 0.24641873273E+02 0.24256568937E+02 0.23254313016E+02 0.22027773598E+02 0.21068227496E+02
 0.20813535613E+02 0.21576671595E+02 0.23546762600E+02 0.26811723519E+02 0.31372069280E+02
 0.37118240867E+02 0.43748234970E+02 0.50544416370E+02 0.56500042766E+02 0.60864142311E+02
 0.63389689642E+02 0.64198178026E+02 0.63394299520E+02 0.60864405407E+02 0.56496103126E+02
 0.50545644441E+02 0.43755633648E+02 0.37123915946E+02 0.31374187275E+02 0.26812292848E+02
 0.23538706541E+02 0.24960608484E+02 0.24760873372E+02 0.25852412897E+02 0.29069482758E+02
 0.33073638378E+02 0.37066480423E+02 0.39598431509E+02 0.39594481977E+02 0.37049565462E+02
 0.33043165121E+02 0.29043288252E+02 0.25848408687E+02 0.24774781611E+02 0.24975872254E+02
 0.26641322691E+02 0.29759775057E+02 0.34192598189E+02 0.39684175905E+02 0.45792659461E+02
 0.51677447733E+02 0.56498055599E+02 0.59742344670E+02 0.61323684242E+02 0.61329414293E+02
 0.59750646887E+02 0.56497763059E+02 0.51673310840E+02 0.45794652947E+02 0.39690144247E+02
 0.34194290362E+02 0.29755534897E+02 0.26632055030E+02 0.27785492548E+02 0.28311322292E+02
 0.30317335122E+02 0.37087358406E+02 0.45536233872E+02 0.55259318359E+02 0.63333547882E+02
 0.66518781193E+02 0.63355232890E+02 0.55277937222E+02 0.45533682051E+02 0.37068942824E+02
 0.30297438383E+02 0.28298295521E+02 0.27782739819E+02 0.28966570400E+02 0.31718603519E+02
 0.35729459789E+02 0.40596301939E+02 0.45795793672E+02 0.50547839279E+02 0.54209240884E+02
 0.56438852853E+02 0.57179984239E+02 0.56444929504E+02 0.54211757725E+02 0.50544611224E+02
 0.45794299863E+02 0.40598024813E+02 0.35726731614E+02 0.31709340644E+02 0.28959422482E+02
 0.29658504689E+02 0.30983073852E+02 0.36053177145E+02 0.45613828194E+02 0.61174845766E+02
 0.82067395071E+02 0.10375053395E+03 0.11810067109E+03 0.11812244956E+03 0.10379675212E+03
 0.82102610046E+02 0.61182598325E+02 0.45602047876E+02 0.36035503407E+02 0.30968315763E+02
 0.29652445425E+02 0.30216375627E+02 0.32403359391E+02 0.35727838430E+02 0.39685688757E+02
 0.43754977707E+02 0.47321534020E+02 0.49879151413E+02 0.51184292624E+02 0.51183340357E+02
 0.49876227979E+02 0.47318426138E+02 0.43754977370E+02 0.39687664866E+02 0.35726062501E+02
 0.32396884590E+02 0.30212733795E+02 0.30312111139E+02 0.32412109537E+02 0.39417317614E+02
 0.53137645652E+02 0.78065658699E+02 0.11738987097E+03 0.16805489461E+03 0.21479528258E+03
 0.23436113710E+03 0.21479124789E+03 0.16805619994E+03 0.11740397063E+03 0.78087276642E+02
 0.53152210274E+02 0.39416746711E+02 0.32403205530E+02 0.30306113244E+02 0.30216001969E+02
 0.31715180610E+02 0.34188216276E+02 0.37118240867E+02 0.40033081066E+02 0.42459993212E+02
 0.44005401636E+02 0.44530649020E+02 0.44004572501E+02 0.42456789037E+02 0.40029599227E+02
 0.37118578027E+02 0.34191452877E+02 0.31716953482E+02 0.30217243962E+02 0.29652487071E+02
 0.32403913893E+02 0.40645392136E+02 0.57657468310E+02 0.91856224114E+02 0.15490950095E+03
 0.25563062730E+03 0.38006681683E+03 0.47337436129E+03 0.47334817756E+03 0.38001467607E+03
 0.25560078774E+03 0.15491905816E+03 0.91881324641E+02 0.57670854966E+02 0.40645858093E+02
 0.32404137971E+02 0.29654382045E+02 0.28966885661E+02 0.29756325585E+02 0.31366632641E+02
 0.33323694524E+02 0.35202948802E+02 0.36620327430E+02 0.37358879869E+02 0.37363212041E+02
 0.36626089842E+02 0.35200831797E+02 0.33318196447E+02 0.31368293936E+02 0.29764008165E+02
 0.28970545122E+02 0.27784277274E+02 0.30966935178E+02 0.39410711097E+02 0.57662920899E+02
 0.97286488451E+02 0.18055004398E+03 0.34254808558E+03 0.60604272972E+03 0.89995466367E+03
 0.10349564391E+04 0.89993471429E+03 0.60601356939E+03 0.34252399987E+03 0.18053976894E+03
 0.97288936281E+02 0.57670539705E+02 0.39416782135E+02 0.30969937122E+02 0.27786127304E+02
 0.26644456903E+02 0.26811758942E+02 0.27679586780E+02 0.28837802794E+02 0.29897138282E+02
 0.30572476394E+02 0.30792215373E+02 0.30573019842E+02 0.29898974781E+02 0.28840540828E+02
 0.27681328451E+02 0.26811306718E+02 0.26642727218E+02 0.24973541014E+02 0.28304737190E+02
 0.36037517171E+02 0.53143641125E+02 0.91878245883E+02 0.18055604965E+03 0.38088757977E+03
 0.79303610196E+03 0.14282108764E+04 0.19286344288E+04 0.19286510585E+04 0.14282392816E+04
 0.79304152380E+03 0.38086798879E+03 0.18053962072E+03 0.91880861163E+02 0.53151110792E+02
 0.36034030266E+02 0.28298147302E+02 0.24978858247E+02 0.23552032196E+02 0.23256487309E+02
 0.23602637553E+02 0.24195403588E+02 0.24661293879E+02 0.24857585990E+02 0.24851242103E+02
 0.24653220493E+02 0.24199934559E+02 0.23612923103E+02 0.23255241892E+02 0.23540004171E+02
 0.21577195352E+02 0.24773983197E+02 0.30295988300E+02 0.45603337732E+02 0.78095273725E+02
 0.15493036447E+03 0.34252429337E+03 0.79301711838E+03 0.16878472393E+04 0.25159211895E+04
 0.24571112633E+04 0.25159562440E+04 0.16878907607E+04 0.79304153887E+03 0.34252396445E+03
 0.15491921013E+03 0.78087276644E+02 0.45600589811E+02 0.30294015474E+02 0.24771484107E+02
 0.21576671595E+02 0.20045818009E+02 0.19523905965E+02 0.19574727179E+02 0.19766060645E+02
 0.19831446077E+02 0.19821514361E+02 0.19831494709E+02 0.19765982714E+02 0.19573562160E+02
 0.19521240962E+02 0.20043570420E+02 0.17976386589E+02 0.20816184346E+02 0.25837000848E+02
 0.37060116576E+02 0.61193088838E+02 0.11742405189E+03 0.25560557126E+03 0.60599529931E+03
 0.14282142155E+04 0.25159409706E+04 0.11453920277E+04 0.11453961402E+04 0.25159563938E+04
 0.14282394433E+04 0.60601358286E+03 0.25560108955E+03 0.11740520487E+03 0.61184233147E+02
 0.37068956286E+02 0.25845261013E+02 0.20808400773E+02 0.17963334439E+02 0.16533413091E+02
 0.15970983705E+02 0.15835281884E+02 0.15750974328E+02 0.15644484620E+02 0.15651812679E+02
 0.15760752824E+02 0.15830638880E+02 0.15958011644E+02 0.16532247588E+02 0.14520018941E+02
 0.16873242268E+02 0.21067464044E+02 0.29044092986E+02 0.45533285811E+02 0.82097991455E+02
 0.16805001832E+03 0.38001689132E+03 0.89995392963E+03 0.19286824015E+04 0.24571357721E+04
 0.11453920143E+04 0.24571113711E+04 0.19286512067E+04 0.89993464179E+03 0.38001436082E+03
 0.16805630788E+03 0.82104231409E+02 0.45536997027E+02 0.29046422464E+02 0.21068335430E+02
 0.16871756056E+02 0.14517225089E+02 0.13300632373E+02 0.12773182449E+02 0.12524507496E+02
 0.12315082278E+02 0.12211875480E+02 0.12314711580E+02 0.12523762528E+02 0.12773074438E+02
 0.13302362074E+02 0.11467593176E+02 0.13302622371E+02 0.16561641831E+02 0.22041066856E+02
 0.33055630377E+02 0.55266942841E+02 0.10376638269E+03 0.21477210721E+03 0.47336506045E+03
 0.10350035256E+04 0.19286822990E+04 0.25159408547E+04 0.25159211288E+04 0.19286343831E+04
 0.10349563366E+04 0.47334775977E+03 0.21479010274E+03 0.10379523332E+03 0.55277834678E+02
 0.33046196787E+02 0.22032997522E+02 0.16568661257E+02 0.13313142378E+02 0.11464804940E+02
 0.10504684742E+02 0.10040922061E+02 0.97335089430E+01 0.95097776837E+01 0.95029991036E+01
 0.97240221394E+01 0.10044346871E+02 0.10516808627E+02 0.89450844000E+01 0.10315180362E+02
 0.12714836996E+02 0.16783085700E+02 0.23256968345E+02 0.37052067481E+02 0.63353880187E+02
 0.11811381049E+03 0.23434805175E+03 0.47336503651E+03 0.89995382169E+03 0.14282141503E+04
 0.16878472393E+04 0.14282108068E+04 0.89995462825E+03 0.47337459795E+03 0.23436113711E+03
 0.11812090681E+03 0.63351809984E+02 0.37046352644E+02 0.23254313016E+02 0.16784574005E+02
 0.12717278666E+02 0.10316311390E+02 0.89451687106E+01 0.82132470821E+01 0.77820084206E+01
 0.74681476423E+01 0.73359810899E+01 0.74687805103E+01 0.77825991894E+01 0.82135152254E+01
 0.69484908728E+01 0.79600189281E+01 0.96756235641E+01 0.12516185765E+02 0.17197645651E+02
 0.24248779614E+02 0.39608873796E+02 0.66547669691E+02 0.11811392607E+03 0.21477217279E+03
 0.38001685434E+03 0.60599534973E+03 0.79301731863E+03 0.79303621320E+03 0.60604269275E+03
 0.38006716906E+03 0.21479656726E+03 0.11810225548E+03 0.66518744225E+02 0.39591384737E+02
 0.24251484529E+02 0.17205136655E+02 0.12514072335E+02 0.96692062175E+01 0.79619736865E+01
 0.69572558239E+01 0.63645723480E+01 0.59739786393E+01 0.57471624906E+01 0.57524407877E+01
 0.59813823651E+01 0.63621677955E+01 0.54006707686E+01 0.61652745896E+01 0.73943838235E+01
 0.93489748755E+01 0.12504134492E+02 0.17520906409E+02 0.24640799506E+02 0.39608910766E+02
 0.63354060982E+02 0.10376648524E+03 0.16804994545E+03 0.25560555779E+03 0.34252447416E+03
 0.38088772798E+03 0.34254794021E+03 0.25563031204E+03 0.16805507541E+03 0.10375215531E+03
 0.63336789997E+02 0.39601565721E+02 0.24642054069E+02 0.17522782647E+02 0.12503346907E+02
 0.93478597081E+01 0.73947477259E+01 0.61660881146E+01 0.54009328039E+01 0.49188463098E+01
 0.46209408209E+01 0.45130932968E+01 0.46205732993E+01 0.49186631930E+01 0.42180805003E+01
 0.48122982881E+01 0.57223507191E+01 0.71064324966E+01 0.92259738686E+01 0.12529506935E+02
 0.17520733146E+02 0.24248643321E+02 0.37052162135E+02 0.55267013556E+02 0.82097818189E+02
 0.11742386516E+03 0.15493037444E+03 0.18055607469E+03 0.18054987072E+03 0.15490901242E+03
 0.11738879653E+03 0.82065946975E+02 0.55259145097E+02 0.37069441372E+02 0.24270192661E+02
 0.17528062268E+02 0.12525206489E+02 0.92232545690E+01 0.71085055809E+01 0.57220347325E+01
 0.48077212413E+01 0.42164465064E+01 0.38448093889E+01 0.36523237006E+01 0.36490294341E+01
 0.38404131267E+01 0.33403394200E+01 0.37986164600E+01 0.44995350741E+01 0.55291612867E+01
 0.70242552994E+01 0.92260165654E+01 0.12503953697E+02 0.17197392721E+02 0.23256968345E+02
 0.33055743791E+02 0.45533177876E+02 0.61192886337E+02 0.78095273721E+02 0.91878313620E+02
 0.97286453024E+02 0.91856323412E+02 0.78065658698E+02 0.61173440367E+02 0.45532810964E+02
 0.33070288206E+02 0.23274669428E+02 0.17208371115E+02 0.12506152316E+02 0.92237770416E+01
 0.70222410333E+01 0.55283888433E+01 0.44988477482E+01 0.37978400742E+01 0.33402947971E+01
 0.30760886572E+01 0.29881519979E+01 0.30755826575E+01 0.27216640906E+01 0.30587408992E+01
 0.36053998704E+01 0.44053780970E+01 0.55292996152E+01 0.71066833911E+01 0.93490525069E+01
 0.12516071164E+02 0.16783086677E+02 0.22041247034E+02 0.29044170617E+02 0.37060052406E+02
 0.45603423392E+02 0.53143866973E+02 0.57662998528E+02 0.57657705938E+02 0.53138815721E+02
 0.45615527184E+02 0.37087436037E+02 0.29066270916E+02 0.22042841458E+02 0.16769828590E+02
 0.12504010247E+02 0.93459317068E+01 0.71085747245E+01 0.55308482599E+01 0.44060811342E+01
 0.36062563856E+01 0.30588534982E+01 0.27204378943E+01 0.25610325850E+01 0.25618938630E+01
 0.23181808539E+01 0.25506127404E+01 0.29690656303E+01 0.36053222390E+01 0.44995548976E+01
 0.57225239822E+01 0.73945447951E+01 0.96756605342E+01 0.12714856819E+02 0.16561744378E+02
 0.21067552154E+02 0.25836987386E+02 0.30296008124E+02 0.36037665389E+02 0.39410726696E+02
 0.40645076874E+02 0.39417337437E+02 0.36054798504E+02 0.30320738207E+02 0.25855547108E+02
 0.21067007568E+02 0.16543814960E+02 0.12694253953E+02 0.96651688185E+01 0.73948940965E+01
 0.57265952009E+01 0.45020887510E+01 0.36060677971E+01 0.29693317509E+01 0.25506835163E+01
 0.23180427739E+01 0.22444298651E+01 0.20914598931E+01 0.22385491155E+01 0.25505373233E+01
 0.30585878507E+01 0.37984759172E+01 0.48122004421E+01 0.61651991724E+01 0.79599804810E+01
 0.10315177171E+02 0.13302595242E+02 0.16873166851E+02 0.20816095467E+02 0.24773895321E+02
 0.28304664389E+02 0.30966859761E+02 0.32403523216E+02 0.32410937253E+02 0.30981527910E+02
 0.28311246874E+02 0.24763932167E+02 0.20795473310E+02 0.16855952040E+02 0.13298321176E+02
 0.10321911196E+02 0.79685249036E+01 0.61686628300E+01 0.48109575020E+01 0.37968196171E+01
 0.30587425043E+01 0.25513039789E+01 0.22385639503E+01 0.20912329435E+01 0.18759343943E+01
 0.19426137005E+01 0.21483796963E+01 0.25140705932E+01 0.30720482139E+01 0.38566857242E+01
 0.49025652629E+01 0.62586032223E+01 0.79971537985E+01 0.10186634011E+02 0.12830663647E+02
 0.15818470220E+02 0.18924892994E+02 0.21851223202E+02 0.24273013155E+02 0.25884524691E+02
 0.26454690808E+02 0.25891154090E+02 0.24275384352E+02 0.21839842570E+02 0.18902867958E+02
 0.15799729243E+02 0.12827342487E+02 0.10198679108E+02 0.80138622061E+01 0.62691275773E+01
 0.49042434710E+01 0.38540840761E+01 0.30701022666E+01 0.25137487477E+01 0.21482693287E+01
 0.19422232646E+01 0.19423705159E+01 0.19424451851E+01 0.20797432471E+01 0.23629498019E+01
 0.28173344239E+01 0.34864465136E+01 0.44182593703E+01 0.56507362929E+01 0.72157580091E+01
 0.91504273831E+01 0.11481852195E+02 0.14176465308E+02 0.17092015250E+02 0.19977205010E+02
 0.22521473871E+02 0.24421324278E+02 0.25436708575E+02 0.25433751794E+02 0.24412383934E+02
 0.22508824433E+02 0.19968025565E+02 0.17094122933E+02 0.14190123485E+02 0.11498083136E+02
 0.91593447952E+01 0.72155281203E+01 0.56469551212E+01 0.44161152004E+01 0.34862232576E+01
 0.28170939943E+01 0.23622431096E+01 0.20792953428E+01 0.21485132266E+01 0.20779733865E+01
 0.21481492451E+01 0.23616890001E+01 0.27325926086E+01 0.32988651030E+01 0.41215149527E+01
 0.52612217835E+01 0.67533091940E+01 0.86078994109E+01 0.10827453403E+02 0.13402076359E+02
 0.16264319895E+02 0.19239405810E+02 0.22044706569E+02 0.24350462537E+02 0.25863240700E+02
 0.26388234496E+02 0.25858549366E+02 0.24343541492E+02 0.22041778023E+02 0.19247445645E+02
 0.16283250148E+02 0.13421218874E+02 0.10833577907E+02 0.85979528391E+01 0.67370478003E+01
 0.52505063443E+01 0.41194995526E+01 0.33008799087E+01 0.27342084386E+01 0.23623380420E+01
 0.25138272890E+01 0.23663169264E+01 0.23655656047E+01 0.25124649014E+01 0.28161960125E+01
 0.32998282665E+01 0.40118576531E+01 0.50276620525E+01 0.64252294930E+01 0.82481370857E+01
 0.10489553983E+02 0.13106786017E+02 0.16032877881E+02 0.19151870549E+02 0.22255261555E+02
 0.25034883905E+02 0.27141280965E+02 0.28277992858E+02 0.28279257356E+02 0.27145879799E+02
 0.25043357771E+02 0.22265013508E+02 0.19157625224E+02 0.16030546584E+02 0.13096888509E+02
 0.10477084005E+02 0.82390289895E+01 0.64221910118E+01 0.50288613003E+01 0.40137030969E+01
 0.33007490485E+01 0.28170580664E+01 0.30701022666E+01 0.28347556335E+01 0.27587898984E+01
 0.28351864671E+01 0.30720015024E+01 0.34883561232E+01 0.41167480781E+01 0.50174067084E+01
 0.62826456432E+01 0.80059577740E+01 0.10230907820E+02 0.12926665412E+02 0.16007408912E+02
 0.19354862793E+02 0.22799251936E+02 0.26076551891E+02 0.28827297111E+02 0.30670983032E+02
 0.31320349060E+02 0.30671524088E+02 0.28832456806E+02 0.26086310608E+02 0.22805032692E+02
 0.19346821360E+02 0.15986254969E+02 0.12905608581E+02 0.10224122141E+02 0.80157825604E+01
 0.62990073040E+01 0.50286468022E+01 0.41192556547E+01 0.34862119631E+01 0.38545340472E+01
 0.35147454057E+01 0.33578811941E+01 0.33590018735E+01 0.35172056010E+01 0.38569994484E+01
 0.44181192972E+01 0.52491066100E+01 0.64152022572E+01 0.80040755981E+01 0.10103995255E+02
 0.12759408408E+02 0.15938837142E+02 0.19533316662E+02 0.23362662551E+02 0.27164057583E+02
 0.30580203360E+02 0.33192154143E+02 0.34613934500E+02 0.34612257333E+02 0.33188257416E+02
 0.30576313036E+02 0.27160929035E+02 0.23358755803E+02 0.19527958775E+02 0.15935585444E+02
 0.12763384236E+02 0.10115190446E+02 0.80160965747E+01 0.64219242199E+01 0.52501086921E+01
 0.44164179203E+01 0.49054653089E+01 0.44439704820E+01 0.41994917099E+01 0.41242661330E+01
 0.41988102221E+01 0.44420284314E+01 0.49069179418E+01 0.56583633920E+01 0.67537706719E+01
 0.82490467390E+01 0.10217300323E+02 0.12742707034E+02 0.15876627675E+02 0.19584609226E+02
 0.23716783576E+02 0.28004897354E+02 0.32074407901E+02 0.35475868175E+02 0.37754409261E+02
 0.38559191194E+02 0.37754760660E+02 0.35472463213E+02 0.32065695611E+02 0.27995485824E+02
 0.23714200216E+02 0.19594109576E+02 0.15896943648E+02 0.12763781889E+02 0.10225343979E+02
 0.82391598497E+01 0.67360698603E+01 0.56470500535E+01 0.62704974290E+01 0.56787352240E+01
 0.53455800443E+01 0.51986537641E+01 0.51985092100E+01 0.53429497032E+01 0.56736892560E+01
 0.62710932362E+01 0.72265536545E+01 0.86141021477E+01 0.10488940738E+02 0.12906499190E+02
 0.15927420309E+02 0.19584490988E+02 0.23820527606E+02 0.28431362067E+02 0.33050492223E+02
 0.37191320274E+02 0.40334936653E+02 0.42023079350E+02 0.42026032461E+02 0.40339310529E+02
 0.37191083143E+02 0.33047502177E+02 0.28431709280E+02 0.23826068696E+02 0.19592687405E+02
 0.15934560925E+02 0.12907114389E+02 0.10478375316E+02 0.85965306683E+01 0.72142008819E+01
 0.80138622061E+01 0.73037961987E+01 0.69011726274E+01 0.67029794608E+01 0.66471332535E+01
 0.67075394451E+01 0.68984347173E+01 0.72890615702E+01 0.79971209388E+01 0.91497476555E+01
 0.10840583418E+02 0.13117820582E+02 0.16007405269E+02 0.19536632130E+02 0.23709395100E+02
 0.28422457180E+02 0.33382343171E+02 0.38106074978E+02 0.41998844927E+02 0.44542050764E+02
 0.45426460668E+02 0.44547889679E+02 0.42002075487E+02 0.38106107335E+02 0.33387611525E+02
 0.28433146352E+02 0.23712978378E+02 0.19524701881E+02 0.15986254969E+02 0.13099616891E+02
 0.10833334009E+02 0.91563906207E+01 0.10196136605E+02 0.94180460475E+01 0.90119551043E+01
 0.88340537501E+01 0.87783557800E+01 0.87837764341E+01 0.88412402828E+01 0.90073589814E+01
 0.94018878203E+01 0.10178349817E+02 0.11483131019E+02 0.13421350909E+02 0.16043462263E+02
 0.19360628504E+02 0.23364121663E+02 0.27993665112E+02 0.33045821035E+02 0.38108097469E+02
 0.42575021312E+02 0.45852271718E+02 0.47571147080E+02 0.47574394105E+02 0.45855710105E+02
 0.42572458074E+02 0.38106371756E+02 0.33051519169E+02 0.27998080645E+02 0.23355763330E+02
 0.19344142901E+02 0.16033272265E+02 0.13423813695E+02 0.11495393382E+02 0.12823024799E+02
 0.12087483382E+02 0.11825013639E+02 0.11843429632E+02 0.11954907503E+02 0.12014800536E+02
 0.11963927695E+02 0.11855740344E+02 0.11837679045E+02 0.12097385790E+02 0.12819837907E+02
 0.14168380531E+02 0.16262095562E+02 0.19149261655E+02 0.22809359529E+02 0.27169473557E+02
 0.32071695969E+02 0.37193747606E+02 0.42003155679E+02 0.45855549725E+02 0.48301073850E+02
 0.49135018442E+02 0.48303149718E+02 0.45853115284E+02 0.41997757798E+02 0.37192505313E+02
 0.32071235137E+02 0.27161326687E+02 0.22800715003E+02 0.19157756085E+02 0.16287811735E+02
 0.14190218418E+02 0.15796386112E+02 0.15282401646E+02 0.15403914445E+02 0.15916494116E+02
 0.16516625635E+02 0.16911765315E+02 0.16914660101E+02 0.16523823767E+02 0.15928958256E+02
 0.15425155596E+02 0.15304377297E+02 0.15799985515E+02 0.17078345608E+02 0.19229598458E+02
 0.22257026660E+02 0.26088592218E+02 0.30581035248E+02 0.35473502301E+02 0.40337283127E+02
 0.44546715415E+02 0.47575690889E+02 0.49137122174E+02 0.49138309254E+02 0.47575090096E+02
 0.44541739625E+02 0.40334597547E+02 0.35475754025E+02 0.30580001500E+02 0.26083103434E+02
 0.22261591836E+02 0.19250736457E+02 0.17097508677E+02 0.18902867958E+02 0.18831085038E+02
 0.19621871613E+02 0.20967919193E+02 0.22430396114E+02 0.23547189572E+02 0.23962051089E+02
 0.23537423094E+02 0.22411176150E+02 0.20953121611E+02 0.19629579491E+02 0.18857521063E+02
 0.18924582738E+02 0.19976784164E+02 0.22036983455E+02 0.25034403770E+02 0.28827167449E+02
 0.33186482276E+02 0.37752886677E+02 0.42023723138E+02 0.45426457238E+02 0.47574461205E+02
 0.48305391539E+02 0.47578262397E+02 0.45426460668E+02 0.42020089795E+02 0.37753538822E+02
 0.33192380260E+02 0.28832456806E+02 0.25038706414E+02 0.22041534125E+02 0.19972451129E+02
 0.21842568475E+02 0.22417328879E+02 0.24105633540E+02 0.26502217899E+02 0.31807279385E+02
 0.35825654082E+02 0.38333888510E+02 0.38327350027E+02 0.35803477080E+02 0.31773556076E+02
 0.26477152553E+02 0.24106252088E+02 0.22436774937E+02 0.21861261224E+02 0.22520231677E+02
 0.24342290713E+02 0.27139845587E+02 0.30668414345E+02 0.34612771214E+02 0.38559740626E+02
 0.42021876228E+02 0.44540751018E+02 0.45852876139E+02 0.45857540124E+02 0.44547583591E+02
 0.42021827935E+02 0.38556517608E+02 0.34614533266E+02 0.30674114035E+02 0.27143337074E+02
 0.24340867906E+02 0.22511403086E+02 0.24277742404E+02 0.25629976585E+02 0.28303918666E+02
 0.35259977687E+02 0.43706323062E+02 0.53183687944E+02 0.60950571998E+02 0.63996179782E+02
 0.60967789476E+02 0.53196137915E+02 0.43698191085E+02 0.35237869022E+02 0.28284081168E+02
 0.25621298158E+02 0.24280096704E+02 0.24421191273E+02 0.25864208149E+02 0.28281245841E+02
 0.31321468008E+02 0.34615444799E+02 0.37755244730E+02 0.40333992315E+02 0.41996479938E+02
 0.42572426491E+02 0.42001202980E+02 0.40336358824E+02 0.37753273047E+02 0.34614332152E+02
 0.31322707113E+02 0.28279388217E+02 0.25856435212E+02 0.24412478866E+02 0.25891291760E+02
 0.28049952102E+02 0.33622101321E+02 0.43334465532E+02 0.58516010516E+02 0.78442725361E+02
 0.98839823576E+02 0.11223353288E+03 0.11225514201E+03 0.98886576566E+02 0.78478681097E+02
 0.58520827299E+02 0.43315802781E+02 0.33600040356E+02 0.28037299346E+02 0.25889084151E+02
 0.25437556700E+02 0.26393343844E+02 0.28281055853E+02 0.30670897942E+02 0.33191192761E+02
 0.35476983102E+02 0.37193557617E+02 0.38105312659E+02 0.38103405725E+02 0.37190088093E+02
 0.35475678186E+02 0.33192361806E+02 0.30671256659E+02 0.28278051986E+02 0.26388044507E+02
 0.25433656738E+02 0.26454690808E+02 0.29344293267E+02 0.36764910542E+02 0.50437882746E+02
 0.74383726159E+02 0.11128463782E+03 0.15803466213E+03 0.20066829675E+03 0.21841088353E+03
 0.20066765535E+03 0.15804486810E+03 0.11130733043E+03 0.74404401134E+02 0.50444416168E+02
 0.36760308312E+02 0.29337398407E+02 0.26449053523E+02 0.25435012839E+02 0.25861850096E+02
 0.27139525874E+02 0.28827167449E+02 0.30581972188E+02 0.32076013658E+02 0.33050769729E+02
 0.33382343171E+02 0.33046716180E+02 0.32073186063E+02 0.30582159580E+02 0.28827297111E+02
 0.27138796232E+02 0.25862996802E+02 0.25438967515E+02 0.25888298114E+02 0.29336286019E+02
 0.37911662886E+02 0.54690903291E+02 0.87247857014E+02 0.14572563560E+03 0.23709999248E+03
 0.34802845411E+03 0.43033732330E+03 0.43030905100E+03 0.34797732905E+03 0.23708030289E+03
 0.14574402973E+03 0.87270873430E+02 0.54699427512E+02 0.37914010065E+02 0.29338765640E+02
 0.25885553035E+02 0.24417470168E+02 0.24343338233E+02 0.25033604378E+02 0.26081580301E+02
 0.27165752452E+02 0.27999981038E+02 0.28429037527E+02 0.28429063133E+02 0.28001176249E+02
 0.27167381036E+02 0.26080189358E+02 0.25031293661E+02 0.24346741432E+02 0.24424950451E+02
 0.24281138972E+02 0.28035345961E+02 0.36754633209E+02 0.54693850396E+02 0.92295278624E+02
 0.16903582657E+03 0.31419877129E+03 0.54431972563E+03 0.79708141411E+03 0.91300381476E+03
 0.79704790059E+03 0.54428477074E+03 0.31418146386E+03 0.16902866752E+03 0.92293476587E+02
 0.54703148617E+02 0.36768434129E+02 0.28037489335E+02 0.24274328939E+02 0.22522905263E+02
 0.22045109272E+02 0.22253735848E+02 0.22796916023E+02 0.23361526842E+02 0.23717520917E+02