unknown system                          
    1.000000000000000     
     3.781584    0.000000    0.000000
    -1.890792    3.274948    0.000000
     0.000000    0.000000    6.204766
   Zn   S 
     2     2
Direct
   0.666667  0.333333  0.500401
   0.333333  0.666667  0.000401
   0.666667  0.333333  0.874599
   0.333333  0.666667  0.374599
 
   32   32   56
 0.26927173338E+01 0.27709906182E+01 0.29942990519E+01 0.34050006975E+01 0.39953676291E+01
 0.48431865216E+01 0.59468483747E+01 0.74141825362E+01 0.92367815121E+01 0.11385441139E+02
 0.13999181349E+02 0.16793214866E+02 0.19617404471E+02 0.22380654668E+02 0.24715029374E+02
 0.26292350025E+02 0.26850923883E+02 0.26288217792E+02 0.24757223345E+02 0.22439377353E+02
 0.19661967629E+02 0.16754166804E+02 0.13953352384E+02 0.11415626770E+02 0.92292655315E+01
 0.74177857281E+01 0.59662805848E+01 0.48433307037E+01 0.40003578996E+01 0.33996128675E+01
 0.29963210967E+01 0.27701823599E+01 0.27701823599E+01 0.27668527577E+01 0.29153506841E+01
 0.32066230550E+01 0.36973156875E+01 0.43880777176E+01 0.53588019103E+01 0.65963482724E+01
 0.81799417299E+01 0.10161487826E+02 0.12400894464E+02 0.15000577375E+02 0.17805178625E+02
 0.20500276878E+02 0.22887435754E+02 0.24671830637E+02 0.25632192166E+02 0.25643073221E+02
 0.24652118111E+02 0.22848675395E+02 0.20464076989E+02 0.17769891945E+02 0.15027100841E+02
 0.12442785636E+02 0.10139670994E+02 0.81858609605E+01 0.65932334681E+01 0.53393411956E+01
 0.43883598810E+01 0.36921370235E+01 0.32133920626E+01 0.29114058331E+01 0.29963210967E+01
 0.29297598636E+01 0.29949730494E+01 0.32180770041E+01 0.35905913049E+01 0.41749964801E+01
 0.49837550970E+01 0.61211876540E+01 0.75990113035E+01 0.94349257219E+01 0.11741320764E+02
 0.14336684367E+02 0.17155462080E+02 0.20100900001E+02 0.22849322390E+02 0.25131070484E+02
 0.26639510941E+02 0.27154682430E+02 0.26646793383E+02 0.25148996215E+02 0.22879485382E+02
 0.20126238195E+02 0.17188203215E+02 0.14315814256E+02 0.11703544886E+02 0.94497183988E+01
 0.75938599043E+01 0.61247627160E+01 0.50018323452E+01 0.41761398990E+01 0.35933586070E+01
 0.32133920626E+01 0.33996128675E+01 0.32586774851E+01 0.32623166589E+01 0.33933358892E+01
 0.36951635142E+01 0.41767829183E+01 0.49136429420E+01 0.59170360064E+01 0.72932333928E+01
 0.91200484597E+01 0.11359413610E+02 0.14139964287E+02 0.17337536659E+02 0.20717625861E+02
 0.24085826450E+02 0.27060842787E+02 0.29308672244E+02 0.30533312339E+02 0.30518309913E+02
 0.29302719702E+02 0.27048224998E+02 0.24059565716E+02 0.20697326703E+02 0.17310878717E+02
 0.14152227360E+02 0.11396276159E+02 0.91106839889E+01 0.72976310793E+01 0.59140365450E+01
 0.48955333135E+01 0.41761398990E+01 0.36921370235E+01 0.40003578996E+01 0.37910552208E+01
 0.37209451180E+01 0.37951053631E+01 0.39997883875E+01 0.43864877763E+01 0.49845106302E+01
 0.59112394759E+01 0.72127325404E+01 0.89716416207E+01 0.11333137540E+02 0.14224370972E+02
 0.17684099290E+02 0.21634965217E+02 0.25736952736E+02 0.29660607082E+02 0.32911284877E+02
 0.35052038510E+02 0.35820272573E+02 0.35065744217E+02 0.32914020444E+02 0.29669796036E+02
 0.25764621121E+02 0.21644219004E+02 0.17711988447E+02 0.14217005577E+02 0.11297523352E+02
 0.89758943186E+01 0.72084995159E+01 0.59140365450E+01 0.50018323452E+01 0.43883598810E+01
 0.48433307037E+01 0.45540758629E+01 0.44268195475E+01 0.44193996498E+01 0.45555548231E+01
 0.48441285840E+01 0.53574963264E+01 0.61266851583E+01 0.72933070749E+01 0.89752286336E+01
 0.11243925304E+02 0.14301385929E+02 0.18110452092E+02 0.22546650317E+02 0.27464284448E+02
 0.32380124840E+02 0.36791471392E+02 0.40163889897E+02 0.41969652572E+02 0.41969938660E+02
 0.40151614804E+02 0.36792704284E+02 0.32367107401E+02 0.27444652788E+02 0.22539943568E+02
 0.18083742580E+02 0.14303179341E+02 0.11279216972E+02 0.89758943187E+01 0.72976310793E+01
 0.61247627160E+01 0.53393411955E+01 0.59662805848E+01 0.56039849752E+01 0.54159146719E+01
 0.53673417152E+01 0.54188627646E+01 0.56011082581E+01 0.59490976052E+01 0.65907857822E+01
 0.75993793657E+01 0.91161617362E+01 0.11333346073E+02 0.14299205150E+02 0.18203236244E+02
 0.23067564598E+02 0.28633730899E+02 0.34554337979E+02 0.40233958815E+02 0.44922941562E+02
 0.48027822283E+02 0.49108850979E+02 0.48028533133E+02 0.44930503720E+02 0.40237870621E+02
 0.34560597070E+02 0.28652393924E+02 0.23070829185E+02 0.18229150059E+02 0.14303179341E+02
 0.11297523352E+02 0.91106839889E+01 0.75938599044E+01 0.65932334681E+01 0.74177857281E+01
 0.69865261046E+01 0.67725023312E+01 0.66787841698E+01 0.66815318217E+01 0.67731948472E+01
 0.70053554710E+01 0.74197786234E+01 0.81792242111E+01 0.94388544589E+01 0.11359024143E+02
 0.14226983511E+02 0.18109436110E+02 0.23070313487E+02 0.29110168646E+02 0.35790651955E+02
 0.42580079737E+02 0.48619489835E+02 0.53112713986E+02 0.55514768464E+02 0.55512813062E+02
 0.53115666439E+02 0.48607676379E+02 0.42580050547E+02 0.35786860875E+02 0.29091783521E+02
 0.23070829186E+02 0.18083742580E+02 0.14217005577E+02 0.11396276159E+02 0.94497183989E+01
 0.81858609606E+01 0.92292655316E+01 0.87635598907E+01 0.85616303750E+01 0.85055973733E+01
 0.84918093152E+01 0.84968347091E+01 0.85439548052E+01 0.87603079254E+01 0.92376371979E+01
 0.10157624470E+02 0.11741948189E+02 0.14137210463E+02 0.17684910376E+02 0.22545230361E+02
 0.28633337947E+02 0.35785524950E+02 0.43409110429E+02 0.50594701243E+02 0.56472605915E+02
 0.60281015641E+02 0.61592466598E+02 0.60279695336E+02 0.56474102278E+02 0.50603135913E+02
 0.43408541236E+02 0.35786860875E+02 0.28652393924E+02 0.22539943568E+02 0.17711988447E+02
 0.14152227360E+02 0.11703544886E+02 0.10139670994E+02 0.11415626770E+02 0.10977255132E+02
 0.10890181715E+02 0.10945703571E+02 0.11015760191E+02 0.11026744928E+02 0.10974125888E+02
 0.10892858386E+02 0.10967242222E+02 0.11389186572E+02 0.12400344272E+02 0.14338887733E+02
 0.17337385604E+02 0.21636018144E+02 0.27462965621E+02 0.34561093774E+02 0.42577925840E+02
 0.50611594215E+02 0.57643003533E+02 0.62797315782E+02 0.65479008197E+02 0.65482519987E+02
 0.62794367968E+02 0.57644158154E+02 0.50603135914E+02 0.42580050547E+02 0.34560597070E+02
 0.27444652789E+02 0.21644219005E+02 0.17310878717E+02 0.14315814256E+02 0.12442785636E+02
 0.13953352384E+02 0.13654713068E+02 0.13838046360E+02 0.14229783392E+02 0.14575823867E+02
 0.14691182903E+02 0.14538065954E+02 0.14212414656E+02 0.13852474622E+02 0.13693216416E+02
 0.14001699785E+02 0.14996266225E+02 0.17158615376E+02 0.20712664758E+02 0.25743153904E+02
 0.32370428658E+02 0.40238839880E+02 0.48601251195E+02 0.56473976226E+02 0.62794130854E+02
 0.66807344873E+02 0.68162905610E+02 0.66807576996E+02 0.62794367968E+02 0.56474102279E+02
 0.48607676379E+02 0.40237870622E+02 0.32367107401E+02 0.25764621122E+02 0.20697326703E+02
 0.17188203215E+02 0.15027100841E+02 0.16754166805E+02 0.16776531286E+02 0.17501238467E+02
 0.18521857443E+02 0.19477139668E+02 0.20072487227E+02 0.20100451914E+02 0.19516494806E+02
 0.18522504736E+02 0.17440824085E+02 0.16714680877E+02 0.16797133547E+02 0.17802155261E+02
 0.20105180642E+02 0.24081183453E+02 0.29666529497E+02 0.36789143510E+02 0.44938573763E+02
 0.53113809829E+02 0.60282116596E+02 0.65479173037E+02 0.68166709189E+02 0.68162905610E+02
 0.65482519988E+02 0.60279695336E+02 0.53115666440E+02 0.44930503720E+02 0.36792704285E+02
 0.29669796037E+02 0.24059565717E+02 0.20126238196E+02 0.17769891946E+02 0.19661967630E+02
 0.20245872185E+02 0.21828887986E+02 0.23912883961E+02 0.25853247821E+02 0.27157631328E+02
 0.27604853204E+02 0.27122134506E+02 0.25812774820E+02 0.23977514038E+02 0.21931209542E+02
 0.20187538575E+02 0.19619732803E+02 0.20497248164E+02 0.22852789267E+02 0.27055958730E+02
 0.32915665815E+02 0.40146200523E+02 0.48028115142E+02 0.55512278626E+02 0.61593636427E+02
 0.65479173037E+02 0.66807344873E+02 0.65479008197E+02 0.61592466598E+02 0.55512813062E+02
 0.48028533134E+02 0.40151614805E+02 0.32914020445E+02 0.27048224999E+02 0.22879485382E+02
 0.20464076990E+02 0.22439377354E+02 0.23797537618E+02 0.26525240332E+02 0.31164673437E+02
 0.36134049516E+02 0.40573173204E+02 0.43241663236E+02 0.43254071290E+02 0.40621350257E+02
 0.36122216265E+02 0.31008426513E+02 0.26571206675E+02 0.23873196260E+02 0.22384985631E+02
 0.22881881741E+02 0.25138558223E+02 0.29299846689E+02 0.35072076819E+02 0.41969072003E+02
 0.49111086672E+02 0.55512278626E+02 0.60282116596E+02 0.62794130854E+02 0.62797315782E+02
 0.60281015642E+02 0.55514768464E+02 0.49108850980E+02 0.41969938661E+02 0.35065744218E+02
 0.29302719703E+02 0.25148996216E+02 0.22848675396E+02 0.24757223346E+02 0.27050223436E+02
 0.30941436409E+02 0.39608497170E+02 0.49082415940E+02 0.59204810323E+02 0.67219729134E+02
 0.70332821580E+02 0.67188697280E+02 0.59186493262E+02 0.49210003781E+02 0.39648731411E+02
 0.30807320508E+02 0.27126835205E+02 0.24720350711E+02 0.24664060137E+02 0.26649945583E+02
 0.30513663998E+02 0.35819174697E+02 0.41969072003E+02 0.48028115142E+02 0.53113809828E+02
 0.56473976226E+02 0.57643003533E+02 0.56472605915E+02 0.53112713986E+02 0.48027822284E+02
 0.41969652573E+02 0.35820272574E+02 0.30518309914E+02 0.26646793384E+02 0.24652118112E+02
 0.26288217794E+02 0.29539474390E+02 0.36954104275E+02 0.48568960954E+02 0.65431936841E+02
 0.86526466912E+02 0.10780587353E+03 0.12170273429E+03 0.12173608475E+03 0.10780751977E+03
 0.86455197444E+02 0.65347101423E+02 0.48681593885E+02 0.36920387543E+02 0.29534569583E+02
 0.26308506572E+02 0.25612089395E+02 0.27181985003E+02 0.30513663998E+02 0.35072076819E+02
 0.40146200522E+02 0.44938573762E+02 0.48601251194E+02 0.50611594214E+02 0.50594701243E+02
 0.48619489835E+02 0.44922941562E+02 0.40163889897E+02 0.35052038511E+02 0.30533312340E+02
 0.27154682431E+02 0.25643073222E+02 0.26850923885E+02 0.30830904405E+02 0.40495546537E+02
 0.56534937882E+02 0.83004464711E+02 0.12234334580E+03 0.17207454566E+03 0.21782480548E+03
 0.23710052717E+03 0.21781866627E+03 0.17213700768E+03 0.12240824427E+03 0.82941991723E+02
 0.56542202994E+02 0.40513325733E+02 0.30808838264E+02 0.26879549813E+02 0.25612089395E+02
 0.26649945583E+02 0.29299846689E+02 0.32915665815E+02 0.36789143509E+02 0.40238839880E+02
 0.42577925840E+02 0.43409110428E+02 0.42580079737E+02 0.40233958815E+02 0.36791471392E+02
 0.32911284878E+02 0.29308672244E+02 0.26639510942E+02 0.25632192167E+02 0.26292350027E+02
 0.30834680151E+02 0.41782453388E+02 0.61340637919E+02 0.97412692514E+02 0.16040216273E+03
 0.25945548367E+03 0.38265615092E+03 0.47679238659E+03 0.47675858516E+03 0.38261800094E+03
 0.25939266995E+03 0.16045443181E+03 0.97396449466E+02 0.61322519750E+02 0.41801670391E+02
 0.30808838264E+02 0.26308506572E+02 0.24664060137E+02 0.25138558223E+02 0.27055958730E+02
 0.29666529496E+02 0.32370428658E+02 0.34561093773E+02 0.35785524950E+02 0.35790651954E+02
 0.34554337979E+02 0.32380124840E+02 0.29660607082E+02 0.27060842788E+02 0.25131070485E+02
 0.24671830638E+02 0.24715029376E+02 0.29547561412E+02 0.40489537838E+02 0.61341535890E+02
 0.10305476976E+03 0.18625885318E+03 0.34540898197E+03 0.60607276221E+03 0.90494184417E+03
 0.10464906344E+04 0.90501471856E+03 0.60610191878E+03 0.34538187529E+03 0.18626415212E+03
 0.10309034012E+03 0.61322519751E+02 0.40513325733E+02 0.29534569583E+02 0.24720350711E+02
 0.22881881741E+02 0.22852789267E+02 0.24081183453E+02 0.25743153903E+02 0.27462965620E+02
 0.28633337947E+02 0.29110168646E+02 0.28633730899E+02 0.27464284447E+02 0.25736952736E+02
 0.24085826450E+02 0.22849322391E+02 0.22887435755E+02 0.22380654669E+02 0.27129767729E+02
 0.36911109399E+02 0.56560036751E+02 0.97396700876E+02 0.18629301750E+03 0.38303928826E+03
 0.78729373882E+03 0.14221835774E+04 0.19477304303E+04 0.19476934753E+04 0.14221287688E+04
 0.78733678048E+03 0.38301970186E+03 0.18626415212E+03 0.97396449468E+02 0.56542202995E+02
 0.36920387544E+02 0.27126835205E+02 0.22384985631E+02 0.20497248164E+02 0.20105180642E+02
 0.20712664758E+02 0.21636018143E+02 0.22545230360E+02 0.23070313487E+02 0.23067564597E+02
 0.22546650317E+02 0.21634965217E+02 0.20717625861E+02 0.20100900001E+02 0.20500276879E+02
 0.19617404472E+02 0.23876943417E+02 0.30805489675E+02 0.48691564350E+02 0.82912990280E+02
 0.16045412753E+03 0.34533978732E+03 0.78733807922E+03 0.16659357859E+04 0.25006135104E+04
 0.24638075508E+04 0.25006245932E+04 0.16659306268E+04 0.78733678049E+03 0.34538187530E+03
 0.16045443182E+03 0.82941991727E+02 0.48681593887E+02 0.30807320509E+02 0.23873196260E+02
 0.19619732803E+02 0.17802155261E+02 0.17158615376E+02 0.17337385604E+02 0.17684910375E+02
 0.18109436109E+02 0.18203236243E+02 0.18110452092E+02 0.17684099290E+02 0.17337536659E+02
 0.17155462080E+02 0.17805178626E+02 0.16793214867E+02 0.20190702018E+02 0.26566826560E+02
 0.39647848635E+02 0.65349169831E+02 0.12243437782E+03 0.25941057409E+03 0.60612054938E+03
 0.14221651709E+04 0.25005822242E+04 0.11823993027E+04 0.11824286498E+04 0.25006245932E+04
 0.14221287689E+04 0.60610191880E+03 0.25939266996E+03 0.12240824427E+03 0.65347101426E+02
 0.39648731413E+02 0.26571206676E+02 0.20187538575E+02 0.16797133547E+02 0.14996266225E+02
 0.14338887733E+02 0.14137210462E+02 0.14226983511E+02 0.14299205149E+02 0.14301385929E+02
 0.14224370972E+02 0.14139964287E+02 0.14336684367E+02 0.15000577375E+02 0.13999181350E+02
 0.16716945956E+02 0.21929390595E+02 0.31014233445E+02 0.49202524381E+02 0.86453363829E+02
 0.17209577400E+03 0.38262210818E+03 0.90495690284E+03 0.19476979971E+04 0.24638807674E+04
 0.11823993028E+04 0.24638075507E+04 0.19476934753E+04 0.90501471858E+03 0.38261800096E+03
 0.17213700769E+03 0.86455197451E+02 0.49210003784E+02 0.31008426514E+02 0.21931209543E+02
 0.16714680877E+02 0.14001699785E+02 0.12400344272E+02 0.11741948189E+02 0.11359024143E+02
 0.11333346073E+02 0.11243925304E+02 0.11333137540E+02 0.11359413610E+02 0.11741320764E+02
 0.12400894464E+02 0.11385441139E+02 0.13698502566E+02 0.17436124160E+02 0.23979010088E+02
 0.36123612453E+02 0.59192505074E+02 0.10782667596E+03 0.21783250488E+03 0.47680082521E+03
 0.10465019353E+04 0.19476979971E+04 0.25005822243E+04 0.25006135104E+04 0.19477304303E+04
 0.10464906344E+04 0.47675858519E+03 0.21781866629E+03 0.10780751978E+03 0.59186493266E+02
 0.36122216267E+02 0.23977514039E+02 0.17440824086E+02 0.13693216416E+02 0.11389186573E+02
 0.10157624470E+02 0.94388544588E+01 0.91161617360E+01 0.89752286335E+01 0.89716416206E+01
 0.91200484597E+01 0.94349257219E+01 0.10161487826E+02 0.92367815123E+01 0.10968396395E+02
 0.13849463520E+02 0.18528012983E+02 0.25803680300E+02 0.40622442518E+02 0.67163863753E+02
 0.12174949353E+03 0.23703491206E+03 0.47680082520E+03 0.90495690283E+03 0.14221651709E+04
 0.16659357859E+04 0.14221835774E+04 0.90494184417E+03 0.47679238660E+03 0.23710052719E+03
 0.12173608476E+03 0.67188697285E+02 0.40621350259E+02 0.25812774821E+02 0.18522504737E+02
 0.13852474623E+02 0.10967242222E+02 0.92376371980E+01 0.81792242111E+01 0.75993793656E+01
 0.72933070748E+01 0.72127325403E+01 0.72932333927E+01 0.75990113035E+01 0.81799417300E+01
 0.74141825363E+01 0.87655419242E+01 0.10888022034E+02 0.14215380361E+02 0.19517899457E+02
 0.27128030826E+02 0.43275810820E+02 0.70316151097E+02 0.12174949353E+03 0.21783250487E+03
 0.38262210817E+03 0.60612054936E+03 0.78733807919E+03 0.78729373881E+03 0.60607276221E+03
 0.38265615092E+03 0.21782480549E+03 0.12170273430E+03 0.70332821584E+02 0.43254071293E+02
 0.27122134507E+02 0.19516494807E+02 0.14212414656E+02 0.10892858386E+02 0.87603079256E+01
 0.74197786235E+01 0.65907857822E+01 0.61266851583E+01 0.59112394758E+01 0.59170360064E+01
 0.61211876540E+01 0.65963482725E+01 0.59468483748E+01 0.70088179886E+01 0.85391892590E+01
 0.10983340235E+02 0.14522998664E+02 0.20110020615E+02 0.27564501110E+02 0.43275810820E+02
 0.67163863752E+02 0.10782667596E+03 0.17209577399E+03 0.25941057408E+03 0.34533978730E+03
 0.38303928825E+03 0.34540898196E+03 0.25945548367E+03 0.17207454566E+03 0.10780587354E+03
 0.67219729137E+02 0.43241663237E+02 0.27604853205E+02 0.20100451915E+02 0.14538065954E+02
 0.10974125889E+02 0.85439548055E+01 0.70053554712E+01 0.59490976053E+01 0.53574963265E+01
 0.49845106302E+01 0.49136429420E+01 0.49837550970E+01 0.53588019103E+01 0.48431865216E+01
 0.56013213027E+01 0.67742106025E+01 0.84912172339E+01 0.11036712712E+02 0.14685626258E+02
 0.20110020615E+02 0.27128030825E+02 0.40622442517E+02 0.59192505072E+02 0.86453363824E+02
 0.12243437781E+03 0.16045412751E+03 0.18629301748E+03 0.18625885317E+03 0.16040216272E+03
 0.12234334580E+03 0.86526466913E+02 0.59204810325E+02 0.40573173205E+02 0.27157631329E+02
 0.20072487227E+02 0.14691182904E+02 0.11026744928E+02 0.84968347094E+01 0.67731948474E+01
 0.56011082582E+01 0.48441285841E+01 0.43864877764E+01 0.41767829184E+01 0.41749964801E+01
 0.43880777176E+01 0.39953676292E+01 0.45623138154E+01 0.54088823374E+01 0.66978866226E+01
 0.84698865002E+01 0.11036712712E+02 0.14522998664E+02 0.19517899457E+02 0.25803680299E+02
 0.36123612452E+02 0.49202524379E+02 0.65349169827E+02 0.82912990273E+02 0.97396700868E+02
 0.10305476975E+03 0.97412692509E+02 0.83004464709E+02 0.65431936840E+02 0.49082415941E+02
 0.36134049517E+02 0.25853247821E+02 0.19477139668E+02 0.14575823867E+02 0.11015760192E+02
 0.84918093155E+01 0.66815318219E+01 0.54188627647E+01 0.45555548232E+01 0.39997883875E+01
 0.36951635142E+01 0.35905913049E+01 0.36973156875E+01 0.34050006975E+01 0.37829576959E+01
 0.44328241363E+01 0.53501953664E+01 0.66978866226E+01 0.84912172338E+01 0.10983340235E+02
 0.14215380361E+02 0.18528012983E+02 0.23979010087E+02 0.31014233444E+02 0.39647848632E+02
 0.48691564347E+02 0.56560036748E+02 0.61341535886E+02 0.61340637916E+02 0.56534937880E+02
 0.48568960953E+02 0.39608497170E+02 0.31164673437E+02 0.23912883961E+02 0.18521857443E+02
 0.14229783393E+02 0.10945703571E+02 0.85055973735E+01 0.66787841700E+01 0.53673417154E+01
 0.44193996499E+01 0.37951053632E+01 0.33933358893E+01 0.32180770041E+01 0.32066230550E+01
 0.29942990520E+01 0.32637656675E+01 0.37182797287E+01 0.44328241362E+01 0.54088823374E+01
 0.67742106025E+01 0.85391892589E+01 0.10888022034E+02 0.13849463519E+02 0.17436124159E+02
 0.21929390594E+02 0.26566826559E+02 0.30805489674E+02 0.36911109396E+02 0.40489537836E+02
 0.41782453386E+02 0.40495546535E+02 0.36954104274E+02 0.30941436409E+02 0.26525240331E+02
 0.21828887986E+02 0.17501238467E+02 0.13838046360E+02 0.10890181715E+02 0.85616303751E+01
 0.67725023314E+01 0.54159146720E+01 0.44268195476E+01 0.37209451181E+01 0.32623166589E+01
 0.29949730494E+01 0.29153506841E+01 0.27709906182E+01 0.29254042925E+01 0.32637656675E+01
 0.37829576959E+01 0.45623138154E+01 0.56013213026E+01 0.70088179885E+01 0.87655419240E+01
 0.10968396395E+02 0.13698502565E+02 0.16716945955E+02 0.20190702017E+02 0.23876943416E+02
 0.27129767727E+02 0.29547561411E+02 0.30834680150E+02 0.30830904404E+02 0.29539474388E+02
 0.27050223435E+02 0.23797537618E+02 0.20245872185E+02 0.16776531286E+02 0.13654713068E+02
 0.10977255132E+02 0.87635598908E+01 0.69865261047E+01 0.56039849753E+01 0.45540758629E+01
 0.37910552209E+01 0.32586774852E+01 0.29297598636E+01 0.27668527577E+01 0.25797517428E+01
 0.26527152910E+01 0.28597093454E+01 0.32401737333E+01 0.37858393385E+01 0.45644662000E+01
 0.55748028833E+01 0.69047456113E+01 0.85658514112E+01 0.10491501581E+02 0.12837083046E+02
 0.15350743058E+02 0.17874876110E+02 0.20334562792E+02 0.22406270528E+02 0.23820011104E+02
 0.24321983780E+02 0.23826222560E+02 0.22461375094E+02 0.20389927449E+02 0.17908815779E+02
 0.15307595278E+02 0.12797462622E+02 0.10521477933E+02 0.85502733707E+01 0.69105084661E+01
 0.55903530934E+01 0.45634951217E+01 0.37892004787E+01 0.32352635091E+01 0.28616920772E+01
 0.26519310122E+01 0.26519310122E+01 0.26486417346E+01 0.27832827686E+01 0.30454356731E+01
 0.34851271642E+01 0.41014282565E+01 0.49615363063E+01 0.60543150972E+01 0.74275501114E+01
 0.91556995309E+01 0.11081181904E+02 0.13295681739E+02 0.15680985828E+02 0.17966087574E+02
 0.19989546064E+02 0.21485371984E+02 0.22289768263E+02 0.22293817269E+02 0.21458308848E+02
 0.19941556650E+02 0.17931852302E+02 0.15655552443E+02 0.13326774594E+02 0.11115181681E+02
 0.91345546708E+01 0.74411350397E+01 0.60497716198E+01 0.49464040557E+01 0.41030814561E+01
 0.34813478127E+01 0.30517664777E+01 0.27793628491E+01 0.28616920772E+01 0.28037057841E+01
 0.28603178298E+01 0.30560341648E+01 0.33810359676E+01 0.38876346293E+01 0.45826252680E+01
 0.55490620149E+01 0.68043203657E+01 0.83257517928E+01 0.10232252207E+02 0.12355644499E+02
 0.14632529133E+02 0.16991670831E+02 0.19171302786E+02 0.20986215451E+02 0.22181604591E+02
 0.22592255389E+02 0.22194321098E+02 0.21010604103E+02 0.19210344508E+02 0.17013229591E+02
 0.14654875940E+02 0.12334980131E+02 0.10200377610E+02 0.83400458449E+01 0.67919549341E+01
 0.55527110852E+01 0.45964453640E+01 0.38871846472E+01 0.33824967562E+01 0.30517664777E+01
 0.32352635090E+01 0.31157708145E+01 0.31195247689E+01 0.32293688639E+01 0.34831886872E+01
 0.38858782298E+01 0.44996242898E+01 0.53285257716E+01 0.64436378382E+01 0.79276040995E+01
 0.97087954867E+01 0.11896891710E+02 0.14387663342E+02 0.16991277514E+02 0.19571418267E+02
 0.21821602313E+02 0.23513083784E+02 0.24430478424E+02 0.24416498915E+02 0.23501095006E+02
 0.21801178038E+02 0.19540576388E+02 0.16976666074E+02 0.14365551949E+02 0.11909783626E+02
 0.97404152358E+01 0.79182547389E+01 0.64557596368E+01 0.53261274818E+01 0.44857497250E+01
 0.38871846472E+01 0.34813478126E+01 0.37892004787E+01 0.36202761703E+01 0.35626066614E+01
 0.36238140017E+01 0.37898297678E+01 0.41034099473E+01 0.45836259537E+01 0.53244772701E+01
 0.63643645207E+01 0.77352557379E+01 0.95705124703E+01 0.11782357659E+02 0.14396193317E+02
 0.17348917662E+02 0.20379834513E+02 0.23267273806E+02 0.25655702508E+02 0.27233165278E+02
 0.27798635740E+02 0.27246541530E+02 0.25667331673E+02 0.23281263037E+02 0.20406032120E+02
 0.17360369954E+02 0.14417849633E+02 0.11774942301E+02 0.95399634476E+01 0.77391872224E+01
 0.63523323466E+01 0.53261274818E+01 0.45964453640E+01 0.41030814561E+01 0.45634951217E+01
 0.43407136644E+01 0.42435252782E+01 0.42370250979E+01 0.43406384570E+01 0.45621937924E+01
 0.49592624725E+01 0.55532964328E+01 0.64429302538E+01 0.77391960442E+01 0.94532693482E+01
 0.11750950739E+02 0.14572625853E+02 0.17828658601E+02 0.21405479647E+02 0.24957746742E+02
 0.28152818577E+02 0.30566896659E+02 0.31855997797E+02 0.31854618655E+02 0.30553542982E+02
 0.28143958869E+02 0.24949304936E+02 0.21379898955E+02 0.17819989578E+02 0.14553261232E+02
 0.11750990964E+02 0.94851903973E+01 0.77391872224E+01 0.64557596368E+01 0.55527110852E+01
 0.49464040556E+01 0.55903530933E+01 0.53286412555E+01 0.51952269776E+01 0.51623389617E+01
 0.51992984275E+01 0.53287903311E+01 0.55782490490E+01 0.60502629587E+01 0.68053587232E+01
 0.79238572979E+01 0.95709747624E+01 0.11747444822E+02 0.14595392249E+02 0.18112411229E+02
 0.22091140986E+02 0.26347258879E+02 0.30386665490E+02 0.33744073166E+02 0.36001484544E+02
 0.36791976489E+02 0.36004302962E+02 0.33755468710E+02 0.30392741445E+02 0.26352557353E+02
 0.22118411566E+02 0.18114413661E+02 0.14616993779E+02 0.11750990964E+02 0.95399634476E+01
 0.79182547389E+01 0.67919549341E+01 0.60497716198E+01 0.69105084660E+01 0.66258510402E+01
 0.64968510520E+01 0.64416048258E+01 0.64429299759E+01 0.64936019675E+01 0.66392825783E+01
 0.69084081600E+01 0.74261622103E+01 0.83294017795E+01 0.97080023188E+01 0.11785395931E+02
 0.14572775431E+02 0.18115619051E+02 0.22413186457E+02 0.27154473121E+02 0.31958727892E+02
 0.36307833464E+02 0.39619815842E+02 0.41401507063E+02 0.41399732907E+02 0.39618162372E+02
 0.36297383053E+02 0.31955766580E+02 0.27147735640E+02 0.22390058767E+02 0.18114413661E+02
 0.14553261232E+02 0.11774942301E+02 0.97404152359E+01 0.83400458450E+01 0.74411350397E+01
 0.85502733707E+01 0.82885564929E+01 0.82091306967E+01 0.82152734706E+01 0.82241343786E+01
 0.82115393822E+01 0.81982700427E+01 0.82902171145E+01 0.85681427898E+01 0.91517350335E+01
 0.10233722707E+02 0.11893575009E+02 0.14397445799E+02 0.17823830784E+02 0.22093234469E+02
 0.27146403615E+02 0.32511035441E+02 0.37696445063E+02 0.42051018315E+02 0.44918196791E+02
 0.45924280019E+02 0.44918363225E+02 0.42053920989E+02 0.37703286337E+02 0.32516946500E+02
 0.27147735640E+02 0.22118411567E+02 0.17819989579E+02 0.14417849633E+02 0.11909783626E+02
 0.10200377611E+02 0.91345546709E+01 0.10521477933E+02 0.10354187986E+02 0.10433775609E+02
 0.10581292117E+02 0.10690515174E+02 0.10697151035E+02 0.10600953497E+02 0.10429106516E+02
 0.10333966518E+02 0.10495476435E+02 0.11079117416E+02 0.12359397276E+02 0.14385212514E+02
 0.17353876088E+02 0.21403804024E+02 0.26353768069E+02 0.31958074658E+02 0.37712872590E+02
 0.42911416648E+02 0.46822211981E+02 0.48918975663E+02 0.48921341361E+02 0.46819952860E+02
 0.42911355674E+02 0.37703286337E+02 0.31955766581E+02 0.26352557353E+02 0.21379898955E+02
 0.17360369954E+02 0.14365551949E+02 0.12334980131E+02 0.11115181681E+02 0.12797462622E+02
 0.12851703431E+02 0.13241976475E+02 0.13755328855E+02 0.14160212843E+02 0.14302074588E+02
 0.14131229630E+02 0.13749163255E+02 0.13269571804E+02 0.12889229974E+02 0.12838467045E+02
 0.13293234565E+02 0.14633696697E+02 0.16988913119E+02 0.20379589498E+02 0.24952364007E+02
 0.30388660766E+02 0.36291552294E+02 0.42050334140E+02 0.46820535561E+02 0.49971058210E+02
 0.51066151905E+02 0.49971109650E+02 0.46819952860E+02 0.42053920989E+02 0.36297383054E+02
 0.30392741445E+02 0.24949304936E+02 0.20406032121E+02 0.16976666075E+02 0.14654875941E+02
 0.13326774595E+02 0.15307595279E+02 0.15754837339E+02 0.16732389702E+02 0.17895630606E+02
 0.18917583843E+02 0.19534729058E+02 0.19558734648E+02 0.18943982071E+02 0.17876559284E+02
 0.16671195848E+02 0.15703780725E+02 0.15354150933E+02 0.15678264762E+02 0.16995555623E+02
 0.19568038415E+02 0.23277085375E+02 0.28145669655E+02 0.33762891396E+02 0.39618804731E+02
 0.44921252463E+02 0.48918381985E+02 0.51069377351E+02 0.51066151906E+02 0.48921341361E+02
 0.44918363225E+02 0.39618162372E+02 0.33755468711E+02 0.28143958869E+02 0.23281263038E+02
 0.19540576389E+02 0.17013229591E+02 0.15655552443E+02 0.17908815780E+02 0.18981124673E+02
 0.20856716428E+02 0.23097414326E+02 0.25137695272E+02 0.26488496637E+02 0.26950605613E+02
 0.26460716899E+02 0.25122317225E+02 0.23172081691E+02 0.20943762819E+02 0.18914918734E+02
 0.17879814362E+02 0.17960054374E+02 0.19178016542E+02 0.21809615727E+02 0.25664213137E+02
 0.30549097023E+02 0.36001045226E+02 0.41399960275E+02 0.45923885480E+02 0.48918381985E+02
 0.49971058210E+02 0.48918975663E+02 0.45924280019E+02 0.41399732908E+02 0.36004302962E+02
 0.30553542983E+02 0.25667331674E+02 0.21801178038E+02 0.19210344509E+02 0.17931852303E+02
 0.20389927450E+02 0.22288968903E+02 0.25344044374E+02 0.28833001097E+02 0.34929202808E+02
 0.39260880602E+02 0.41844045015E+02 0.41852381490E+02 0.39289982867E+02 0.34893308136E+02
 0.28687742783E+02 0.25410192225E+02 0.22346094538E+02 0.20340781920E+02 0.19981959790E+02
 0.20997839436E+02 0.23504599479E+02 0.27250173808E+02 0.31857249424E+02 0.36792893838E+02
 0.41399960275E+02 0.44921252463E+02 0.46820535561E+02 0.46822211981E+02 0.44918196791E+02
 0.41401507063E+02 0.36791976489E+02 0.31854618655E+02 0.27246541531E+02 0.23501095007E+02
 0.21010604104E+02 0.19941556651E+02 0.22461375095E+02 0.25322007421E+02 0.29576479668E+02
 0.38074411742E+02 0.47255669468E+02 0.56937789797E+02 0.64555782130E+02 0.67506319062E+02
 0.64538580248E+02 0.56941938448E+02 0.47394262510E+02 0.38079754520E+02 0.29459891374E+02
 0.25398562470E+02 0.22412803422E+02 0.21475432991E+02 0.22189385617E+02 0.24415284215E+02
 0.27794192244E+02 0.31857249424E+02 0.36001045226E+02 0.39618804731E+02 0.42050334140E+02
 0.42911416648E+02 0.42051018315E+02 0.39619815842E+02 0.36001484545E+02 0.31855997798E+02
 0.27798635741E+02 0.24416498916E+02 0.22194321099E+02 0.21458308849E+02 0.23826222561E+02
 0.27655299568E+02 0.35179027395E+02 0.46566227114E+02 0.62700917415E+02 0.82635106612E+02
 0.10248489081E+03 0.11536445031E+03 0.11538447327E+03 0.10247486927E+03 0.82536802716E+02
 0.62645273303E+02 0.46677734304E+02 0.35134163914E+02 0.27668362947E+02 0.23837982556E+02
 0.22272901831E+02 0.22614869421E+02 0.24415284215E+02 0.27250173808E+02 0.30549097023E+02
 0.33762891396E+02 0.36291552294E+02 0.37712872590E+02 0.37696445063E+02 0.36307833464E+02
 0.33744073166E+02 0.30566896659E+02 0.27233165279E+02 0.24430478425E+02 0.22592255390E+02
 0.22293817270E+02 0.24321983782E+02 0.28876004384E+02 0.38528517366E+02 0.54093723771E+02
 0.79212480475E+02 0.11586449965E+03 0.16154634016E+03 0.20317280038E+03 0.22060616890E+03
 0.20317555864E+03 0.16163241726E+03 0.11592041636E+03 0.79136413131E+02 0.54115983096E+02
 0.38527726578E+02 0.28861760303E+02 0.24341672046E+02 0.22272901831E+02 0.22189385617E+02
 0.23504599479E+02 0.25664213137E+02 0.28145669655E+02 0.30388660766E+02 0.31958074658E+02
 0.32511035441E+02 0.31958727891E+02 0.30386665490E+02 0.28152818577E+02 0.25655702508E+02
 0.23513083785E+02 0.22181604592E+02 0.22289768264E+02 0.23820011105E+02 0.28883957344E+02
 0.39743954086E+02 0.58624399917E+02 0.92644217286E+02 0.15082376719E+03 0.24072393828E+03
 0.35069038284E+03 0.43370340388E+03 0.43367198534E+03 0.35063279476E+03 0.24066081021E+03
 0.15088733417E+03 0.92619556661E+02 0.58619688190E+02 0.39760937433E+02 0.28861760303E+02
 0.23837982556E+02 0.21475432991E+02 0.20997839436E+02 0.21809615727E+02 0.23277085375E+02
 0.24952364007E+02 0.26353768069E+02 0.27146403615E+02 0.27154473121E+02 0.26347258879E+02
 0.24957746743E+02 0.23267273806E+02 0.21821602313E+02 0.20986215452E+02 0.21485371985E+02
 0.22406270529E+02 0.27683048521E+02 0.38506794994E+02 0.58638870114E+02 0.97878752599E+02
 0.17443066082E+03 0.31758349088E+03 0.54663218612E+03 0.80458918349E+03 0.92587957037E+03
 0.80467035803E+03 0.54666457358E+03 0.31754928694E+03 0.17444241176E+03 0.97902369177E+02
 0.58619688190E+02 0.38527726579E+02 0.27668362948E+02 0.22412803422E+02 0.19981959790E+02
 0.19178016542E+02 0.19568038414E+02 0.20379589498E+02 0.21403804024E+02 0.22093234469E+02