unknown system                          
    1.000000000000000     
     3.781584    0.000000    0.000000
    -1.890792    3.274948    0.000000
     0.000000    0.000000    6.204766
   Zn   S 
     2     2
Direct
   0.666667  0.333333  0.500401
   0.333333  0.666667  0.000401
   0.666667  0.333333  0.874599
   0.333333  0.666667  0.374599
 
   32   32   56
 0.12497242383E+01 0.15124594858E+01 0.14049419545E+01 0.14345748438E+01 0.77800263723E+00
 0.16006331190E+00 -.62100663412E+00 -.18855776763E+01 -.28614614696E+01 -.45737796627E+01
 -.59622709570E+01 -.74487245225E+01 -.88270946847E+01 -.10169882681E+02 -.11040231329E+02
 -.11814000413E+02 -.11981202626E+02 -.11912493688E+02 -.11294463870E+02 -.10221836888E+02
 -.89291037091E+01 -.74372982833E+01 -.59046904379E+01 -.44136903806E+01 -.30859530108E+01
 -.18501005008E+01 -.88158470677E+00 0.81313439782E-01 0.72492756555E+00 0.13679361551E+01
 0.15045341228E+01 0.14183330920E+01 0.14185351169E+01 0.13181944096E+01 0.16750349585E+01
 0.13477186601E+01 0.12196549755E+01 0.37832744615E+00 -.54820801937E+00 -.11624622503E+01
 -.24977143550E+01 -.32202204030E+01 -.46348804112E+01 -.60475083788E+01 -.74559509683E+01
 -.86886024977E+01 -.99690005509E+01 -.10664308061E+02 -.11145563866E+02 -.11015117267E+02
 -.10540382861E+02 -.97759742266E+01 -.86582266558E+01 -.73927057068E+01 -.60464680914E+01
 -.47138939847E+01 -.33840616615E+01 -.22691056135E+01 -.11568870211E+01 -.31044737030E+00
 0.60224535544E+00 0.11003054754E+01 0.15141228992E+01 0.15445638087E+01 0.15041658387E+01
 0.15518089376E+01 0.14283387788E+01 0.16075100800E+01 0.12013789768E+01 0.10283859078E+01
 0.48956827767E+00 -.77120967001E+00 -.14815545170E+01 -.30042221041E+01 -.41160396264E+01
 -.52941697127E+01 -.65945413571E+01 -.79705290225E+01 -.89692512283E+01 -.10017076820E+02
 -.10586710675E+02 -.10896942600E+02 -.10730267834E+02 -.10078856665E+02 -.91629409039E+01
 -.79779472504E+01 -.66553110621E+01 -.52933083278E+01 -.40601404609E+01 -.28009851757E+01
 -.17703061324E+01 -.68166418003E+00 0.85865460690E-01 0.87411604405E+00 0.12313359496E+01
 0.15138246595E+01 0.13681404847E+01 0.13188534398E+01 0.14511137226E+01 0.12377917471E+01
 0.12497303073E+01 0.65857120436E+00 -.10730286006E+00 -.42202063243E+00 -.17109682301E+01
 -.23693932864E+01 -.35898016707E+01 -.50046146033E+01 -.64624348917E+01 -.78087884773E+01
 -.93906205385E+01 -.10498249940E+02 -.11466501122E+02 -.11914866004E+02 -.11877490340E+02
 -.11394820440E+02 -.10420786918E+02 -.91999688335E+01 -.78235602047E+01 -.64185879766E+01
 -.49599438954E+01 -.37391596155E+01 -.24588597111E+01 -.14545316110E+01 -.38983457426E+00
 0.23564617290E+00 0.87463304162E+00 0.11012857504E+01 0.72568477696E+00 0.97750009916E+00
 0.94255700464E+00 0.99447613803E+00 0.72740636625E+00 0.61283461165E+00 0.51952888953E+00
 -.42686187043E+00 -.91866179924E+00 -.23531797357E+01 -.36571318232E+01 -.48894035184E+01
 -.63090932874E+01 -.80406727752E+01 -.95226086067E+01 -.11241254763E+02 -.12628050689E+02
 -.13489416225E+02 -.13786006709E+02 -.13479335272E+02 -.12703507722E+02 -.11354032492E+02
 -.96835837793E+01 -.79737380119E+01 -.64205183211E+01 -.48297678612E+01 -.35485488536E+01
 -.22460437558E+01 -.13164940107E+01 -.38971791063E+00 0.85832115584E-01 0.60253310666E+00
 0.81025466231E-01 0.16887475167E+00 0.32395690756E+00 0.24303510842E+00 0.20762424747E+00
 0.39415405604E-01 -.60416778946E+00 -.71178499786E+00 -.17058244221E+01 -.22703263187E+01
 -.32628087482E+01 -.47792735372E+01 -.64917098911E+01 -.82242783784E+01 -.10355562748E+02
 -.12434753504E+02 -.13865583876E+02 -.14653146143E+02 -.15095199563E+02 -.15146041230E+02
 -.14649546818E+02 -.13767720012E+02 -.12303712075E+02 -.10306669884E+02 -.81861994905E+01
 -.64626041255E+01 -.47523041800E+01 -.34766040847E+01 -.22464567914E+01 -.14542288887E+01
 -.68153919383E+00 -.31170709881E+00 -.88351257719E+00 -.64089743824E+00 -.53788260954E+00
 -.47047805454E+00 -.51076106866E+00 -.73734602370E+00 -.55994927308E+00 -.11683780571E+01
 -.15088897642E+01 -.24690505673E+01 -.37100342213E+01 -.47876403242E+01 -.63755158837E+01
 -.83442450554E+01 -.10664737330E+02 -.12926967525E+02 -.14393428356E+02 -.15966128616E+02
 -.17384663696E+02 -.17881361441E+02 -.17344476747E+02 -.15981881969E+02 -.14539502895E+02
 -.12939286759E+02 -.10790877009E+02 -.83215783872E+01 -.64808141605E+01 -.47525114895E+01
 -.35494846170E+01 -.24588486765E+01 -.17685555231E+01 -.11578141480E+01 -.18524692642E+01
 -.16892787143E+01 -.15432085159E+01 -.15266300082E+01 -.14981620611E+01 -.13612164482E+01
 -.18771706306E+01 -.19330032364E+01 -.24967871609E+01 -.29174528294E+01 -.35208649018E+01
 -.48250903822E+01 -.65015924860E+01 -.83552819165E+01 -.11010263356E+02 -.13312892298E+02
 -.15192416768E+02 -.17740902650E+02 -.20438540727E+02 -.22268299321E+02 -.22246665240E+02
 -.20490523949E+02 -.17648451534E+02 -.15151144380E+02 -.13235457736E+02 -.10952376994E+02
 -.83209172776E+01 -.64619701823E+01 -.48307389763E+01 -.37404708556E+01 -.27988729888E+01
 -.22674255289E+01 -.30864806193E+01 -.28878416851E+01 -.27887344024E+01 -.27098313214E+01
 -.27277880254E+01 -.29880598434E+01 -.27006580996E+01 -.28276852125E+01 -.28317873421E+01
 -.32463449966E+01 -.42363794031E+01 -.50289245415E+01 -.63560538654E+01 -.81995394788E+01
 -.10694122202E+02 -.13214365408E+02 -.15327089892E+02 -.18836103488E+02 -.23135141241E+02
 -.26444663697E+02 -.27717921903E+02 -.26450730515E+02 -.23155796514E+02 -.18847463738E+02
 -.15420357059E+02 -.13235872146E+02 -.10790756782E+02 -.81848783136E+01 -.64203673087E+01
 -.49620516099E+01 -.40599676366E+01 -.33809844226E+01 -.44118696499E+01 -.43337559593E+01
 -.43155480646E+01 -.43857786175E+01 -.43825532852E+01 -.41133851187E+01 -.43285425919E+01
 -.42687823962E+01 -.44700878306E+01 -.45927626880E+01 -.45070607912E+01 -.52416343695E+01
 -.64614086250E+01 -.79942420147E+01 -.10367658699E+02 -.12980849142E+02 -.15205379794E+02
 -.18896912826E+02 -.24112247501E+02 -.29019349233E+02 -.31837078911E+02 -.31842765606E+02
 -.28961698602E+02 -.24151700364E+02 -.18847335883E+02 -.15151803520E+02 -.12939948370E+02
 -.10305875117E+02 -.79725290741E+01 -.64201655486E+01 -.52949954581E+01 -.47119062818E+01
 -.59026432563E+01 -.59818711720E+01 -.61716020578E+01 -.64010109347E+01 -.67201019151E+01
 -.71101562931E+01 -.68485436411E+01 -.65834219142E+01 -.61381051259E+01 -.57719915801E+01
 -.60615544020E+01 -.61520729128E+01 -.65740198665E+01 -.78350156139E+01 -.95885427831E+01
 -.12310142649E+02 -.14452376768E+02 -.17638467071E+02 -.23157738481E+02 -.28962302530E+02
 -.33329592433E+02 -.34837177454E+02 -.33376954002E+02 -.28961335333E+02 -.23155097187E+02
 -.17648521834E+02 -.14540419322E+02 -.12303948733E+02 -.96820675564E+01 -.78234923763E+01
 -.66573553737E+01 -.60463779551E+01 -.74364411834E+01 -.77492955630E+01 -.82701386337E+01
 -.89441728561E+01 -.94977307195E+01 -.95774025458E+01 -.96774098594E+01 -.92905324545E+01
 -.88152422688E+01 -.85115445004E+01 -.76722684259E+01 -.73078481480E+01 -.74470521450E+01
 -.79826187786E+01 -.92671866009E+01 -.11369388180E+02 -.13821376621E+02 -.16025098992E+02
 -.20455607510E+02 -.26478328240E+02 -.31842121200E+02 -.34881719578E+02 -.34837406275E+02
 -.31842800712E+02 -.26449946899E+02 -.20489555205E+02 -.15982305943E+02 -.13768508936E+02
 -.11353276823E+02 -.91988985580E+01 -.79790770014E+01 -.73935535073E+01 -.89292755026E+01
 -.95371222363E+01 -.10451998852E+02 -.11610653571E+02 -.13059313876E+02 -.14324813937E+02
 -.14637951059E+02 -.14278959337E+02 -.13249126431E+02 -.11510637554E+02 -.10399478857E+02
 -.96690234592E+01 -.88691902621E+01 -.86719142877E+01 -.90807540829E+01 -.10436766440E+02
 -.12623283072E+02 -.14639524652E+02 -.17340623443E+02 -.22258666374E+02 -.27685873370E+02
 -.31842057081E+02 -.33329839514E+02 -.31837836608E+02 -.27718054191E+02 -.22245765068E+02
 -.17344504162E+02 -.14650049873E+02 -.12703729930E+02 -.10419643267E+02 -.91631016289E+01
 -.86590063513E+01 -.10222225950E+02 -.11184009890E+02 -.12615368531E+02 -.15036909604E+02
 -.17008977392E+02 -.18060567831E+02 -.18849097462E+02 -.18842442412E+02 -.18061616723E+02
 -.16952862837E+02 -.15045751104E+02 -.12627340977E+02 -.11194547526E+02 -.10231456672E+02
 -.98455980272E+01 -.10065929729E+02 -.11454395232E+02 -.13513279842E+02 -.15118830734E+02
 -.17907024883E+02 -.22258204323E+02 -.26477564812E+02 -.28962010205E+02 -.29020215353E+02
 -.26445565082E+02 -.22268292328E+02 -.17880981397E+02 -.15146329982E+02 -.13480056867E+02
 -.11394126654E+02 -.10078577261E+02 -.97762900218E+01 -.11294684865E+02 -.12561531017E+02
 -.15099940049E+02 -.18044695152E+02 -.20031340821E+02 -.22816375243E+02 -.24277907406E+02
 -.24799895027E+02 -.24307933075E+02 -.22593704167E+02 -.20177781816E+02 -.17862431582E+02
 -.15067612252E+02 -.12621857236E+02 -.11175283462E+02 -.10609725208E+02 -.10624906219E+02
 -.11889107181E+02 -.13768168475E+02 -.15119068926E+02 -.17341063557E+02 -.20454908382E+02
 -.23156400362E+02 -.24111848568E+02 -.23135763983E+02 -.20438825674E+02 -.17384319898E+02
 -.15095277931E+02 -.13786621332E+02 -.11877338038E+02 -.10729868670E+02 -.10540524659E+02
 -.11912556252E+02 -.13699635105E+02 -.17192320552E+02 -.19767198390E+02 -.23588940191E+02
 -.26420858330E+02 -.27896183921E+02 -.28843720170E+02 -.28684479796E+02 -.28228545049E+02
 -.26498720135E+02 -.23575728794E+02 -.19991644440E+02 -.16991950867E+02 -.13841552625E+02
 -.11849359598E+02 -.11097192406E+02 -.10920337722E+02 -.11888854173E+02 -.13513431145E+02
 -.14640258429E+02 -.16025876915E+02 -.17638193774E+02 -.18896160305E+02 -.18835944448E+02
 -.17741011115E+02 -.15965791399E+02 -.14652970674E+02 -.13489903683E+02 -.11914972510E+02
 -.10896576840E+02 -.11015059998E+02 -.11981069577E+02 -.14534045960E+02 -.18195697226E+02
 -.21479489328E+02 -.26223601425E+02 -.28860878133E+02 -.31182714219E+02 -.32330712449E+02
 -.32979859299E+02 -.32202142063E+02 -.30879749178E+02 -.28941286737E+02 -.26027882427E+02
 -.21614695547E+02 -.18111552077E+02 -.14533951995E+02 -.11943315506E+02 -.11097326345E+02
 -.10624709279E+02 -.11453285966E+02 -.12623318691E+02 -.13822584534E+02 -.14453115549E+02
 -.15205427646E+02 -.15327102278E+02 -.15192740661E+02 -.14393234918E+02 -.13865105834E+02
 -.12628249058E+02 -.11467021471E+02 -.10586379715E+02 -.11145454678E+02 -.11813604320E+02
 -.14469528100E+02 -.18614965525E+02 -.22334782866E+02 -.27488563944E+02 -.30311553028E+02
 -.33227296503E+02 -.35103113033E+02 -.36125110796E+02 -.36266297995E+02 -.35365844771E+02
 -.33217629247E+02 -.30492328628E+02 -.27396300028E+02 -.22455189284E+02 -.18576014554E+02
 -.14534295772E+02 -.11849754786E+02 -.10610077161E+02 -.10065518437E+02 -.10434878182E+02
 -.11369040276E+02 -.12310978470E+02 -.12981139911E+02 -.13214482566E+02 -.13313578779E+02
 -.12927286273E+02 -.12434099839E+02 -.11240898855E+02 -.10498959938E+02 -.10017097632E+02
 -.10664204456E+02 -.11039949108E+02 -.13959003943E+02 -.18070571595E+02 -.22515492273E+02
 -.27857546075E+02 -.31360043471E+02 -.34985840800E+02 -.37346810734E+02 -.39179347113E+02
 -.39467828101E+02 -.38873388739E+02 -.37374604255E+02 -.34820231440E+02 -.31350276499E+02
 -.27823514543E+02 -.22455107368E+02 -.18111356070E+02 -.13842432544E+02 -.11175670321E+02
 -.98457592676E+01 -.90802694632E+01 -.92658873346E+01 -.95878034511E+01 -.10367001157E+02
 -.10693621327E+02 -.11010741349E+02 -.10665871909E+02 -.10355447426E+02 -.95218481612E+01
 -.93910341147E+01 -.89698804531E+01 -.99692250121E+01 -.10170100746E+02 -.12710243016E+02
 -.16910161396E+02 -.21607956783E+02 -.27393153613E+02 -.31276452118E+02 -.35236950946E+02
 -.38371073364E+02 -.40536068770E+02 -.41687356137E+02 -.41867741922E+02 -.40610747063E+02
 -.38431415721E+02 -.35307999912E+02 -.31350262406E+02 -.27396349638E+02 -.21614380512E+02
 -.16991775077E+02 -.12622904098E+02 -.10231518185E+02 -.86718046210E+01 -.79833405019E+01
 -.78352904080E+01 -.79940305324E+01 -.81974918908E+01 -.83538604039E+01 -.83449378459E+01
 -.82251191956E+01 -.80396696673E+01 -.78083551858E+01 -.79710841381E+01 -.86893186980E+01
 -.88286118517E+01 -.11317233671E+02 -.14871567799E+02 -.20235017897E+02 -.25896284009E+02
 -.30580387710E+02 -.34913866956E+02 -.38434242603E+02 -.41402099432E+02 -.42823327324E+02
 -.43326164702E+02 -.42817960826E+02 -.41281898216E+02 -.38431474309E+02 -.34820275472E+02
 -.30492161940E+02 -.26028047871E+02 -.19991078712E+02 -.15067584077E+02 -.11194842224E+02
 -.88680795016E+01 -.74472420775E+01 -.65761846598E+01 -.64639684480E+01 -.63559908227E+01
 -.64995700915E+01 -.63749990837E+01 -.64928653177E+01 -.63090636601E+01 -.64611977902E+01
 -.65942940296E+01 -.74565904574E+01 -.74503196072E+01 -.95166454106E+01 -.12705854659E+02
 -.17825074591E+02 -.23467598839E+02 -.29047017641E+02 -.33029059888E+02 -.37447396199E+02
 -.40448312734E+02 -.42856836266E+02 -.44037271573E+02 -.43963537855E+02 -.42817929925E+02
 -.40610913547E+02 -.37374736944E+02 -.33217755699E+02 -.28941200024E+02 -.23576095683E+02
 -.17862416713E+02 -.12627783261E+02 -.96672235016E+01 -.73054873597E+01 -.61522467438E+01
 -.52442122777E+01 -.50323621594E+01 -.48250500345E+01 -.47866313450E+01 -.47797084610E+01
 -.48905557772E+01 -.50038688622E+01 -.52932732086E+01 -.60472488495E+01 -.59628793730E+01
 -.76903543044E+01 -.10496652734E+02 -.14966852753E+02 -.20300680371E+02 -.26448719849E+02
 -.31020603924E+02 -.35284787911E+02 -.39024287590E+02 -.41852607066E+02 -.43201356815E+02
 -.44037386527E+02 -.43326188195E+02 -.41867660048E+02 -.38873530311E+02 -.35365804245E+02
 -.30879784511E+02 -.26498636855E+02 -.20178323514E+02 -.15046840918E+02 -.10399806405E+02
 -.76686934230E+01 -.60588691865E+01 -.45064453876E+01 -.42372357787E+01 -.35219435445E+01
 -.37098970772E+01 -.32631681528E+01 -.36584734916E+01 -.35902058304E+01 -.41151446887E+01
 -.46333226011E+01 -.45724387321E+01 -.58526706250E+01 -.83864690911E+01 -.11541311338E+02
 -.16935289852E+02 -.22611914630E+02 -.28064206603E+02 -.32281723883E+02 -.36173920734E+02
 -.39426536773E+02 -.41852499669E+02 -.42856801302E+02 -.42823448546E+02 -.41687463413E+02
 -.39467837881E+02 -.36266412796E+02 -.32202312357E+02 -.28228298926E+02 -.22593528457E+02
 -.16953665569E+02 -.11512865642E+02 -.85118593895E+01 -.57695851912E+01 -.45920489808E+01
 -.32449833659E+01 -.29154994284E+01 -.24678525471E+01 -.22699875716E+01 -.23537739996E+01
 -.23701590088E+01 -.30043098906E+01 -.32186672816E+01 -.28585435759E+01 -.44658714331E+01
 -.60891605908E+01 -.89599297994E+01 -.13148199178E+02 -.18092925692E+02 -.24365499435E+02
 -.28721231519E+02 -.33014007416E+02 -.36173732404E+02 -.39024621860E+02 -.40448342076E+02
 -.41402074552E+02 -.40535878553E+02 -.39179215106E+02 -.36125025630E+02 -.32979912573E+02
 -.28684192835E+02 -.24307957470E+02 -.18060808697E+02 -.13248793427E+02 -.88185265306E+01
 -.61386015886E+01 -.44714800971E+01 -.28352795071E+01 -.24956473259E+01 -.15049953637E+01
 -.17042194310E+01 -.91832928497E+00 -.17117357895E+01 -.14832193641E+01 -.24973154969E+01
 -.18840048040E+01 -.28368271288E+01 -.43331116982E+01 -.64752815671E+01 -.93596222484E+01
 -.14301225507E+02 -.18814604073E+02 -.24813639193E+02 -.28721257501E+02 -.32282003870E+02
 -.35284708194E+02 -.37447446869E+02 -.38434349920E+02 -.38371137497E+02 -.37346758986E+02
 -.35103163926E+02 -.32330679016E+02 -.28843739336E+02 -.24800022867E+02 -.18841372602E+02
 -.14277931884E+02 -.92891007996E+01 -.65829025799E+01 -.42704622090E+01 -.28329278163E+01
 -.19374170698E+01 -.11670327816E+01 -.71049509965E+00 -.42743272809E+00 -.42213513750E+00
 -.77209182620E+00 -.11646361438E+01 -.62245653535E+00 -.18720908101E+01 -.26301041409E+01
 -.44579294502E+01 -.67352588730E+01 -.96785288397E+01 -.14625100980E+02 -.18814644437E+02
 -.24365450728E+02 -.28064052861E+02 -.31020654940E+02 -.33029159047E+02 -.34913983200E+02
 -.35236920199E+02 -.34985728219E+02 -.33227242453E+02 -.31182633594E+02 -.27896289775E+02
 -.24278092074E+02 -.18849679451E+02 -.14638227936E+02 -.96754268973E+01 -.68456213891E+01
 -.43249843342E+01 -.27010421039E+01 -.18812142500E+01 -.55986637726E+00 -.60328484447E+00
 0.51699005172E+00 -.10811742660E+00 0.49119726619E+00 -.55015354771E+00 0.15765241720E+00
 -.73890333637E+00 -.14830761127E+01 -.27857524582E+01 -.43035491691E+01 -.70557802040E+01
 -.96784372155E+01 -.14301223665E+02 -.18093015025E+02 -.22611990017E+02 -.26448720905E+02
 -.29046935968E+02 -.30580178562E+02 -.31276268633E+02 -.31360047421E+02 -.30311592876E+02
 -.28860941642E+02 -.26420989204E+02 -.22816344579E+02 -.18061446668E+02 -.14326111893E+02
 -.95793302116E+01 -.71103037241E+01 -.41091497743E+01 -.29843497523E+01 -.13606454031E+01
 -.73693306729E+00 0.42398964408E-01 0.61228997451E+00 0.65678889788E+00 0.10310899064E+01
 0.37886380684E+00 0.77694542064E+00 0.16153542109E+00 -.46366265290E+00 -.15522156186E+01
 -.26918323931E+01 -.43033941823E+01 -.67351331228E+01 -.93598483646E+01 -.13148339746E+02
 -.16935150196E+02 -.20300560144E+02 -.23467462277E+02 -.25896446314E+02 -.27393314469E+02
 -.27857600906E+02 -.27488469728E+02 -.26223514562E+02 -.23588518756E+02 -.20030789306E+02
 -.17008216819E+02 -.13059261269E+02 -.94998665939E+01 -.67237110431E+01 -.43855251933E+01
 -.27274576642E+01 -.14969745123E+01 -.51041567592E+00 0.20991464495E+00 0.72907399561E+00
 0.12478973982E+01 0.12019787927E+01 0.12221206420E+01 0.14346899517E+01 0.86037039629E+00
 0.31291374780E+00 -.48578488907E+00 -.15526980476E+01 -.27856418484E+01 -.44569021349E+01
 -.64747565938E+01 -.89605109604E+01 -.11542285210E+02 -.14967243057E+02 -.17824987405E+02
 -.20234787531E+02 -.21607763681E+02 -.22515491128E+02 -.22334869300E+02 -.21479785749E+02
 -.19767586362E+02 -.18044622630E+02 -.15036028271E+02 -.11609110916E+02 -.89421610923E+01
 -.64004997769E+01 -.43879843456E+01 -.27130831387E+01 -.15287789949E+01 -.47087865126E+00
 0.24328799438E+00 0.99461776844E+00 0.12363425552E+01 0.16062050157E+01 0.13488616520E+01
 0.14055453905E+01 0.14702713997E+01 0.94914550439E+00 0.31308244763E+00 -.46459686487E+00
 -.14846458969E+01 -.26304858525E+01 -.43315208291E+01 -.60872159269E+01 -.83858325919E+01
 -.10497366708E+02 -.12706894862E+02 -.14872397718E+02 -.16910321801E+02 -.18070379743E+02
 -.18614735382E+02 -.18195612637E+02 -.17192588783E+02 -.15100700757E+02 -.12616099663E+02
 -.10452394643E+02 -.82692140372E+01 -.61689303803E+01 -.43128342890E+01 -.27885730283E+01
 -.15452892991E+01 -.53932945711E+00 0.32457657622E+00 0.94257581078E+00 0.14503001334E+01
 0.14284359275E+01 0.16751384778E+01 0.15121644723E+01 0.13682379968E+01 0.14703225392E+01
 0.86160014596E+00 0.16254206446E+00 -.73933739504E+00 -.18743817349E+01 -.28388136859E+01
 -.44654816538E+01 -.58507087012E+01 -.76880793251E+01 -.95160150320E+01 -.11317721224E+02
 -.12710978780E+02 -.13959605673E+02 -.14469524991E+02 -.14533800637E+02 -.13699427140E+02
 -.12561347223E+02 -.11184155831E+02 -.95381283186E+01 -.77508280514E+01 -.59822115862E+01
 -.43315573212E+01 -.28848781180E+01 -.16882282132E+01 -.64169572204E+00 0.16855989325E+00
 0.97784570969E+00 0.13186950498E+01 0.15520886742E+01 0.13181928833E+01 0.13644157962E+01
 0.16071741368E+01 0.15656691008E+01 0.15262479782E+01 0.93482564952E+00 0.32073609987E+00
 -.37674205732E+00 -.15997822852E+01 -.24975250588E+01 -.40982222623E+01 -.54459512157E+01
 -.67741642983E+01 -.80930501681E+01 -.93796002357E+01 -.10248112549E+02 -.10958192235E+02
 -.11112346734E+02 -.11014807736E+02 -.10423341083E+02 -.94150948741E+01 -.81988406390E+01
 -.67765195104E+01 -.53546521177E+01 -.39618178200E+01 -.27199385080E+01 -.15727964476E+01
 -.68225306763E+00 0.24626115068E+00 0.88403624878E+00 0.15010960000E+01 0.16155270884E+01
 0.15451204615E+01 0.15458613362E+01 0.14451826328E+01 0.17390852126E+01 0.15032559547E+01
 0.13215618154E+01 0.56547110677E+00 -.34508870186E+00 -.85011362248E+00 -.20818071493E+01
 -.27306946528E+01 -.39712064265E+01 -.53528535348E+01 -.66095368258E+01 -.77030370877E+01
 -.88130756719E+01 -.94488530878E+01 -.98771628095E+01 -.97687790044E+01 -.93540422543E+01
 -.86868973014E+01 -.76847720635E+01 -.65682139363E+01 -.53165052379E+01 -.40858567128E+01
 -.28829484570E+01 -.18598742455E+01 -.84097018098E+00 -.77189067098E-01 0.75861033681E+00
 0.12252424541E+01 0.16260110910E+01 0.16324148383E+01 0.16148159252E+01 0.16776671291E+01
 0.15811521114E+01 0.16519493195E+01 0.13323799197E+01 0.11739761162E+01 0.75975545011E+00
 -.43312429746E+00 -.10485380300E+01 -.24106682730E+01 -.34575685744E+01 -.43745592587E+01
 -.55447653436E+01 -.67550353877E+01 -.76209158452E+01 -.84763693031E+01 -.89483147740E+01
 -.92259495343E+01 -.90940060009E+01 -.85252630476E+01 -.77482485748E+01 -.67081844806E+01
 -.56084622857E+01 -.44403037719E+01 -.33352738187E+01 -.22391917865E+01 -.13204053337E+01
 -.33976261545E+00 0.34938096170E+00 0.10368831252E+01 0.13408982695E+01 0.16252080870E+01
 0.15007805801E+01 0.14722793435E+01 0.15783436213E+01 0.14129639054E+01 0.13769569256E+01
 0.84841226415E+00 0.12720465423E+00 -.46771640565E-01 -.11966234635E+01 -.17506972565E+01
 -.27316516507E+01 -.40589474206E+01 -.52477596150E+01 -.63117015701E+01 -.75500634666E+01
 -.84819201184E+01 -.92437489067E+01 -.95221181134E+01 -.94690098847E+01 -.91485081347E+01
 -.84189332144E+01 -.74890332795E+01 -.63373666336E+01 -.51706998315E+01 -.39964453081E+01
 -.29317703457E+01 -.18317563855E+01 -.94422911715E+00 -.27958054052E-01 0.50035475865E+00
 0.10373019147E+01 0.12262789045E+01 0.88530542760E+00 0.11131216093E+01 0.11245754535E+01
 0.11172602801E+01 0.87303689933E+00 0.75001099088E+00 0.79675973938E+00 -.57170849300E-01
 -.42614691099E+00 -.16631595249E+01 -.28906119833E+01 -.37609379068E+01 -.49400420043E+01
 -.62898430421E+01 -.75002679376E+01 -.86942746610E+01 -.95898633219E+01 -.10334633783E+02
 -.10643456291E+02 -.10350848240E+02 -.97167457816E+01 -.86893337526E+01 -.75755289521E+01
 -.62755280347E+01 -.50211047210E+01 -.37678962675E+01 -.26861677240E+01 -.15815448114E+01
 -.78386917487E+00 -.27576086815E-01 0.35016208881E+00 0.75881667152E+00 0.24571939118E+00
 0.32695483085E+00 0.47513874514E+00 0.38144280368E+00 0.39572425828E+00 0.21576824901E+00
 -.36563928926E+00 -.36239604736E+00 -.11539758251E+01 -.16049780639E+01 -.22900165984E+01
 -.36908124803E+01 -.50180840921E+01 -.63285987051E+01 -.78795564070E+01 -.92342375983E+01
 -.10729458934E+02 -.11753556655E+02 -.12207478441E+02 -.12255043094E+02 -.11678657957E+02
 -.10678351321E+02 -.92397659345E+01 -.77924352518E+01 -.63326069847E+01 -.49484079635E+01
 -.36407022506E+01 -.25759388988E+01 -.15817985529E+01 -.94400149246E+00 -.33941234532E+00
 -.78361728359E-01 -.68444804510E+00 -.44779179437E+00 -.40751134132E+00 -.28921628706E+00
 -.40341988838E+00 -.57206516294E+00 -.36330443521E+00 -.87966023081E+00 -.10866891877E+01
 -.18442094494E+01 -.29045939420E+01 -.36491744319E+01 -.47857894766E+01 -.64120354831E+01
 -.78986532025E+01 -.97755586429E+01 -.11513287823E+02 -.12686089240E+02 -.13392110042E+02
 -.13555765197E+02 -.13401200906E+02 -.12706965376E+02 -.11541217294E+02 -.97913636483E+01
 -.79863685963E+01 -.63861988637E+01 -.49183325622E+01 -.36409748830E+01 -.26876670262E+01
 -.18317122983E+01 -.13188158056E+01 -.84209571143E+00 -.15750221591E+01 -.14687751582E+01
 -.13624227486E+01 -.13991695883E+01 -.13136994399E+01 -.11764503624E+01 -.16415555989E+01
 -.16490978537E+01 -.20657747424E+01 -.23607318466E+01 -.26527605849E+01 -.37764472879E+01
 -.50166642510E+01 -.64043697818E+01 -.81106095158E+01 -.10149358129E+02 -.12105685265E+02
 -.13348614345E+02 -.14240311609E+02 -.14845108373E+02 -.14794087307E+02 -.14271315178E+02
 -.13345458023E+02 -.12063206135E+02 -.10112766893E+02 -.80636780860E+01 -.63855928009E+01
 -.49476310945E+01 -.37688102185E+01 -.29331026708E+01 -.22371008144E+01 -.18582448996E+01
 -.27201632540E+01 -.25969612013E+01 -.25894639858E+01 -.25076639932E+01 -.25905967327E+01
 -.28178097212E+01 -.25026939323E+01 -.25651711962E+01 -.24867600723E+01 -.27623765940E+01
 -.35449888589E+01 -.40844150588E+01 -.49070339524E+01 -.63640655272E+01 -.79001812867E+01
 -.10114525108E+02 -.12164560292E+02 -.13659084108E+02 -.15061610807E+02 -.16118084087E+02
 -.16623316243E+02 -.16131906204E+02 -.15022177540E+02 -.13665196012E+02 -.12233946185E+02
 -.10113256333E+02 -.79860229233E+01 -.63311698054E+01 -.50211434145E+01 -.39985536548E+01
 -.33347219783E+01 -.28801804518E+01 -.39604019189E+01 -.39761455822E+01 -.40425737558E+01
 -.42009813233E+01 -.42163879869E+01 -.39495639719E+01 -.41092942678E+01 -.39717767245E+01
 -.40787778220E+01 -.41175258637E+01 -.38533644514E+01 -.43708627208E+01 -.52537209429E+01
 -.63005088211E+01 -.78330916421E+01 -.98200983663E+01 -.12096431877E+02 -.13697918216E+02
 -.15305732824E+02 -.17039365906E+02 -.18101120358E+02 -.18138580126E+02 -.17029831501E+02
 -.15345073204E+02 -.13665171699E+02 -.12064044554E+02 -.97921896670E+01 -.77915596300E+01
 -.62740270845E+01 -.51722931191E+01 -.44420009062E+01 -.40838187280E+01 -.53526646312E+01
 -.55505076985E+01 -.58473038955E+01 -.61506764884E+01 -.65169190904E+01 -.69259284490E+01
 -.66614342382E+01 -.63734932375E+01 -.58228123389E+01 -.53472230693E+01 -.55042538353E+01
 -.54413015197E+01 -.54972559494E+01 -.63358536445E+01 -.75022085966E+01 -.92517197089E+01
 -.11475981269E+02 -.13348628338E+02 -.15033181144E+02 -.17022723805E+02 -.18762753089E+02
 -.19446585355E+02 -.18725210835E+02 -.17029862249E+02 -.15021824751E+02 -.13345534996E+02
 -.11542490323E+02 -.92399368509E+01 -.75742165952E+01 -.63372507362E+01 -.56105138292E+01
 -.53165382783E+01 -.67756134494E+01 -.72614784998E+01 -.78794676157E+01 -.87060782256E+01
 -.92872733261E+01 -.94020802040E+01 -.94824334140E+01 -.90654806974E+01 -.85873743337E+01
 -.81488522614E+01 -.72134269429E+01 -.66265314244E+01 -.66342477894E+01 -.67273805485E+01
 -.75376386419E+01 -.87004766558E+01 -.10719401458E+02 -.12727985306E+02 -.14232543361E+02
 -.16165146117E+02 -.18098562588E+02 -.19449332594E+02 -.19446873454E+02 -.18138613594E+02
 -.16131675386E+02 -.14270946542E+02 -.12707470492E+02 -.10679192545E+02 -.86884563702E+01
 -.74879171304E+01 -.67092316242E+01 -.65691157971E+01 -.81989390388E+01 -.89699121507E+01
 -.10043916327E+02 -.11296023695E+02 -.12759092360E+02 -.14001495668E+02 -.14332683638E+02
 -.13985906716E+02 -.12918101236E+02 -.11160417668E+02 -.99260020908E+01 -.91454381849E+01
 -.81222663496E+01 -.76946919829E+01 -.76737833907E+01 -.84412700281E+01 -.96444394574E+01
 -.11687356758E+02 -.13414270126E+02 -.14785280521E+02 -.16639415082E+02 -.18098487541E+02
 -.18763191087E+02 -.18101580773E+02 -.16623294821E+02 -.14793728619E+02 -.13400795110E+02
 -.11679580620E+02 -.97168849687E+01 -.84177896600E+01 -.77482556362E+01 -.76855786009E+01
 -.94156125402E+01 -.10551799054E+02 -.12167349568E+02 -.14629435248E+02 -.16668926483E+02
 -.17804357446E+02 -.18588219233E+02 -.18542526452E+02 -.17810832710E+02 -.16678521485E+02
 -.14750799146E+02 -.12118227463E+02 -.10561471395E+02 -.94446732047E+01 -.87324984435E+01
 -.85267360608E+01 -.91839889721E+01 -.10382769447E+02 -.12196506811E+02 -.13607651359E+02
 -.14785407036E+02 -.16164733881E+02 -.17022789928E+02 -.17039250115E+02 -.16118388097E+02
 -.14844659323E+02 -.13555488235E+02 -.12255378513E+02 -.10351220392E+02 -.91479868688E+01
 -.85250445562E+01 -.86871947310E+01 -.10423478775E+02 -.11884394489E+02 -.14543874553E+02
 -.17560874327E+02 -.19794782152E+02 -.22391961583E+02 -.23859934685E+02 -.24380707177E+02
 -.23895146325E+02 -.22155265670E+02 -.19742033188E+02 -.17458080191E+02 -.14571675381E+02
 -.11886059894E+02 -.10356395420E+02 -.93827863801E+01 -.90251243017E+01 -.94735209412E+01
 -.10663574015E+02 -.12196806828E+02 -.13414586227E+02 -.14232245404E+02 -.15032871358E+02
 -.15305730944E+02 -.15061752266E+02 -.14240315334E+02 -.13391903211E+02 -.12207480423E+02
 -.10643961620E+02 -.94688703688E+01 -.90937264908E+01 -.93540921497E+01 -.11014849771E+02
 -.12963391980E+02 -.16498386182E+02 -.19485892295E+02 -.23136860618E+02 -.25929038357E+02
 -.27574907291E+02 -.28489980326E+02 -.28395636534E+02 -.27845616501E+02 -.26199927839E+02
 -.23129273350E+02 -.19536070838E+02 -.16403857817E+02 -.13059332662E+02 -.10978994770E+02
 -.98317558265E+01 -.92387748043E+01 -.94734051749E+01 -.10383073746E+02 -.11688459619E+02
 -.12728795539E+02 -.13348295276E+02 -.13697193414E+02 -.13658946283E+02 -.13348531042E+02
 -.12685852577E+02 -.11753512512E+02 -.10334855965E+02 -.95220819700E+01 -.92258386413E+01
 -.97688701973E+01 -.11112211477E+02 -.13695977947E+02 -.17556587555E+02 -.21124548066E+02
 -.25670213607E+02 -.28650388949E+02 -.30927248291E+02 -.32053372305E+02 -.32644077501E+02
 -.31936267657E+02 -.30556794289E+02 -.28598181259E+02 -.25670236780E+02 -.21170848321E+02
 -.17491487023E+02 -.13680990368E+02 -.11092353388E+02 -.98316918960E+01 -.90248641412E+01
 -.91833911670E+01 -.96441516548E+01 -.10720261024E+02 -.11477298361E+02 -.12096911964E+02
 -.12164355465E+02 -.12105368517E+02 -.11512826056E+02 -.10729279452E+02 -.95901921512E+01
 -.92436259058E+01 -.89482436832E+01 -.98772313595E+01 -.10958607706E+02 -.13623232046E+02
 -.17982929258E+02 -.21931259676E+02 -.27070365032E+02 -.30111555430E+02 -.32745869967E+02
 -.34653103829E+02 -.35585390895E+02 -.35742843930E+02 -.34903778832E+02 -.32885558534E+02
 -.30168323773E+02 -.27016209717E+02 -.22041412262E+02 -.17952654192E+02 -.13681557129E+02
 -.10978782551E+02 -.93823350785E+01 -.85266072447E+01 -.84405116995E+01 -.86990509719E+01
 -.92517165666E+01 -.98210624310E+01 -.10115647806E+02 -.10149453463E+02 -.97752563578E+01
 -.92342336254E+01 -.86949092985E+01 -.84815403688E+01 -.84764533057E+01 -.94493420373E+01
 -.10249177637E+02 -.13129421932E+02 -.17485565857E+02 -.22068072022E+02 -.27445757964E+02
 -.31109698881E+02 -.34484569915E+02 -.36859173034E+02 -.38523621682E+02 -.38898922756E+02
 -.38217814041E+02 -.36825707569E+02 -.34351538578E+02 -.31096615798E+02 -.27389178730E+02
 -.22041938895E+02 -.17493410274E+02 -.13060093741E+02 -.10355475724E+02 -.87316001329E+01
 -.76745503110E+01 -.75366118886E+01 -.74999781110E+01 -.78327662194E+01 -.79008551707E+01