       N       E                     dE             d eps       ncg     rms          rms(c)
DAV:   1     0.191921640833E+03    0.19192E+03   -0.10849E+04  3840   0.810E+02
DAV:   2     0.319245820108E+01   -0.18873E+03   -0.17657E+03  3936   0.222E+02
DAV:   3    -0.156125619879E+02   -0.18805E+02   -0.18542E+02  4594   0.722E+01
DAV:   4    -0.159498493151E+02   -0.33729E+00   -0.33685E+00  4342   0.102E+01
DAV:   5    -0.159527459668E+02   -0.28967E-02   -0.28962E-02  4624   0.907E-01    0.999E+00
DAV:   6    -0.151766957586E+02    0.77605E+00   -0.11680E+00  5494   0.284E+01    0.755E+00
DAV:   7    -0.151463643719E+02    0.30331E-01   -0.68379E-01  4458   0.445E+00    0.329E+00
DAV:   8    -0.151403363237E+02    0.60280E-02   -0.13174E-02  4314   0.808E-01    0.660E-01
DAV:   9    -0.151396853913E+02    0.65093E-03   -0.27335E-03  4382   0.239E-01    0.167E-01
DAV:  10    -0.151397691766E+02   -0.83785E-04   -0.18066E-04  4480   0.654E-02    0.101E-01
DAV:  11    -0.151398681548E+02   -0.98978E-04   -0.58179E-05  4100   0.493E-02    0.219E-02
DAV:  12    -0.151398732935E+02   -0.51387E-05   -0.14052E-05  4080   0.337E-02
   1 F= -.15139873E+02 E0= -.15139873E+02  d E =-.151399E+02
