 vasp.6.5.1 10Mar25 (build May 13 2025 11:33:44) complex                         
 executed on              LinuxNV date 2026.05.15  18:31:41
 running    2 mpi-ranks, on    1 nodes
 distrk:  each k-point on    2 cores,    1 groups
 distr:  one band on NCORE=   1 cores,    2 groups
 Offloading initialized ...    2 GPUs detected


--------------------------------------------------------------------------------------------------------


 INCAR:
   ALGO = Normal
   PREC = Normal
   LREAL = False
   EDIFF = 1e-05
   ENCUT = 276.723
   LASPH = True
   NELM = 100
   ISIF = 0
   IBRION = 2
   NSW = 1
   ISMEAR = -4
   SIGMA = 0.1
   LWAVE = False
   LCHARG = False
   LAECHG = True
   NBANDS = 34
   NEDOS = 3202
   EMAX = 20.0
   EMIN = -12.01
   LORBIT = 11
   GGA = Ps
   LVTOT = True
   KPAR = 1

 POTCAR:    PAW_PBE Zn 06Sep2000                  
 POTCAR:    PAW_PBE S 06Sep2000                   
 WARNING: For LVTOT=.TRUE., VASP.5.x writes the TOTAL local potential to the
     file LOCPOT. If you want only the Hartree contributions, use LVHAR=.TRUE.
     instead. 

 POTCAR:    PAW_PBE Zn 06Sep2000                  
   SHA256 =  501fddbd8274dd8e9725d4f3de27861d7f1e553a7e18441bc79fed8f346e7f23 Zn/POTCAR             
   COPYR  = (c) Copyright 06Sep2000 Georg Kresse                                                    
   COPYR  = This file is part of the software VASP. Any use, copying, and all other rights are regul
   COPYR  = If you do not have a valid VASP license, you may not use, copy or distribute this file. 
   VRHFIN =Zn: d10 p2                                                                               
   LEXCH  = PE                                                                                      
   EATOM  =  1748.8345 eV,  128.5357 Ry                                                             
                                                                                                    
   TITEL  = PAW_PBE Zn 06Sep2000                                                                    
   LULTRA =        F    use ultrasoft PP ?                                                          
   IUNSCR =        1    unscreen: 0-lin 1-nonlin 2-no                                               
   RPACOR =    2.000    partial core radius                                                         
   POMASS =   65.390; ZVAL   =   12.000    mass and valenz                                          
   RCORE  =    2.300    outmost cutoff radius                                                       
   RWIGS  =    2.400; RWIGS  =    1.270    wigner-seitz radius (au A)                               
   ENMAX  =  276.723; ENMIN  =  207.542 eV                                                          
   RCLOC  =    1.828    cutoff for local pot                                                        
   LCOR   =        T    correct aug charges                                                         
   LPAW   =        T    paw PP                                                                      
   EAUG   =  575.892                                                                                
   DEXC   =    0.000                                                                                
   RMAX   =    2.347    core radius for proj-oper                                                   
   RAUG   =    1.300    factor for augmentation sphere                                              
   RDEP   =    2.324    radius for radial grids                                                     
   RDEPT  =    1.788    core radius for aug-charge                                                  
                                                                                                    
   Atomic configuration                                                                             
    9 entries                                                                                       
     n  l   j            E        occ.                                                              
     1  0  0.50     -9524.6913   2.0000                                                             
     2  0  0.50     -1158.1882   2.0000                                                             
     2  1  1.50     -1003.8506   6.0000                                                             
     3  0  0.50      -129.2194   2.0000                                                             
     3  1  1.50       -83.3890   6.0000                                                             
     3  2  2.50       -10.1410  10.0000                                                             
     4  0  0.50        -5.9785   2.0000                                                             
     4  1  0.50        -4.0817   0.0000                                                             
     4  3  2.50        -1.3606   0.0000                                                             
   Description                                                                                      
     l       E           TYP  RCUT    TYP  RCUT                                                     
     2    -10.1410010     23  2.300                                                                 
     2    -11.5015836     23  2.300                                                                 
     0     -5.9785163     23  2.300                                                                 
     0      1.1858015     23  2.300                                                                 
     1     -2.7211652     23  2.300                                                                 
     1     13.2444212     23  2.300                                                                 
  local pseudopotential read in
  partial core-charges read in
  partial kinetic energy density read in
  atomic valenz-charges read in
  non local Contribution for L=            2  read in
    real space projection operators read in
  non local Contribution for L=            2  read in
    real space projection operators read in
  non local Contribution for L=            0  read in
    real space projection operators read in
  non local Contribution for L=            0  read in
    real space projection operators read in
  non local Contribution for L=            1  read in
    real space projection operators read in
  non local Contribution for L=            1  read in
    real space projection operators read in
    PAW grid and wavefunctions read in
 
   number of l-projection  operators is LMAX  =            6
   number of lm-projection operators is LMMAX =           18
 
 POTCAR:    PAW_PBE S 06Sep2000                   
   SHA256 =  0fc7481fb0695f01bdc6462160264c5c84044ae9ec85a907d398b887a2bc3132 S/POTCAR              
   COPYR  = (c) Copyright 06Sep2000 Georg Kresse                                                    
   COPYR  = This file is part of the software VASP. Any use, copying, and all other rights are regul
   COPYR  = If you do not have a valid VASP license, you may not use, copy or distribute this file. 
   VRHFIN =S : s2p4                                                                                 
   LEXCH  = PE                                                                                      
   EATOM  =   276.8230 eV,   20.3459 Ry                                                             
                                                                                                    
   TITEL  = PAW_PBE S 06Sep2000                                                                     
   LULTRA =        F    use ultrasoft PP ?                                                          
   IUNSCR =        1    unscreen: 0-lin 1-nonlin 2-no                                               
   RPACOR =    1.500    partial core radius                                                         
   POMASS =   32.066; ZVAL   =    6.000    mass and valenz                                          
   RCORE  =    1.900    outmost cutoff radius                                                       
   RWIGS  =    2.200; RWIGS  =    1.164    wigner-seitz radius (au A)                               
   ENMAX  =  258.689; ENMIN  =  194.016 eV                                                          
   ICORE  =        2    local potential                                                             
   LCOR   =        T    correct aug charges                                                         
   LPAW   =        T    paw PP                                                                      
   EAUG   =  335.092                                                                                
   DEXC   =    0.000                                                                                
   RMAX   =    1.942    core radius for proj-oper                                                   
   RAUG   =    1.300    factor for augmentation sphere                                              
   RDEP   =    1.954    radius for radial grids                                                     
   RDEPT  =    1.744    core radius for aug-charge                                                  
                                                                                                    
   Atomic configuration                                                                             
    6 entries                                                                                       
     n  l   j            E        occ.                                                              
     1  0  0.50     -2405.8406   2.0000                                                             
     2  0  0.50      -211.7007   2.0000                                                             
     2  1  1.50      -156.4958   6.0000                                                             
     3  0  0.50       -17.2562   2.0000                                                             
     3  1  0.50        -7.0085   4.0000                                                             
     3  2  1.50        -6.8029   0.0000                                                             
   Description                                                                                      
     l       E           TYP  RCUT    TYP  RCUT                                                     
     0    -17.2561641     23  1.900                                                                 
     0    -15.8743224     23  1.900                                                                 
     1     -7.0085400     23  1.900                                                                 
     1     -2.7779785     23  1.900                                                                 
     2     -6.8029130     23  1.900                                                                 
  local pseudopotential read in
  partial core-charges read in
  partial kinetic energy density read in
  atomic valenz-charges read in
  non local Contribution for L=            0  read in
    real space projection operators read in
  non local Contribution for L=            0  read in
    real space projection operators read in
  non local Contribution for L=            1  read in
    real space projection operators read in
  non local Contribution for L=            1  read in
    real space projection operators read in
    PAW grid and wavefunctions read in
 
   number of l-projection  operators is LMAX  =            4
   number of lm-projection operators is LMMAX =            8
 
 -----------------------------------------------------------------------------
|                                                                             |
|               ----> ADVICE to this user running VASP <----                  |
|                                                                             |
|     You enforced a specific xc type in the INCAR file but a different       |
|     type was found in the POTCAR file.                                      |
|     I HOPE YOU KNOW WHAT YOU ARE DOING!                                     |
|                                                                             |
 -----------------------------------------------------------------------------

  PAW_PBE Zn 06Sep2000                  :
 energy of atom  1       EATOM=-1748.8345
 kinetic energy error for atom=    0.0338 (will be added to EATOM!!)
  PAW_PBE S 06Sep2000                   :
 energy of atom  2       EATOM= -276.8230
 kinetic energy error for atom=    0.0137 (will be added to EATOM!!)
 
 
 POSCAR: Zn2 S2
  positions in direct lattice
  No initial velocities read in


 exchange-correlation table for PS
   RHO(1)=    0.500       N(1)  =     2000
   RHO(2)=  100.500       N(2)  =     4000
 


--------------------------------------------------------------------------------------------------------


 ion  position               nearest neighbor table
   1  0.667  0.333  0.500-   4 2.32   4 2.32   4 2.32   3 2.32
   2  0.333  0.667  0.000-   3 2.32   3 2.32   3 2.32   4 2.32
   3  0.667  0.333  0.875-   2 2.32   2 2.32   2 2.32   1 2.32
   4  0.333  0.667  0.375-   1 2.32   1 2.32   1 2.32   2 2.32
 
  LATTYP: Found a hexagonal cell.
 ALAT       =     3.7815838737
 C/A-ratio  =     1.6407850361
  
  Lattice vectors:
  
 A1 = (   3.7815838737,   0.0000000000,   0.0000000000)
 A2 = (  -1.8907919369,   3.2749477012,   0.0000000000)
 A3 = (   0.0000000000,   0.0000000000,   6.2047662326)


Analysis of symmetry for initial positions (statically):
=====================================================================
 Subroutine PRICEL returns:
 Original cell was already a primitive cell.
 

 Routine SETGRP: Setting up the symmetry group for a 
 hexagonal supercell.


 Subroutine GETGRP returns: Found 12 space group operations
 (whereof  6 operations were pure point group operations)
 out of a pool of 24 trial point group operations.


The static configuration has the point symmetry C_3v.
 The point group associated with its full space group is C_6v.


Analysis of symmetry for dynamics (positions and initial velocities):
=====================================================================
 Subroutine PRICEL returns:
 Original cell was already a primitive cell.
 

 Routine SETGRP: Setting up the symmetry group for a 
 hexagonal supercell.


 Subroutine GETGRP returns: Found 12 space group operations
 (whereof  6 operations were pure point group operations)
 out of a pool of 24 trial point group operations.


The dynamic configuration has the point symmetry C_3v.
 The point group associated with its full space group is C_6v.


 Subroutine INISYM returns: Found 12 space group operations
 (whereof  6 operations are pure point group operations),
 and found     1 'primitive' translations


----------------------------------------------------------------------------------------

                                     Primitive cell                                     

  volume of cell :      76.8429

  direct lattice vectors                    reciprocal lattice vectors
     3.781583874  0.000000000  0.000000000     0.264439461  0.152674194 -0.000000000
    -1.890791937  3.274947701  0.000000000     0.000000000  0.305348388  0.000000000
     0.000000000  0.000000000  6.204766233     0.000000000 -0.000000000  0.161166426

  length of vectors
     3.781583874  3.781583874  6.204766233     0.305348388  0.305348388  0.161166426

  position of ions in fractional coordinates (direct lattice)
     0.666666667  0.333333333  0.500400868
     0.333333333  0.666666667  0.000400868
     0.666666667  0.333333333  0.874599132
     0.333333333  0.666666667  0.374599132

  ion indices of the primitive-cell ions
   primitive index   ion index
                 1           1
                 2           2
                 3           3
                 4           4

----------------------------------------------------------------------------------------

 
 
 KPOINTS: Num irrep kpoints: 56                   

Automatic generation of k-mesh.
 Grid dimensions read from file:
 generate k-points for:   10   10    6

 Generating k-lattice:

  Cartesian coordinates                     Fractional coordinates (reciprocal lattice)
     0.026443946  0.015267419 -0.000000000     0.100000000  0.000000000  0.000000000
     0.000000000  0.030534839  0.000000000     0.000000000  0.100000000  0.000000000
     0.000000000 -0.000000000  0.026861071     0.000000000  0.000000000  0.166666667

  Length of vectors
     0.030534839  0.030534839  0.026861071

  Shift w.r.t. Gamma in fractional coordinates (k-lattice)
     0.000000000  0.000000000  0.000000000

 TETIRR: Found    630 inequivalent tetrahedra from     3600
 
 Subroutine IBZKPT returns following result:
 ===========================================
 
 Found     56 irreducible k-points:
 
 Following reciprocal coordinates:
            Coordinates               Weight
  0.000000  0.000000  0.000000      1.000000
  0.100000  0.000000  0.000000      6.000000
  0.200000  0.000000  0.000000      6.000000
  0.300000  0.000000  0.000000      6.000000
  0.400000  0.000000  0.000000      6.000000
  0.500000  0.000000  0.000000      3.000000
  0.100000  0.100000  0.000000      6.000000
  0.200000  0.100000  0.000000     12.000000
  0.300000  0.100000  0.000000     12.000000
  0.400000  0.100000  0.000000     12.000000
  0.200000  0.200000  0.000000      6.000000
  0.300000  0.200000  0.000000     12.000000
  0.400000  0.200000  0.000000      6.000000
  0.300000  0.300000  0.000000      6.000000
  0.000000  0.000000  0.166667      2.000000
  0.100000  0.000000  0.166667     12.000000
  0.200000  0.000000  0.166667     12.000000
  0.300000  0.000000  0.166667     12.000000
  0.400000  0.000000  0.166667     12.000000
  0.500000  0.000000  0.166667      6.000000
  0.100000  0.100000  0.166667     12.000000
  0.200000  0.100000  0.166667     24.000000
  0.300000  0.100000  0.166667     24.000000
  0.400000  0.100000  0.166667     24.000000
  0.200000  0.200000  0.166667     12.000000
  0.300000  0.200000  0.166667     24.000000
  0.400000  0.200000  0.166667     12.000000
  0.300000  0.300000  0.166667     12.000000
  0.000000  0.000000  0.333333      2.000000
  0.100000  0.000000  0.333333     12.000000
  0.200000  0.000000  0.333333     12.000000
  0.300000  0.000000  0.333333     12.000000
  0.400000  0.000000  0.333333     12.000000
  0.500000  0.000000  0.333333      6.000000
  0.100000  0.100000  0.333333     12.000000
  0.200000  0.100000  0.333333     24.000000
  0.300000  0.100000  0.333333     24.000000
  0.400000  0.100000  0.333333     24.000000
  0.200000  0.200000  0.333333     12.000000
  0.300000  0.200000  0.333333     24.000000
  0.400000  0.200000  0.333333     12.000000
  0.300000  0.300000  0.333333     12.000000
  0.000000  0.000000  0.500000      1.000000
  0.100000  0.000000  0.500000      6.000000
  0.200000  0.000000  0.500000      6.000000
  0.300000  0.000000  0.500000      6.000000
  0.400000  0.000000  0.500000      6.000000
  0.500000  0.000000  0.500000      3.000000
  0.100000  0.100000  0.500000      6.000000
  0.200000  0.100000  0.500000     12.000000
  0.300000  0.100000  0.500000     12.000000
  0.400000  0.100000  0.500000     12.000000
  0.200000  0.200000  0.500000      6.000000
  0.300000  0.200000  0.500000     12.000000
  0.400000  0.200000  0.500000      6.000000
  0.300000  0.300000  0.500000      6.000000
 
 Following cartesian coordinates:
            Coordinates               Weight
  0.000000  0.000000  0.000000      1.000000
  0.026444  0.015267  0.000000      6.000000
  0.052888  0.030535  0.000000      6.000000
  0.079332  0.045802  0.000000      6.000000
  0.105776  0.061070  0.000000      6.000000
  0.132220  0.076337  0.000000      3.000000
  0.026444  0.045802  0.000000      6.000000
  0.052888  0.061070  0.000000     12.000000
  0.079332  0.076337  0.000000     12.000000
  0.105776  0.091605  0.000000     12.000000
  0.052888  0.091605  0.000000      6.000000
  0.079332  0.106872  0.000000     12.000000
  0.105776  0.122139  0.000000      6.000000
  0.079332  0.137407  0.000000      6.000000
  0.000000  0.000000  0.026861      2.000000
  0.026444  0.015267  0.026861     12.000000
  0.052888  0.030535  0.026861     12.000000
  0.079332  0.045802  0.026861     12.000000
  0.105776  0.061070  0.026861     12.000000
  0.132220  0.076337  0.026861      6.000000
  0.026444  0.045802  0.026861     12.000000
  0.052888  0.061070  0.026861     24.000000
  0.079332  0.076337  0.026861     24.000000
  0.105776  0.091605  0.026861     24.000000
  0.052888  0.091605  0.026861     12.000000
  0.079332  0.106872  0.026861     24.000000
  0.105776  0.122139  0.026861     12.000000
  0.079332  0.137407  0.026861     12.000000
  0.000000  0.000000  0.053722      2.000000
  0.026444  0.015267  0.053722     12.000000
  0.052888  0.030535  0.053722     12.000000
  0.079332  0.045802  0.053722     12.000000
  0.105776  0.061070  0.053722     12.000000
  0.132220  0.076337  0.053722      6.000000
  0.026444  0.045802  0.053722     12.000000
  0.052888  0.061070  0.053722     24.000000
  0.079332  0.076337  0.053722     24.000000
  0.105776  0.091605  0.053722     24.000000
  0.052888  0.091605  0.053722     12.000000
  0.079332  0.106872  0.053722     24.000000
  0.105776  0.122139  0.053722     12.000000
  0.079332  0.137407  0.053722     12.000000
  0.000000  0.000000  0.080583      1.000000
  0.026444  0.015267  0.080583      6.000000
  0.052888  0.030535  0.080583      6.000000
  0.079332  0.045802  0.080583      6.000000
  0.105776  0.061070  0.080583      6.000000
  0.132220  0.076337  0.080583      3.000000
  0.026444  0.045802  0.080583      6.000000
  0.052888  0.061070  0.080583     12.000000
  0.079332  0.076337  0.080583     12.000000
  0.105776  0.091605  0.080583     12.000000
  0.052888  0.091605  0.080583      6.000000
  0.079332  0.106872  0.080583     12.000000
  0.105776  0.122139  0.080583      6.000000
  0.079332  0.137407  0.080583      6.000000
 


--------------------------------------------------------------------------------------------------------




 Dimension of arrays:
   k-points           NKPTS =     56   k-points in BZ     NKDIM =     56   number of bands    NBANDS=     34
   number of dos      NEDOS =   3202   number of ions     NIONS =      4
   non local maximal  LDIM  =      6   non local SUM 2l+1 LMDIM =     18
   total plane-waves  NPLWV =   7168
   max r-space proj   IRMAX =      1   max aug-charges    IRDMAX=   3138
   dimension x,y,z NGX =    16 NGY =   16 NGZ =   28
   dimension x,y,z NGXF=    32 NGYF=   32 NGZF=   56
   support grid    NGXF=    32 NGYF=   32 NGZF=   56
   ions per type =               2   2
   NGX,Y,Z   is equivalent  to a cutoff of   7.03,  7.03,  7.50 a.u.
   NGXF,Y,Z  is equivalent  to a cutoff of  14.07, 14.07, 15.00 a.u.

 SYSTEM =  unknown system                          
 POSCAR =  Zn2 S2                                  

 Startparameter for this run:
   NWRITE =      2    write-flag & timer
   PREC   = normal    normal or accurate (medium, high low for compatibility)
   ISTART =      0    job   : 0-new  1-cont  2-samecut
   ICHARG =      2    charge: 1-file 2-atom 10-const
   ISPIN  =      1    spin polarized calculation?
   LNONCOLLINEAR =      F non collinear calculations
   LSORBIT =      F    spin-orbit coupling
   INIWAV =      1    electr: 0-lowe 1-rand  2-diag
   LASPH  =      T    aspherical Exc in radial PAW
 Electronic Relaxation 1
   ENCUT  =  276.7 eV  20.34 Ry    4.51 a.u.   5.13  5.13  8.42*2*pi/ulx,y,z
   ENINI  =  276.7     initial cutoff
   ENAUG  =  575.9 eV  augmentation charge cutoff
   NELM   =    100;   NELMIN=  2; NELMDL= -5     # of ELM steps 
   EDIFF  = 0.1E-04   stopping-criterion for ELM
   LREAL  =      F    real-space projection
   NLSPLINE    = F    spline interpolate recip. space projectors
   LCOMPAT=      F    compatible to vasp.4.4
   GGA_COMPAT  = T    GGA compatible to vasp.4.4-vasp.4.6
   LMAXPAW     = -100 max onsite density
   LMAXMIX     =    2 max onsite mixed and CHGCAR
   VOSKOWN=      0    Vosko Wilk Nusair interpolation
   ROPT   =    0.00000   0.00000
 Ionic relaxation
   EDIFFG = 0.1E-03   stopping-criterion for IOM
   NSW    =      1    number of steps for IOM
   NBLOCK =      1;   KBLOCK =      1    inner block; outer block 
   IBRION =      2    ionic relax: 0-MD 1-quasi-New 2-CG
   NFREE  =      1    steps in history (QN), initial steepest desc. (CG)
   ISIF   =      0    stress and relaxation
   IWAVPR =     11    prediction:  0-non 1-charg 2-wave 3-comb
   ISYM   =      2    0-nonsym 1-usesym 2-fastsym
   LCORR  =      T    Harris-Foulkes like correction to forces

   POTIM  = 0.5000    time-step for ionic-motion
   TEIN   =    0.0    initial temperature
   TEBEG  =    0.0;   TEEND  =   0.0 temperature during run
   SMASS  =  -3.00    Nose mass-parameter (am)
   estimated Nose-frequenzy (Omega)   =  0.10E-29 period in steps = 0.13E+47 mass=  -0.327E-27a.u.
   SCALEE = 1.0000    scale energy and forces
   NPACO  =    256;   APACO  = 10.0  distance and # of slots for P.C.
   PSTRESS=    0.0 pullay stress

  Mass of Ions in am
   POMASS =  65.39 32.07
  Ionic Valenz
   ZVAL   =  12.00  6.00
  Atomic Wigner-Seitz radii
   RWIGS  =  -1.00 -1.00
  virtual crystal weights 
   VCA    =   1.00  1.00
   NELECT =      36.0000    total number of electrons
   NUPDOWN=      -1.0000    fix difference up-down

 DOS related values:
   EMIN   = -12.01;   EMAX   = 20.00  energy-range for DOS
   EFERMI =   0.00;   METHOD = LEGACY      
   ISMEAR =    -4;   SIGMA  =   0.10  broadening in eV -4-tet -1-fermi 0-gaus
   EFERMI_NEDOS =   21; number of points for ismear=-14 and -15

 Electronic relaxation 2 (details)
   IALGO  =     38    algorithm
   LDIAG  =      T    sub-space diagonalisation (order eigenvalues)
   LSUBROT=      F    optimize rotation matrix (better conditioning)
   LROBUST=      F    robust break criterion during scf (extrapolated energy error)
   ISEARCH=      0    line search for conjugate gradient (0, 1=use gradient)
   TURBO    =      0    0=normal 1=particle mesh
   IRESTART =      0    0=no restart 2=restart with 2 vectors
   NREBOOT  =      0    no. of reboots
   NMIN     =      0    reboot dimension
   EREF     =   0.00    reference energy to select bands
   IMIX   =      4    mixing-type and parameters
     AMIX     =   0.40;   BMIX     =  1.00
     AMIX_MAG =   1.60;   BMIX_MAG =  1.00
     AMIN     =   0.10
     WC   =   100.;   INIMIX=   1;  MIXPRE=   1;  MAXMIX= -45

 Intra band minimization:
   WEIMIN = 0.0010     energy-eigenvalue tresh-hold
   EBREAK =  0.74E-07  absolut break condition
   DEPER  =   0.30     relativ break condition  

   TIME   =   0.40     timestep for ELM

  volume/ion in A,a.u.               =      19.21       129.64
  Fermi-wavevector in a.u.,A,eV,Ry     =   1.271475  2.402739 21.995840  1.616649
  Thomas-Fermi vector in A             =   2.404406
 
 Write flags
   LWAVE        =      F    write WAVECAR
   LDOWNSAMPLE  =      F    k-point downsampling of WAVECAR
   LCHARG       =      F    write CHGCAR
   LVTOT        =      T    write LOCPOT, total local potential
   LVHAR        =      F    write LOCPOT, Hartree potential only
   WRT_POTENTIAL= total  ! write potential to hdf5 file
   LELF         =      F    write electronic localiz. function (ELF)
   LORBIT       =     11    0 simple, 1 ext, 2 COOP (PROOUT), +10 PAW based schemes


 Python interface
   PLUGINS active      =      F    recompile with -DPLUGINS to activate
 
 Dipole corrections
   LMONO      =      F    monopole corrections only (constant potential shift)
   LDIPOL     =      F    correct potential (dipole corrections)
   IDIPOL     =      0    1-x, 2-y, 3-z, 4-all directions 
   EPSILON    =  1.0000000 bulk dielectric constant
   LVACPOTAV  =      F  vacuum potentials using an averaging scheme for the charge density
   VACPOTFLAT =  0.1000000 required flatness to determine vacuum potential
 
Coulomb truncation method
  LTRUNCATE          =      F  Coulomb kernel truncation to be used

 
 Exchange correlation treatment:
   GGA     = PS    functional components
   XC_C    = 1    coefficients multiplying the functional components
   LIBXC   =     F    Libxc                    
   VOSKOWN =     0    Vosko Wilk Nusair interpolation
   LHFCALC =     F    Hartree Fock is set to
   LHFONE  =     F    Hartree Fock one center treatment
   AEXX    =    0.0000 exact exchange contribution

 Parameters of functionals:
   PS:
     No parameter
 
 Van der Waals corrections
   IVDW    =     0    specifies the selected vdW correction

 Linear response parameters
   LEPSILON=     F    determine dielectric tensor
   LRPA    =     F    only Hartree local field effects (RPA)
   LNABLA  =     F    use nabla operator in PAW spheres
   LVEL    =     F    velocity operator in full k-point grid
   CSHIFT  =0.1000    complex shift for real part using Kramers Kronig
   OMEGAMAX=  -1.0    maximum frequency
   DEG_THRESHOLD= 0.2000000E-02 threshold for treating states as degnerate
   RTIME   =   -0.100 relaxation time in fs
  (WPLASMAI=    0.000 imaginary part of plasma frequency in eV, 0.658/RTIME)
   DFIELD  = 0.0000000 0.0000000 0.0000000 field for delta impulse in time
 
  Optional k-point grid parameters
   LKPOINTS_OPT  =     F    use optional k-point grid
   KPOINTS_OPT_MODE=     1    mode for optional k-point grid
 
 Orbital magnetization related:
   ORBITALMAG=     F  switch on orbital magnetization
   LCHIMAG   =     F  perturbation theory with respect to B field
   DQ        =  0.001000  dq finite difference perturbation B field
   LLRAUG    =     F  two centre corrections for induced B field
   LBONE     =     F  B-component reconstruction in AE one-centre
   LVGVCALC  =     T  calculate vGv susceptibility
   LVGVAPPL  =     F  apply vGv susceptibility instead of pGv for G=0

 Random number generation:
   RANDOM_GENERATOR = DEFAULT
   PCG_SEED         = not used


--------------------------------------------------------------------------------------------------------


 conjugate gradient relaxation of ions
 charge density and potential will be updated during run
 non-spin polarized calculation
 Variant of blocked Davidson
 Davidson routine will perform the subspace rotation
 perform sub-space diagonalisation
    after iterative eigenvector-optimisation
 modified Broyden-mixing scheme, WC =      100.0
 initial mixing is a Kerker type mixing with AMIX =  0.4000 and BMIX =      1.0000
 Hartree-type preconditioning will be used
 using additional bands            16
 reciprocal scheme for non local part
 use partial core corrections
 calculate Harris-corrections to forces 
   (improved forces if not selfconsistent)
 use gradient corrections 
 use of overlap-Matrix (Vanderbilt PP)
 Fermi weights with tetrahedron method witout Bloechl corrections


--------------------------------------------------------------------------------------------------------


  energy-cutoff  :      276.72
  volume of cell :       76.84
      direct lattice vectors                 reciprocal lattice vectors
     3.781583874  0.000000000  0.000000000     0.264439461  0.152674194 -0.000000000
    -1.890791937  3.274947701  0.000000000     0.000000000  0.305348388  0.000000000
     0.000000000  0.000000000  6.204766233     0.000000000 -0.000000000  0.161166426

  length of vectors
     3.781583874  3.781583874  6.204766233     0.305348388  0.305348388  0.161166426


 
 k-points in units of 2pi/SCALE and weight: Num irrep kpoints: 56                   
   0.00000000  0.00000000  0.00000000       0.002
   0.02644395  0.01526742  0.00000000       0.010
   0.05288789  0.03053484  0.00000000       0.010
   0.07933184  0.04580226  0.00000000       0.010
   0.10577578  0.06106968  0.00000000       0.010
   0.13221973  0.07633710  0.00000000       0.005
   0.02644395  0.04580226  0.00000000       0.010
   0.05288789  0.06106968  0.00000000       0.020
   0.07933184  0.07633710  0.00000000       0.020
   0.10577578  0.09160452  0.00000000       0.020
   0.05288789  0.09160452  0.00000000       0.010
   0.07933184  0.10687194  0.00000000       0.020
   0.10577578  0.12213936  0.00000000       0.010
   0.07933184  0.13740677  0.00000000       0.010
   0.00000000  0.00000000  0.02686107       0.003
   0.02644395  0.01526742  0.02686107       0.020
   0.05288789  0.03053484  0.02686107       0.020
   0.07933184  0.04580226  0.02686107       0.020
   0.10577578  0.06106968  0.02686107       0.020
   0.13221973  0.07633710  0.02686107       0.010
   0.02644395  0.04580226  0.02686107       0.020
   0.05288789  0.06106968  0.02686107       0.040
   0.07933184  0.07633710  0.02686107       0.040
   0.10577578  0.09160452  0.02686107       0.040
   0.05288789  0.09160452  0.02686107       0.020
   0.07933184  0.10687194  0.02686107       0.040
   0.10577578  0.12213936  0.02686107       0.020
   0.07933184  0.13740677  0.02686107       0.020
   0.00000000  0.00000000  0.05372214       0.003
   0.02644395  0.01526742  0.05372214       0.020
   0.05288789  0.03053484  0.05372214       0.020
   0.07933184  0.04580226  0.05372214       0.020
   0.10577578  0.06106968  0.05372214       0.020
   0.13221973  0.07633710  0.05372214       0.010
   0.02644395  0.04580226  0.05372214       0.020
   0.05288789  0.06106968  0.05372214       0.040
   0.07933184  0.07633710  0.05372214       0.040
   0.10577578  0.09160452  0.05372214       0.040
   0.05288789  0.09160452  0.05372214       0.020
   0.07933184  0.10687194  0.05372214       0.040
   0.10577578  0.12213936  0.05372214       0.020
   0.07933184  0.13740677  0.05372214       0.020
   0.00000000  0.00000000  0.08058321       0.002
   0.02644395  0.01526742  0.08058321       0.010
   0.05288789  0.03053484  0.08058321       0.010
   0.07933184  0.04580226  0.08058321       0.010
   0.10577578  0.06106968  0.08058321       0.010
   0.13221973  0.07633710  0.08058321       0.005
   0.02644395  0.04580226  0.08058321       0.010
   0.05288789  0.06106968  0.08058321       0.020
   0.07933184  0.07633710  0.08058321       0.020
   0.10577578  0.09160452  0.08058321       0.020
   0.05288789  0.09160452  0.08058321       0.010
   0.07933184  0.10687194  0.08058321       0.020
   0.10577578  0.12213936  0.08058321       0.010
   0.07933184  0.13740677  0.08058321       0.010
 
 k-points in reciprocal lattice and weights: Num irrep kpoints: 56                   
   0.00000000  0.00000000  0.00000000       0.002
   0.10000000  0.00000000  0.00000000       0.010
   0.20000000  0.00000000  0.00000000       0.010
   0.30000000  0.00000000  0.00000000       0.010
   0.40000000  0.00000000  0.00000000       0.010
   0.50000000  0.00000000  0.00000000       0.005
   0.10000000  0.10000000  0.00000000       0.010
   0.20000000  0.10000000  0.00000000       0.020
   0.30000000  0.10000000  0.00000000       0.020
   0.40000000  0.10000000  0.00000000       0.020
   0.20000000  0.20000000  0.00000000       0.010
   0.30000000  0.20000000  0.00000000       0.020
   0.40000000  0.20000000  0.00000000       0.010
   0.30000000  0.30000000  0.00000000       0.010
   0.00000000  0.00000000  0.16666667       0.003
   0.10000000  0.00000000  0.16666667       0.020
   0.20000000  0.00000000  0.16666667       0.020
   0.30000000  0.00000000  0.16666667       0.020
   0.40000000  0.00000000  0.16666667       0.020
   0.50000000  0.00000000  0.16666667       0.010
   0.10000000  0.10000000  0.16666667       0.020
   0.20000000  0.10000000  0.16666667       0.040
   0.30000000  0.10000000  0.16666667       0.040
   0.40000000  0.10000000  0.16666667       0.040
   0.20000000  0.20000000  0.16666667       0.020
   0.30000000  0.20000000  0.16666667       0.040
   0.40000000  0.20000000  0.16666667       0.020
   0.30000000  0.30000000  0.16666667       0.020
   0.00000000  0.00000000  0.33333333       0.003
   0.10000000  0.00000000  0.33333333       0.020
   0.20000000  0.00000000  0.33333333       0.020
   0.30000000  0.00000000  0.33333333       0.020
   0.40000000  0.00000000  0.33333333       0.020
   0.50000000  0.00000000  0.33333333       0.010
   0.10000000  0.10000000  0.33333333       0.020
   0.20000000  0.10000000  0.33333333       0.040
   0.30000000  0.10000000  0.33333333       0.040
   0.40000000  0.10000000  0.33333333       0.040
   0.20000000  0.20000000  0.33333333       0.020
   0.30000000  0.20000000  0.33333333       0.040
   0.40000000  0.20000000  0.33333333       0.020
   0.30000000  0.30000000  0.33333333       0.020
   0.00000000  0.00000000  0.50000000       0.002
   0.10000000  0.00000000  0.50000000       0.010
   0.20000000  0.00000000  0.50000000       0.010
   0.30000000  0.00000000  0.50000000       0.010
   0.40000000  0.00000000  0.50000000       0.010
   0.50000000  0.00000000  0.50000000       0.005
   0.10000000  0.10000000  0.50000000       0.010
   0.20000000  0.10000000  0.50000000       0.020
   0.30000000  0.10000000  0.50000000       0.020
   0.40000000  0.10000000  0.50000000       0.020
   0.20000000  0.20000000  0.50000000       0.010
   0.30000000  0.20000000  0.50000000       0.020
   0.40000000  0.20000000  0.50000000       0.010
   0.30000000  0.30000000  0.50000000       0.010
 
 position of ions in fractional coordinates (direct lattice) 
   0.66666667  0.33333333  0.50040087
   0.33333333  0.66666667  0.00040087
   0.66666667  0.33333333  0.87459913
   0.33333333  0.66666667  0.37459913
 
 position of ions in cartesian coordinates  (Angst):
   1.89079194  1.09164923  3.10487041
  -0.00000000  2.18329847  0.00248729
   1.89079194  1.09164923  5.42668316
  -0.00000000  2.18329847  2.32430004
 


--------------------------------------------------------------------------------------------------------


 k-point     1 :   0.0000 0.0000 0.0000  plane waves:     785
 k-point     2 :   0.1000 0.0000 0.0000  plane waves:     793
 k-point     3 :   0.2000 0.0000 0.0000  plane waves:     801
 k-point     4 :   0.3000 0.0000 0.0000  plane waves:     815
 k-point     5 :   0.4000 0.0000 0.0000  plane waves:     803
 k-point     6 :   0.5000 0.0000 0.0000  plane waves:     810
 k-point     7 :   0.1000 0.1000 0.0000  plane waves:     789
 k-point     8 :   0.2000 0.1000 0.0000  plane waves:     802
 k-point     9 :   0.3000 0.1000 0.0000  plane waves:     805
 k-point    10 :   0.4000 0.1000 0.0000  plane waves:     808
 k-point    11 :   0.2000 0.2000 0.0000  plane waves:     805
 k-point    12 :   0.3000 0.2000 0.0000  plane waves:     805
 k-point    13 :   0.4000 0.2000 0.0000  plane waves:     805
 k-point    14 :   0.3000 0.3000 0.0000  plane waves:     809
 k-point    15 :   0.0000 0.0000 0.1667  plane waves:     797
 k-point    16 :   0.1000 0.0000 0.1667  plane waves:     792
 k-point    17 :   0.2000 0.0000 0.1667  plane waves:     797
 k-point    18 :   0.3000 0.0000 0.1667  plane waves:     807
 k-point    19 :   0.4000 0.0000 0.1667  plane waves:     802
 k-point    20 :   0.5000 0.0000 0.1667  plane waves:     808
 k-point    21 :   0.1000 0.1000 0.1667  plane waves:     792
 k-point    22 :   0.2000 0.1000 0.1667  plane waves:     800
 k-point    23 :   0.3000 0.1000 0.1667  plane waves:     806
 k-point    24 :   0.4000 0.1000 0.1667  plane waves:     809
 k-point    25 :   0.2000 0.2000 0.1667  plane waves:     807
 k-point    26 :   0.3000 0.2000 0.1667  plane waves:     804
 k-point    27 :   0.4000 0.2000 0.1667  plane waves:     813
 k-point    28 :   0.3000 0.3000 0.1667  plane waves:     808
 k-point    29 :   0.0000 0.0000 0.3333  plane waves:     797
 k-point    30 :   0.1000 0.0000 0.3333  plane waves:     792
 k-point    31 :   0.2000 0.0000 0.3333  plane waves:     799
 k-point    32 :   0.3000 0.0000 0.3333  plane waves:     797
 k-point    33 :   0.4000 0.0000 0.3333  plane waves:     805
 k-point    34 :   0.5000 0.0000 0.3333  plane waves:     802
 k-point    35 :   0.1000 0.1000 0.3333  plane waves:     793
 k-point    36 :   0.2000 0.1000 0.3333  plane waves:     801
 k-point    37 :   0.3000 0.1000 0.3333  plane waves:     806
 k-point    38 :   0.4000 0.1000 0.3333  plane waves:     807
 k-point    39 :   0.2000 0.2000 0.3333  plane waves:     802
 k-point    40 :   0.3000 0.2000 0.3333  plane waves:     808
 k-point    41 :   0.4000 0.2000 0.3333  plane waves:     803
 k-point    42 :   0.3000 0.3000 0.3333  plane waves:     805
 k-point    43 :   0.0000 0.0000 0.5000  plane waves:     820
 k-point    44 :   0.1000 0.0000 0.5000  plane waves:     788
 k-point    45 :   0.2000 0.0000 0.5000  plane waves:     798
 k-point    46 :   0.3000 0.0000 0.5000  plane waves:     802
 k-point    47 :   0.4000 0.0000 0.5000  plane waves:     810
 k-point    48 :   0.5000 0.0000 0.5000  plane waves:     796
 k-point    49 :   0.1000 0.1000 0.5000  plane waves:     798
 k-point    50 :   0.2000 0.1000 0.5000  plane waves:     804
 k-point    51 :   0.3000 0.1000 0.5000  plane waves:     806
 k-point    52 :   0.4000 0.1000 0.5000  plane waves:     800
 k-point    53 :   0.2000 0.2000 0.5000  plane waves:     810
 k-point    54 :   0.3000 0.2000 0.5000  plane waves:     808
 k-point    55 :   0.4000 0.2000 0.5000  plane waves:     798
 k-point    56 :   0.3000 0.3000 0.5000  plane waves:     794

 maximum and minimum number of plane-waves per node :       820      785

 maximum number of plane-waves:       820
 maximum index in each direction: 
   IXMAX=    5   IYMAX=    5   IZMAX=    8
   IXMIN=   -5   IYMIN=   -5   IZMIN=   -8


 serial   3D FFT for wavefunctions
 parallel 3D FFT for charge:
    minimum data exchange during FFTs selected (reduces bandwidth)


 total amount of memory used by VASP MPI-rank0    59577. kBytes
=======================================================================

   base                                    :      30000. kBytes
   nonl-proj                               :      13277. kBytes
   fftplans                                :       1019. kBytes
   grid                                    :       1937. kBytes
   one-center                              :         62. kBytes
   wavefun                                 :      13282. kBytes
 
     INWAV:  cpu time      0.0001: real time      0.0002
 Broyden mixing: mesh for mixing (old mesh)
   NGX = 11   NGY = 11   NGZ = 17
  (NGX  = 32   NGY  = 32   NGZ  = 56)
  gives a total of   2057 points

 initial charge density was supplied:
 charge density of overlapping atoms calculated
 number of electron      36.0000000 magnetization 
 keeping initial charge density in first step


--------------------------------------------------------------------------------------------------------


 Maximum index for augmentation-charges          1428 (set IRDMAX)


--------------------------------------------------------------------------------------------------------


 First call to EWALD:  gamma=   0.417
 Maximum number of real-space cells   3x   3x   2
 Maximum number of reciprocal cells   3x   3x   4

    FEWALD:  cpu time      0.0010: real time      0.0010


--------------------------------------- Ionic step        1  -------------------------------------------




--------------------------------------- Iteration      1(   1)  ---------------------------------------


    POTLOK:  cpu time      0.4353: real time      0.4749
    SETDIJ:  cpu time      0.0776: real time      0.0780
     EDDAV:  cpu time      1.7997: real time      1.8065
 BZINTS: Fermi energy:   11.170819;   36.000000 electrons
         Band energy: 0.101713E+03;  BLOECHL correction:    0.000000
       DOS:  cpu time      0.2392: real time      0.2401
    --------------------------------------------
      LOOP:  cpu time      2.5518: real time      2.5995

 eigenvalue-minimisations  :  3840
 total energy-change (2. order) : 0.1919216E+03  (-0.1084859E+04)
 number of electron      36.0000000 magnetization 
 augmentation part       36.0000000 magnetization 

 Free energy of the ion-electron system (eV)
  ---------------------------------------------------
  alpha Z        PSCENC =       147.15733780
  Ewald energy   TEWEN  =     -2526.08836804
  -Hartree energ DENC   =     -1371.32612577
  -exchange      EXHF   =         0.00000000
  -V(xc)+E(xc)   XCENC  =       140.97932143
  PAW double counting   =      3343.44361914    -3692.01684003
  entropy T*S    EENTRO =         0.00000000
  eigenvalues    EBANDS =       101.71346145
  atomic energy  EATOM  =      4048.05923486
  Solvation  Ediel_sol  =         0.00000000
  ---------------------------------------------------
  free energy    TOTEN  =       191.92164083 eV

  energy without entropy =      191.92164083  energy(sigma->0) =      191.92164083


--------------------------------------------------------------------------------------------------------




--------------------------------------- Iteration      1(   2)  ---------------------------------------


     EDDAV:  cpu time      1.5062: real time      1.5120
 BZINTS: Fermi energy:    3.280000;   36.000000 electrons
         Band energy:-0.870157E+02;  BLOECHL correction:    0.000000
       DOS:  cpu time      0.2077: real time      0.2084
    --------------------------------------------
      LOOP:  cpu time      1.7139: real time      1.7204

 eigenvalue-minimisations  :  3936
 total energy-change (2. order) :-0.1887292E+03  (-0.1765685E+03)
 number of electron      36.0000000 magnetization 
 augmentation part       36.0000000 magnetization 

 Free energy of the ion-electron system (eV)
  ---------------------------------------------------
  alpha Z        PSCENC =       147.15733780
  Ewald energy   TEWEN  =     -2526.08836804
  -Hartree energ DENC   =     -1371.32612577
  -exchange      EXHF   =         0.00000000
  -V(xc)+E(xc)   XCENC  =       140.97932143
  PAW double counting   =      3343.44361914    -3692.01684003
  entropy T*S    EENTRO =         0.00000000
  eigenvalues    EBANDS =       -87.01572118
  atomic energy  EATOM  =      4048.05923486
  Solvation  Ediel_sol  =         0.00000000
  ---------------------------------------------------
  free energy    TOTEN  =         3.19245820 eV

  energy without entropy =        3.19245820  energy(sigma->0) =        3.19245820


--------------------------------------------------------------------------------------------------------




--------------------------------------- Iteration      1(   3)  ---------------------------------------


     EDDAV:  cpu time      1.7142: real time      1.7207
 BZINTS: Fermi energy:    1.880005;   36.000000 electrons
         Band energy:-0.105821E+03;  BLOECHL correction:    0.000000
       DOS:  cpu time      0.1501: real time      0.1506
    --------------------------------------------
      LOOP:  cpu time      1.8642: real time      1.8713

 eigenvalue-minimisations  :  4594
 total energy-change (2. order) :-0.1880502E+02  (-0.1854208E+02)
 number of electron      36.0000000 magnetization 
 augmentation part       36.0000000 magnetization 

 Free energy of the ion-electron system (eV)
  ---------------------------------------------------
  alpha Z        PSCENC =       147.15733780
  Ewald energy   TEWEN  =     -2526.08836804
  -Hartree energ DENC   =     -1371.32612577
  -exchange      EXHF   =         0.00000000
  -V(xc)+E(xc)   XCENC  =       140.97932143
  PAW double counting   =      3343.44361914    -3692.01684003
  entropy T*S    EENTRO =         0.00000000
  eigenvalues    EBANDS =      -105.82074137
  atomic energy  EATOM  =      4048.05923486
  Solvation  Ediel_sol  =         0.00000000
  ---------------------------------------------------
  free energy    TOTEN  =       -15.61256199 eV

  energy without entropy =      -15.61256199  energy(sigma->0) =      -15.61256199


--------------------------------------------------------------------------------------------------------




--------------------------------------- Iteration      1(   4)  ---------------------------------------


     EDDAV:  cpu time      1.6539: real time      1.6601
 BZINTS: Fermi energy:    1.860005;   36.000000 electrons
         Band energy:-0.106158E+03;  BLOECHL correction:    0.000000
       DOS:  cpu time      0.1492: real time      0.1496
    --------------------------------------------
      LOOP:  cpu time      1.8031: real time      1.8097

 eigenvalue-minimisations  :  4342
 total energy-change (2. order) :-0.3372873E+00  (-0.3368466E+00)
 number of electron      36.0000000 magnetization 
 augmentation part       36.0000000 magnetization 

 Free energy of the ion-electron system (eV)
  ---------------------------------------------------
  alpha Z        PSCENC =       147.15733780
  Ewald energy   TEWEN  =     -2526.08836804
  -Hartree energ DENC   =     -1371.32612577
  -exchange      EXHF   =         0.00000000
  -V(xc)+E(xc)   XCENC  =       140.97932143
  PAW double counting   =      3343.44361914    -3692.01684003
  entropy T*S    EENTRO =         0.00000000
  eigenvalues    EBANDS =      -106.15802869
  atomic energy  EATOM  =      4048.05923486
  Solvation  Ediel_sol  =         0.00000000
  ---------------------------------------------------
  free energy    TOTEN  =       -15.94984932 eV

  energy without entropy =      -15.94984932  energy(sigma->0) =      -15.94984932


--------------------------------------------------------------------------------------------------------




--------------------------------------- Iteration      1(   5)  ---------------------------------------


     EDDAV:  cpu time      1.7320: real time      1.7386
 BZINTS: Fermi energy:    1.860005;   36.000000 electrons
         Band energy:-0.106161E+03;  BLOECHL correction:    0.000000
       DOS:  cpu time      0.1493: real time      0.1497
    CHARGE:  cpu time      0.0899: real time      0.0903
    MIXING:  cpu time      0.0006: real time      0.0006
    --------------------------------------------
      LOOP:  cpu time      1.9717: real time      1.9791

 eigenvalue-minimisations  :  4624
 total energy-change (2. order) :-0.2896652E-02  (-0.2896217E-02)
 number of electron      35.9999787 magnetization 
 augmentation part       14.1845990 magnetization 

 Broyden mixing:
  rms(total) = 0.99892E+00    rms(broyden)= 0.99887E+00
  rms(prec ) = 0.12277E+01
  weight for this iteration     100.00

 Free energy of the ion-electron system (eV)
  ---------------------------------------------------
  alpha Z        PSCENC =       147.15733780
  Ewald energy   TEWEN  =     -2526.08836804
  -Hartree energ DENC   =     -1371.32612577
  -exchange      EXHF   =         0.00000000
  -V(xc)+E(xc)   XCENC  =       140.97932143
  PAW double counting   =      3343.44361914    -3692.01684003
  entropy T*S    EENTRO =         0.00000000
  eigenvalues    EBANDS =      -106.16092535
  atomic energy  EATOM  =      4048.05923486
  Solvation  Ediel_sol  =         0.00000000
  ---------------------------------------------------
  free energy    TOTEN  =       -15.95274597 eV

  energy without entropy =      -15.95274597  energy(sigma->0) =      -15.95274597


--------------------------------------------------------------------------------------------------------




--------------------------------------- Iteration      1(   6)  ---------------------------------------


    POTLOK:  cpu time      0.0038: real time      0.0041
    SETDIJ:  cpu time      0.0759: real time      0.0762
     EDDAV:  cpu time      1.9417: real time      1.9494
 BZINTS: Fermi energy:    2.070005;   36.000000 electrons
         Band energy:-0.126881E+03;  BLOECHL correction:    0.000000
       DOS:  cpu time      0.1525: real time      0.1529
    CHARGE:  cpu time      0.0889: real time      0.0892
    MIXING:  cpu time      0.0006: real time      0.0006
    --------------------------------------------
      LOOP:  cpu time      2.2634: real time      2.2723

 eigenvalue-minimisations  :  5494
 total energy-change (2. order) : 0.7760502E+00  (-0.1168033E+00)
 number of electron      35.9999784 magnetization 
 augmentation part       14.4379496 magnetization 

 Broyden mixing:
  rms(total) = 0.75532E+00    rms(broyden)= 0.75530E+00
  rms(prec ) = 0.79023E+00
  weight for this iteration     100.00

 eigenvalues of (default mixing * dielectric matrix)
  average eigenvalue GAMMA=   2.0281
  2.0281

 Free energy of the ion-electron system (eV)
  ---------------------------------------------------
  alpha Z        PSCENC =       147.15733780
  Ewald energy   TEWEN  =     -2526.08836804
  -Hartree energ DENC   =     -1355.27775866
  -exchange      EXHF   =         0.00000000
  -V(xc)+E(xc)   XCENC  =       140.74864596
  PAW double counting   =      3638.12644519    -3981.02115385
  entropy T*S    EENTRO =         0.00000000
  eigenvalues    EBANDS =      -126.88107901
  atomic energy  EATOM  =      4048.05923486
  Solvation  Ediel_sol  =         0.00000000
  ---------------------------------------------------
  free energy    TOTEN  =       -15.17669576 eV

  energy without entropy =      -15.17669576  energy(sigma->0) =      -15.17669576


--------------------------------------------------------------------------------------------------------




--------------------------------------- Iteration      1(   7)  ---------------------------------------


    POTLOK:  cpu time      0.0036: real time      0.0038
    SETDIJ:  cpu time      0.0759: real time      0.0762
     EDDAV:  cpu time      1.6767: real time      1.6827
 BZINTS: Fermi energy:    2.320005;   36.000000 electrons
         Band energy:-0.119791E+03;  BLOECHL correction:    0.000000
       DOS:  cpu time      0.1538: real time      0.1542
    CHARGE:  cpu time      0.0882: real time      0.0886
    MIXING:  cpu time      0.0006: real time      0.0006
    --------------------------------------------
      LOOP:  cpu time      1.9988: real time      2.0060

 eigenvalue-minimisations  :  4458
 total energy-change (2. order) : 0.3033139E-01  (-0.6837899E-01)
 number of electron      35.9999784 magnetization 
 augmentation part       14.4082013 magnetization 

 Broyden mixing:
  rms(total) = 0.32901E+00    rms(broyden)= 0.32901E+00
  rms(prec ) = 0.34176E+00
  weight for this iteration     100.00

 eigenvalues of (default mixing * dielectric matrix)
  average eigenvalue GAMMA=   1.7181
  0.8895  2.5467

 Free energy of the ion-electron system (eV)
  ---------------------------------------------------
  alpha Z        PSCENC =       147.15733780
  Ewald energy   TEWEN  =     -2526.08836804
  -Hartree energ DENC   =     -1357.61422882
  -exchange      EXHF   =         0.00000000
  -V(xc)+E(xc)   XCENC  =       141.10459464
  PAW double counting   =      4030.54699762    -4378.52061116
  entropy T*S    EENTRO =         0.00000000
  eigenvalues    EBANDS =      -119.79132126
  atomic energy  EATOM  =      4048.05923486
  Solvation  Ediel_sol  =         0.00000000
  ---------------------------------------------------
  free energy    TOTEN  =       -15.14636437 eV

  energy without entropy =      -15.14636437  energy(sigma->0) =      -15.14636437


--------------------------------------------------------------------------------------------------------




--------------------------------------- Iteration      1(   8)  ---------------------------------------


    POTLOK:  cpu time      0.0036: real time      0.0039
    SETDIJ:  cpu time      0.0757: real time      0.0760
     EDDAV:  cpu time      1.6429: real time      1.6487
 BZINTS: Fermi energy:    2.310005;   36.000000 electrons
         Band energy:-0.120487E+03;  BLOECHL correction:    0.000000
       DOS:  cpu time      0.1524: real time      0.1529
    CHARGE:  cpu time      0.0886: real time      0.0889
    MIXING:  cpu time      0.0005: real time      0.0005
    --------------------------------------------
      LOOP:  cpu time      1.9638: real time      1.9709

 eigenvalue-minimisations  :  4314
 total energy-change (2. order) : 0.6028048E-02  (-0.1317355E-02)
 number of electron      35.9999784 magnetization 
 augmentation part       14.4116784 magnetization 

 Broyden mixing:
  rms(total) = 0.65999E-01    rms(broyden)= 0.65998E-01
  rms(prec ) = 0.72851E-01
  weight for this iteration     100.00

 eigenvalues of (default mixing * dielectric matrix)
  average eigenvalue GAMMA=   1.5528
  2.4667  0.9712  1.2205

 Free energy of the ion-electron system (eV)
  ---------------------------------------------------
  alpha Z        PSCENC =       147.15733780
  Ewald energy   TEWEN  =     -2526.08836804
  -Hartree energ DENC   =     -1355.54652427
  -exchange      EXHF   =         0.00000000
  -V(xc)+E(xc)   XCENC  =       141.07560714
  PAW double counting   =      4321.71369851    -4671.02480132
  entropy T*S    EENTRO =         0.00000000
  eigenvalues    EBANDS =      -120.48652100
  atomic energy  EATOM  =      4048.05923486
  Solvation  Ediel_sol  =         0.00000000
  ---------------------------------------------------
  free energy    TOTEN  =       -15.14033632 eV

  energy without entropy =      -15.14033632  energy(sigma->0) =      -15.14033632


--------------------------------------------------------------------------------------------------------




--------------------------------------- Iteration      1(   9)  ---------------------------------------


    POTLOK:  cpu time      0.0037: real time      0.0039
    SETDIJ:  cpu time      0.0759: real time      0.0761
     EDDAV:  cpu time      1.6598: real time      1.6660
 BZINTS: Fermi energy:    2.300002;   36.000000 electrons
         Band energy:-0.120982E+03;  BLOECHL correction:    0.000000
       DOS:  cpu time      0.1554: real time      0.1563
    CHARGE:  cpu time      0.0882: real time      0.0885
    MIXING:  cpu time      0.0006: real time      0.0005
    --------------------------------------------
      LOOP:  cpu time      1.9835: real time      1.9913

 eigenvalue-minimisations  :  4382
 total energy-change (2. order) : 0.6509324E-03  (-0.2733464E-03)
 number of electron      35.9999784 magnetization 
 augmentation part       14.4118576 magnetization 

 Broyden mixing:
  rms(total) = 0.16735E-01    rms(broyden)= 0.16734E-01
  rms(prec ) = 0.18009E-01
  weight for this iteration     100.00

 eigenvalues of (default mixing * dielectric matrix)
  average eigenvalue GAMMA=   1.2391
  2.4440  1.2219  0.9692  0.3211

 Free energy of the ion-electron system (eV)
  ---------------------------------------------------
  alpha Z        PSCENC =       147.15733780
  Ewald energy   TEWEN  =     -2526.08836804
  -Hartree energ DENC   =     -1354.81707731
  -exchange      EXHF   =         0.00000000
  -V(xc)+E(xc)   XCENC  =       141.04661955
  PAW double counting   =      4391.60417917    -4741.11948804
  entropy T*S    EENTRO =         0.00000000
  eigenvalues    EBANDS =      -120.98212337
  atomic energy  EATOM  =      4048.05923486
  Solvation  Ediel_sol  =         0.00000000
  ---------------------------------------------------
  free energy    TOTEN  =       -15.13968539 eV

  energy without entropy =      -15.13968539  energy(sigma->0) =      -15.13968539


--------------------------------------------------------------------------------------------------------




--------------------------------------- Iteration      1(  10)  ---------------------------------------


    POTLOK:  cpu time      0.0036: real time      0.0039
    SETDIJ:  cpu time      0.0758: real time      0.0761
     EDDAV:  cpu time      1.6876: real time      1.6934
 BZINTS: Fermi energy:    2.290005;   36.000000 electrons
         Band energy:-0.121021E+03;  BLOECHL correction:    0.000000
       DOS:  cpu time      0.1527: real time      0.1532
    CHARGE:  cpu time      0.0880: real time      0.0884
    MIXING:  cpu time      0.0006: real time      0.0006
    --------------------------------------------
      LOOP:  cpu time      2.0084: real time      2.0156

 eigenvalue-minimisations  :  4480
 total energy-change (2. order) :-0.8378529E-04  (-0.1806565E-04)
 number of electron      35.9999784 magnetization 
 augmentation part       14.4121409 magnetization 

 Broyden mixing:
  rms(total) = 0.10081E-01    rms(broyden)= 0.10081E-01
  rms(prec ) = 0.11294E-01
  weight for this iteration     100.00

 eigenvalues of (default mixing * dielectric matrix)
  average eigenvalue GAMMA=   1.6181
  2.2546  2.2546  0.9709  1.0802  1.5301

 Free energy of the ion-electron system (eV)
  ---------------------------------------------------
  alpha Z        PSCENC =       147.15733780
  Ewald energy   TEWEN  =     -2526.08836804
  -Hartree energ DENC   =     -1354.83030512
  -exchange      EXHF   =         0.00000000
  -V(xc)+E(xc)   XCENC  =       141.04524339
  PAW double counting   =      4381.12991629    -4730.59168089
  entropy T*S    EENTRO =         0.00000000
  eigenvalues    EBANDS =      -121.02114745
  atomic energy  EATOM  =      4048.05923486
  Solvation  Ediel_sol  =         0.00000000
  ---------------------------------------------------
  free energy    TOTEN  =       -15.13976918 eV

  energy without entropy =      -15.13976918  energy(sigma->0) =      -15.13976918


--------------------------------------------------------------------------------------------------------




--------------------------------------- Iteration      1(  11)  ---------------------------------------


    POTLOK:  cpu time      0.0036: real time      0.0039
    SETDIJ:  cpu time      0.0759: real time      0.0761
     EDDAV:  cpu time      1.5836: real time      1.5889
 BZINTS: Fermi energy:    2.300005;   36.000000 electrons
         Band energy:-0.120979E+03;  BLOECHL correction:    0.000000
       DOS:  cpu time      0.1531: real time      0.1536
    CHARGE:  cpu time      0.0879: real time      0.0882
    MIXING:  cpu time      0.0006: real time      0.0006
    --------------------------------------------
      LOOP:  cpu time      1.9047: real time      1.9113

 eigenvalue-minimisations  :  4100
 total energy-change (2. order) :-0.9897815E-04  (-0.5817858E-05)
 number of electron      35.9999784 magnetization 
 augmentation part       14.4124659 magnetization 

 Broyden mixing:
  rms(total) = 0.21912E-02    rms(broyden)= 0.21912E-02
  rms(prec ) = 0.24715E-02
  weight for this iteration     100.00

 eigenvalues of (default mixing * dielectric matrix)
  average eigenvalue GAMMA=   1.6030
  2.8340  2.4140  0.9557  0.9557  1.2416  1.2170

 Free energy of the ion-electron system (eV)
  ---------------------------------------------------
  alpha Z        PSCENC =       147.15733780
  Ewald energy   TEWEN  =     -2526.08836804
  -Hartree energ DENC   =     -1354.87824726
  -exchange      EXHF   =         0.00000000
  -V(xc)+E(xc)   XCENC  =       141.04848208
  PAW double counting   =      4372.01731842    -4721.47699688
  entropy T*S    EENTRO =         0.00000000
  eigenvalues    EBANDS =      -120.97862913
  atomic energy  EATOM  =      4048.05923486
  Solvation  Ediel_sol  =         0.00000000
  ---------------------------------------------------
  free energy    TOTEN  =       -15.13986815 eV

  energy without entropy =      -15.13986815  energy(sigma->0) =      -15.13986815


--------------------------------------------------------------------------------------------------------




--------------------------------------- Iteration      1(  12)  ---------------------------------------


    POTLOK:  cpu time      0.0038: real time      0.0041
    SETDIJ:  cpu time      0.0760: real time      0.0762
     EDDAV:  cpu time      1.5908: real time      1.5964
 BZINTS: Fermi energy:    2.300005;   36.000000 electrons
         Band energy:-0.120942E+03;  BLOECHL correction:    0.000000
       DOS:  cpu time      0.1524: real time      0.1530
    --------------------------------------------
      LOOP:  cpu time      1.8230: real time      1.8297

 eigenvalue-minimisations  :  4080
 total energy-change (2. order) :-0.5138711E-05  (-0.1405172E-05)
 number of electron      35.9999784 magnetization 
 augmentation part       14.4124659 magnetization 

 Free energy of the ion-electron system (eV)
  ---------------------------------------------------
  alpha Z        PSCENC =       147.15733780
  Ewald energy   TEWEN  =     -2526.08836804
  -Hartree energ DENC   =     -1354.89577775
  -exchange      EXHF   =         0.00000000
  -V(xc)+E(xc)   XCENC  =       141.04954416
  PAW double counting   =      4373.23767417    -4722.71777119
  entropy T*S    EENTRO =         0.00000000
  eigenvalues    EBANDS =      -120.94174729
  atomic energy  EATOM  =      4048.05923486
  Solvation  Ediel_sol  =         0.00000000
  ---------------------------------------------------
  free energy    TOTEN  =       -15.13987329 eV

  energy without entropy =      -15.13987329  energy(sigma->0) =      -15.13987329


--------------------------------------------------------------------------------------------------------




 average (electrostatic) potential at core
  the test charge radii are     0.9521  0.9698
  (the norm of the test charge is              1.0000)
       1 -35.8914       2 -35.8914       3 -88.5066       4 -88.5066
 
 
 
 E-fermi :   2.3000     XC(G=0):  -9.9683     alpha+bet : -8.2734

 val. band max:        2.2921712193   @ k =   0.0000   0.0000   0.0000
 cond. band min:       4.4480859690   @ k =   0.0000   0.0000   0.0000
 fundamental gap:      2.1559147497
 Fermi energy:         2.3000048828

 k-point     1 :       0.0000    0.0000    0.0000
  band No.  band energies     occupation 
      1     -11.0899      2.00000
      2     -10.0908      2.00000
      3      -4.1971      2.00000
      4      -4.1807      2.00000
      5      -4.1807      2.00000
      6      -4.0945      2.00000
      7      -4.0944      2.00000
      8      -3.7116      2.00000
      9      -3.7116      2.00000
     10      -3.6280      2.00000
     11      -3.6280      2.00000
     12      -3.4887      2.00000
     13      -3.2694      2.00000
     14       1.3487      2.00000
     15       1.3487      2.00000
     16       2.2020      2.00000
     17       2.2921      2.00000
     18       2.2922      2.00000
     19       4.4481      0.00000
     20       5.3160      0.00000
     21       8.5061      0.00000
     22       8.5061      0.00000
     23       8.7659      0.00000
     24       9.9355      0.00000
     25       9.9355      0.00000
     26      11.4936      0.00000
     27      12.3008      0.00000
     28      12.3009      0.00000
     29      13.4098      0.00000
     30      14.5437      0.00000
     31      14.5438      0.00000
     32      14.8016      0.00000
     33      15.7575      0.00000
     34      18.1497      0.00000

 k-point     2 :       0.1000    0.0000    0.0000
  band No.  band energies     occupation 
      1     -11.0183      2.00000
      2     -10.0503      2.00000
      3      -4.1932      2.00000
      4      -4.1773      2.00000
      5      -4.1666      2.00000
      6      -4.0884      2.00000
      7      -4.0739      2.00000
      8      -3.7221      2.00000
      9      -3.7126      2.00000
     10      -3.6846      2.00000
     11      -3.6246      2.00000
     12      -3.4350      2.00000
     13      -3.1729      2.00000
     14       0.7870      2.00000
     15       1.1804      2.00000
     16       1.6543      2.00000
     17       2.1105      2.00000
     18       2.2020      2.00000
     19       5.0242      0.00000
     20       5.8250      0.00000
     21       8.1743      0.00000
     22       8.7094      0.00000
     23       8.9749      0.00000
     24       9.7472      0.00000
     25      10.2527      0.00000
     26      11.0324      0.00000
     27      11.6695      0.00000
     28      12.0873      0.00000
     29      14.3808      0.00000
     30      14.8097      0.00000
     31      14.9931      0.00000
     32      15.6933      0.00000
     33      16.4578      0.00000
     34      17.4674      0.00000

 k-point     3 :       0.2000    0.0000    0.0000
  band No.  band energies     occupation 
      1     -10.8171      2.00000
      2      -9.9457      2.00000
      3      -4.2055      2.00000
      4      -4.1470      2.00000
      5      -4.1324      2.00000
      6      -4.0580      2.00000
      7      -4.0181      2.00000
      8      -3.7480      2.00000
      9      -3.7291      2.00000
     10      -3.7082      2.00000
     11      -3.6167      2.00000
     12      -3.3991      2.00000
     13      -2.8963      2.00000
     14      -0.3053      2.00000
     15       0.5571      2.00000
     16       0.7879      2.00000
     17       1.8225      2.00000
     18       1.9617      2.00000
     19       5.8694      0.00000
     20       6.3618      0.00000
     21       8.0194      0.00000
     22       8.8965      0.00000
     23       9.1040      0.00000
     24      10.0253      0.00000
     25      10.3400      0.00000
     26      11.0940      0.00000
     27      11.2266      0.00000
     28      12.0589      0.00000
     29      14.7740      0.00000
     30      15.7455      0.00000
     31      16.1730      0.00000
     32      16.9447      0.00000
     33      17.5409      0.00000
     34      17.8160      0.00000

 k-point     4 :       0.3000    0.0000    0.0000
  band No.  band energies     occupation 
      1     -10.5307      2.00000
      2      -9.8267      2.00000
      3      -4.2073      2.00000
      4      -4.1159      2.00000
      5      -4.0983      2.00000
      6      -3.9804      2.00000
      7      -3.9462      2.00000
      8      -3.7876      2.00000
      9      -3.7295      2.00000
     10      -3.6881      2.00000
     11      -3.6056      2.00000
     12      -3.3468      2.00000
     13      -2.6094      2.00000
     14      -1.2642      2.00000
     15      -0.4993      2.00000
     16       0.3646      2.00000
     17       1.3463      2.00000
     18       1.6702      2.00000
     19       6.1325      0.00000
     20       6.3827      0.00000
     21       7.9333      0.00000
     22       8.8403      0.00000
     23       9.2411      0.00000
     24      10.4417      0.00000
     25      10.9352      0.00000
     26      11.5030      0.00000
     27      12.2535      0.00000
     28      12.8968      0.00000
     29      14.2268      0.00000
     30      15.8743      0.00000
     31      16.1501      0.00000
     32      17.4503      0.00000
     33      18.6774      0.00000
     34      18.6873      0.00000

 k-point     5 :       0.4000    0.0000    0.0000
  band No.  band energies     occupation 
      1     -10.2439      2.00000
      2      -9.7596      2.00000
      3      -4.1916      2.00000
      4      -4.0787      2.00000
      5      -4.0573      2.00000
      6      -3.8866      2.00000
      7      -3.8680      2.00000
      8      -3.8455      2.00000
      9      -3.6928      2.00000
     10      -3.6567      2.00000
     11      -3.5942      2.00000
     12      -3.2942      2.00000
     13      -2.6767      2.00000
     14      -1.6613      2.00000
     15      -1.1828      2.00000
     16       0.0516      2.00000
     17       0.7924      2.00000
     18       1.4439      2.00000
     19       5.8912      0.00000
     20       6.5022      0.00000
     21       7.4521      0.00000
     22       9.1606      0.00000
     23       9.3215      0.00000
     24      10.7490      0.00000
     25      11.1658      0.00000
     26      13.0059      0.00000
     27      13.5894      0.00000
     28      14.1801      0.00000
     29      14.3698      0.00000
     30      15.1358      0.00000
     31      16.2471      0.00000
     32      17.4434      0.00000
     33      17.5958      0.00000
     34      18.1952      0.00000

 k-point     6 :       0.5000    0.0000    0.0000
  band No.  band energies     occupation 
      1     -10.1039      2.00000
      2      -9.7572      2.00000
      3      -4.1844      2.00000
      4      -4.0732      2.00000
      5      -3.9689      2.00000
      6      -3.9299      2.00000
      7      -3.8644      2.00000
      8      -3.7980      2.00000
      9      -3.6404      2.00000
     10      -3.5889      2.00000
     11      -3.5386      2.00000
     12      -3.4927      2.00000
     13      -2.6818      2.00000
     14      -1.9719      2.00000
     15      -1.1487      2.00000
     16      -0.0637      2.00000
     17       0.4919      2.00000
     18       1.3590      2.00000
     19       5.8103      0.00000
     20       6.4986      0.00000
     21       7.2616      0.00000
     22       9.1070      0.00000
     23       9.6980      0.00000
     24      10.5868      0.00000
     25      11.2791      0.00000
     26      13.7328      0.00000
     27      14.3547      0.00000
     28      14.7729      0.00000
     29      15.1079      0.00000
     30      15.8633      0.00000
     31      16.1337      0.00000
     32      16.4469      0.00000
     33      16.9514      0.00000
     34      17.3866      0.00000

 k-point     7 :       0.1000    0.1000    0.0000
  band No.  band energies     occupation 
      1     -10.8817      2.00000
      2      -9.9776      2.00000
      3      -4.1959      2.00000
      4      -4.1535      2.00000
      5      -4.1480      2.00000
      6      -4.0740      2.00000
      7      -4.0334      2.00000
      8      -3.7361      2.00000
      9      -3.7260      2.00000
     10      -3.7099      2.00000
     11      -3.6195      2.00000
     12      -3.4073      2.00000
     13      -2.9811      2.00000
     14       0.0753      2.00000
     15       0.6321      2.00000
     16       1.0693      2.00000
     17       1.9268      2.00000
     18       1.9638      2.00000
     19       5.7033      0.00000
     20       6.4752      0.00000
     21       7.8402      0.00000
     22       8.7822      0.00000
     23       9.2692      0.00000
     24       9.6259      0.00000
     25      10.6636      0.00000
     26      10.7731      0.00000
     27      11.2371      0.00000
     28      12.0874      0.00000
     29      14.8497      0.00000
     30      15.5612      0.00000
     31      15.7981      0.00000
     32      16.7445      0.00000
     33      17.1434      0.00000
     34      17.6020      0.00000

 k-point     8 :       0.2000    0.1000    0.0000
  band No.  band energies     occupation 
      1     -10.6365      2.00000
      2      -9.8655      2.00000
      3      -4.1907      2.00000
      4      -4.1260      2.00000
      5      -4.1159      2.00000
      6      -4.0287      2.00000
      7      -3.9650      2.00000
      8      -3.7613      2.00000
      9      -3.7372      2.00000
     10      -3.7065      2.00000
     11      -3.6097      2.00000
     12      -3.3694      2.00000
     13      -2.6887      2.00000
     14      -0.8336      2.00000
     15      -0.2102      2.00000
     16       0.4049      2.00000
     17       1.5588      2.00000
     18       1.6002      2.00000
     19       6.4259      0.00000
     20       6.7547      0.00000
     21       8.0122      0.00000
     22       8.3604      0.00000
     23       9.1669      0.00000
     24      10.1404      0.00000
     25      10.6165      0.00000
     26      11.1184      0.00000
     27      12.1780      0.00000
     28      12.3775      0.00000
     29      14.8403      0.00000
     30      15.5387      0.00000
     31      16.6511      0.00000
     32      17.6824      0.00000
     33      17.8428      0.00000
     34      18.1621      0.00000

 k-point     9 :       0.3000    0.1000    0.0000
  band No.  band energies     occupation 
      1     -10.3440      2.00000
      2      -9.7738      2.00000
      3      -4.1774      2.00000
      4      -4.0910      2.00000
      5      -4.0731      2.00000
      6      -3.9413      2.00000
      7      -3.8924      2.00000
      8      -3.8046      2.00000
      9      -3.7223      2.00000
     10      -3.6835      2.00000
     11      -3.5952      2.00000
     12      -3.2922      2.00000
     13      -2.5789      2.00000
     14      -1.4490      2.00000
     15      -0.9674      2.00000
     16      -0.1206      2.00000
     17       1.0386      2.00000
     18       1.2741      2.00000
     19       6.4879      0.00000
     20       6.8046      0.00000
     21       7.5447      0.00000
     22       9.0108      0.00000
     23       9.0550      0.00000
     24      10.7947      0.00000
     25      11.0360      0.00000
     26      11.5842      0.00000
     27      13.2293      0.00000
     28      13.4980      0.00000
     29      14.8042      0.00000
     30      15.4886      0.00000
     31      15.9484      0.00000
     32      17.6473      0.00000
     33      18.0423      0.00000
     34      18.5616      0.00000

 k-point    10 :       0.4000    0.1000    0.0000
  band No.  band energies     occupation 
      1     -10.1114      2.00000
      2      -9.7533      2.00000
      3      -4.1725      2.00000
      4      -4.0735      2.00000
      5      -3.9766      2.00000
      6      -3.8791      2.00000
      7      -3.8652      2.00000
      8      -3.8132      2.00000
      9      -3.6688      2.00000
     10      -3.6528      2.00000
     11      -3.5657      2.00000
     12      -3.3610      2.00000
     13      -2.6659      2.00000
     14      -1.8486      2.00000
     15      -1.1455      2.00000
     16      -0.3263      2.00000
     17       0.5364      2.00000
     18       1.0869      2.00000
     19       6.3425      0.00000
     20       6.8570      0.00000
     21       7.1565      0.00000
     22       9.1057      0.00000
     23       9.5819      0.00000
     24      10.8125      0.00000
     25      11.2420      0.00000
     26      12.9142      0.00000
     27      14.1167      0.00000
     28      14.1416      0.00000
     29      14.9524      0.00000
     30      15.7238      0.00000
     31      16.1050      0.00000
     32      16.5033      0.00000
     33      16.9195      0.00000
     34      18.1537      0.00000

 k-point    11 :       0.2000    0.2000    0.0000
  band No.  band energies     occupation 
      1     -10.3811      2.00000
      2      -9.7808      2.00000
      3      -4.1413      2.00000
      4      -4.1168      2.00000
      5      -4.0657      2.00000
      6      -3.9828      2.00000
      7      -3.8976      2.00000
      8      -3.7663      2.00000
      9      -3.7370      2.00000
     10      -3.7127      2.00000
     11      -3.5951      2.00000
     12      -3.2976      2.00000
     13      -2.5399      2.00000
     14      -1.1009      2.00000
     15      -1.0193      2.00000
     16      -0.2993      2.00000
     17       1.0466      2.00000
     18       1.1479      2.00000
     19       7.0788      0.00000
     20       7.4206      0.00000
     21       7.6545      0.00000
     22       8.0952      0.00000
     23       9.4412      0.00000
     24      10.0904      0.00000
     25      11.0625      0.00000
     26      11.1356      0.00000
     27      12.9723      0.00000
     28      13.4718      0.00000
     29      15.0619      0.00000
     30      15.4832      0.00000
     31      16.6703      0.00000
     32      17.2107      0.00000
     33      18.1259      0.00000
     34      18.2233      0.00000

 k-point    12 :       0.3000    0.2000    0.0000
  band No.  band energies     occupation 
      1     -10.1232      2.00000
      2      -9.7475      2.00000
      3      -4.1574      2.00000
      4      -4.0498      2.00000
      5      -3.9622      2.00000
      6      -3.9169      2.00000
      7      -3.8433      2.00000
      8      -3.7819      2.00000
      9      -3.7272      2.00000
     10      -3.6969      2.00000
     11      -3.5676      2.00000
     12      -3.2580      2.00000
     13      -2.5780      2.00000
     14      -1.6501      2.00000
     15      -1.0729      2.00000
     16      -0.7978      2.00000
     17       0.6060      2.00000
     18       0.6535      2.00000
     19       6.8374      0.00000
     20       7.4690      0.00000
     21       7.6476      0.00000
[...]
     25      11.4579      0.00000
     26      11.4579      0.00000
     27      14.5522      0.00000
     28      14.5522      0.00000
     29      16.0728      0.00000
     30      16.0728      0.00000
     31      16.9877      0.00000
     32      16.9877      0.00000
     33      18.3273      0.00000
     34      18.3289      0.00000

 k-point    49 :       0.1000    0.1000    0.5000
  band No.  band energies     occupation 
      1     -10.4643      2.00000
      2     -10.4643      2.00000
      3      -4.2080      2.00000
      4      -4.2080      2.00000
      5      -4.1096      2.00000
      6      -4.1096      2.00000
      7      -4.0840      2.00000
      8      -4.0840      2.00000
      9      -3.6638      2.00000
     10      -3.6638      2.00000
     11      -3.6580      2.00000
     12      -3.6580      2.00000
     13      -0.8102      2.00000
     14      -0.8101      2.00000
     15       0.8464      2.00000
     16       0.8464      2.00000
     17       1.3640      2.00000
     18       1.3640      2.00000
     19       6.8591      0.00000
     20       6.8592      0.00000
     21       7.7856      0.00000
     22       7.7856      0.00000
     23       9.3955      0.00000
     24       9.3955      0.00000
     25       9.9121      0.00000
     26       9.9121      0.00000
     27      13.5334      0.00000
     28      13.5334      0.00000
     29      13.9505      0.00000
     30      13.9505      0.00000
     31      16.1687      0.00000
     32      16.1687      0.00000
     33      17.6449      0.00000
     34      17.6449      0.00000

 k-point    50 :       0.2000    0.1000    0.5000
  band No.  band energies     occupation 
      1     -10.2714      2.00000
      2     -10.2714      2.00000
      3      -4.2069      2.00000
      4      -4.2069      2.00000
      5      -4.0643      2.00000
      6      -4.0643      2.00000
      7      -4.0281      2.00000
      8      -4.0281      2.00000
      9      -3.6611      2.00000
     10      -3.6611      2.00000
     11      -3.6394      2.00000
     12      -3.6394      2.00000
     13      -1.2633      2.00000
     14      -1.2633      2.00000
     15       0.4991      2.00000
     16       0.4991      2.00000
     17       0.9201      2.00000
     18       0.9201      2.00000
     19       6.7847      0.00000
     20       6.7847      0.00000
     21       7.9828      0.00000
     22       7.9829      0.00000
     23       9.4549      0.00000
     24       9.4549      0.00000
     25      10.5714      0.00000
     26      10.5714      0.00000
     27      13.3195      0.00000
     28      13.3195      0.00000
     29      14.1831      0.00000
     30      14.1831      0.00000
     31      16.8268      0.00000
     32      16.8268      0.00000
     33      19.0048      0.00000
     34      19.0048      0.00000

 k-point    51 :       0.3000    0.1000    0.5000
  band No.  band energies     occupation 
      1     -10.0619      2.00000
      2     -10.0619      2.00000
      3      -4.1952      2.00000
      4      -4.1952      2.00000
      5      -4.0018      2.00000
      6      -4.0018      2.00000
      7      -3.9607      2.00000
      8      -3.9606      2.00000
      9      -3.6525      2.00000
     10      -3.6525      2.00000
     11      -3.5868      2.00000
     12      -3.5867      2.00000
     13      -1.9953      2.00000
     14      -1.9953      2.00000
     15       0.3466      2.00000
     16       0.3466      2.00000
     17       0.6843      2.00000
     18       0.6843      2.00000
     19       6.3231      0.00000
     20       6.3231      0.00000
     21       7.9035      0.00000
     22       7.9035      0.00000
     23      10.1146      0.00000
     24      10.1146      0.00000
     25      11.0229      0.00000
     26      11.0229      0.00000
     27      13.5880      0.00000
     28      13.5881      0.00000
     29      15.0243      0.00000
     30      15.0243      0.00000
     31      17.2260      0.00000
     32      17.2260      0.00000
     33      19.1899      0.00000
     34      19.1899      0.00000

 k-point    52 :       0.4000    0.1000    0.5000
  band No.  band energies     occupation 
      1      -9.9225      2.00000
      2      -9.9225      2.00000
      3      -4.1835      2.00000
      4      -4.1835      2.00000
      5      -3.9781      2.00000
      6      -3.9781      2.00000
      7      -3.8741      2.00000
      8      -3.8741      2.00000
      9      -3.6420      2.00000
     10      -3.6420      2.00000
     11      -3.4677      2.00000
     12      -3.4677      2.00000
     13      -2.6046      2.00000
     14      -2.6046      2.00000
     15       0.1712      2.00000
     16       0.1712      2.00000
     17       0.7226      2.00000
     18       0.7226      2.00000
     19       6.0483      0.00000
     20       6.0483      0.00000
     21       7.6687      0.00000
     22       7.6687      0.00000
     23      10.2412      0.00000
     24      10.2412      0.00000
     25      11.8234      0.00000
     26      11.8234      0.00000
     27      14.0728      0.00000
     28      14.0728      0.00000
     29      16.2095      0.00000
     30      16.2095      0.00000
     31      16.9123      0.00000
     32      16.9123      0.00000
     33      18.3456      0.00000
     34      18.3456      0.00000

 k-point    53 :       0.2000    0.2000    0.5000
  band No.  band energies     occupation 
      1     -10.0863      2.00000
      2     -10.0863      2.00000
      3      -4.1713      2.00000
      4      -4.1713      2.00000
      5      -4.0164      2.00000
      6      -4.0164      2.00000
      7      -3.9903      2.00000
      8      -3.9903      2.00000
      9      -3.6619      2.00000
     10      -3.6619      2.00000
     11      -3.5876      2.00000
     12      -3.5876      2.00000
     13      -1.7955      2.00000
     14      -1.7955      2.00000
     15       0.1882      2.00000
     16       0.1882      2.00000
     17       0.6346      2.00000
     18       0.6346      2.00000
     19       6.7931      0.00000
     20       6.7931      0.00000
     21       8.3266      0.00000
     22       8.3266      0.00000
     23       9.3489      0.00000
     24       9.3489      0.00000
     25      10.5715      0.00000
     26      10.5715      0.00000
     27      13.7772      0.00000
     28      13.7772      0.00000
     29      15.1618      0.00000
     30      15.1618      0.00000
     31      17.2605      0.00000
     32      17.2605      0.00000
     33      19.0374      0.00000
     34      19.0374      0.00000

 k-point    54 :       0.3000    0.2000    0.5000
  band No.  band energies     occupation 
      1      -9.9265      2.00000
      2      -9.9265      2.00000
      3      -4.1358      2.00000
      4      -4.1358      2.00000
      5      -3.9889      2.00000
      6      -3.9889      2.00000
      7      -3.9088      2.00000
      8      -3.9088      2.00000
      9      -3.6659      2.00000
     10      -3.6659      2.00000
     11      -3.4804      2.00000
     12      -3.4804      2.00000
     13      -2.3493      2.00000
     14      -2.3493      2.00000
     15      -0.3058      2.00000
     16      -0.3058      2.00000
     17       0.7502      2.00000
     18       0.7502      2.00000
     19       6.5827      0.00000
     20       6.5827      0.00000
     21       8.3685      0.00000
     22       8.3685      0.00000
     23       9.5454      0.00000
     24       9.5454      0.00000
     25      11.0171      0.00000
     26      11.0171      0.00000
     27      14.0063      0.00000
     28      14.0063      0.00000
     29      16.5046      0.00000
     30      16.5046      0.00000
     31      17.0189      0.00000
     32      17.0189      0.00000
     33      18.0746      0.00000
     34      18.0746      0.00000

 k-point    55 :       0.4000    0.2000    0.5000
  band No.  band energies     occupation 
      1      -9.8628      2.00000
      2      -9.8628      2.00000
      3      -4.1218      2.00000
      4      -4.1218      2.00000
      5      -3.9911      2.00000
      6      -3.9911      2.00000
      7      -3.8440      2.00000
      8      -3.8440      2.00000
      9      -3.6723      2.00000
     10      -3.6722      2.00000
     11      -3.3749      2.00000
     12      -3.3749      2.00000
     13      -2.6462      2.00000
     14      -2.6462      2.00000
     15      -0.4862      2.00000
     16      -0.4862      2.00000
     17       0.8120      2.00000
     18       0.8120      2.00000
     19       6.4823      0.00000
     20       6.4823      0.00000
     21       8.3064      0.00000
     22       8.3064      0.00000
     23       9.4790      0.00000
     24       9.4790      0.00000
     25      11.8673      0.00000
     26      11.8673      0.00000
     27      13.7071      0.00000
     28      13.7071      0.00000
     29      15.9869      0.00000
     30      15.9869      0.00000
     31      17.7685      0.00000
     32      17.7685      0.00000
     33      18.4102      0.00000
     34      18.4102      0.00000

 k-point    56 :       0.3000    0.3000    0.5000
  band No.  band energies     occupation 
      1      -9.8405      2.00000
      2      -9.8405      2.00000
      3      -4.0817      2.00000
      4      -4.0817      2.00000
      5      -4.0086      2.00000
      6      -4.0086      2.00000
      7      -3.8227      2.00000
      8      -3.8227      2.00000
      9      -3.6964      2.00000
     10      -3.6964      2.00000
     11      -3.3486      2.00000
     12      -3.3486      2.00000
     13      -2.5827      2.00000
     14      -2.5827      2.00000
     15      -0.8193      2.00000
     16      -0.8193      2.00000
     17       0.8466      2.00000
     18       0.8466      2.00000
     19       6.6861      0.00000
     20       6.6861      0.00000
     21       8.5293      0.00000
     22       8.5293      0.00000
     23       9.5756      0.00000
     24       9.5756      0.00000
     25      11.5239      0.00000
     26      11.5239      0.00000
     27      13.2266      0.00000
     28      13.2266      0.00000
     29      16.1850      0.00000
     30      16.1851      0.00000
     31      17.7809      0.00000
     32      17.7809      0.00000
     33      18.8547      0.00000
     34      18.8547      0.00000


--------------------------------------------------------------------------------------------------------


 soft charge-density along one line, spin component            1
         0         1         2         3         4         5         6         7         8         9
 total charge-density along one line
 
 pseudopotential strength for first ion, spin component:            1
 -9.720  -0.000  -0.000   0.000  -0.000 -10.091  -0.000  -0.000
 -0.000  -9.720  -0.000  -0.000   0.000  -0.000 -10.091  -0.000
 -0.000  -0.000  -9.720  -0.000   0.000  -0.000  -0.000 -10.091
  0.000  -0.000  -0.000  -9.720   0.000   0.000  -0.000  -0.000
 -0.000   0.000   0.000   0.000  -9.721  -0.000   0.000   0.000
-10.091  -0.000  -0.000   0.000  -0.000 -10.387  -0.000  -0.000
 -0.000 -10.091  -0.000  -0.000   0.000  -0.000 -10.387  -0.000
 -0.000  -0.000 -10.091  -0.000   0.000  -0.000  -0.000 -10.387
  0.000  -0.000  -0.000 -10.091   0.000   0.000  -0.000  -0.000
 -0.000   0.000   0.000   0.000 -10.091  -0.000   0.000   0.000
  0.000   0.000  -0.000  -0.000  -0.000   0.000   0.000  -0.000
  0.000   0.000  -0.000  -0.000  -0.000   0.000   0.000  -0.000
 -0.000   0.002   0.000   0.000  -0.002  -0.000   0.002  -0.000
  0.000   0.000  -0.002  -0.000  -0.000   0.000   0.000  -0.002
 -0.002   0.000  -0.000   0.002  -0.000  -0.002   0.000   0.000
 -0.000   0.001   0.000   0.000  -0.001  -0.000   0.001   0.000
  0.000   0.000  -0.001  -0.000  -0.000   0.000   0.000  -0.001
 -0.001   0.000  -0.000   0.001  -0.000  -0.001   0.000  -0.000
 total augmentation occupancy for first ion, spin component:            1
  3.579  -0.000   0.000  -0.708   0.000  -1.599   0.000  -0.000   0.708  -0.000   0.000   0.000  -0.000  -0.000  -0.588   0.000
 -0.000   3.083  -0.000  -0.000  -0.708   0.000  -1.104   0.000   0.000   0.708   0.000   0.000   0.421   0.000  -0.000  -0.064
  0.000  -0.000   4.071  -0.000   0.000  -0.000   0.000  -2.087   0.000  -0.000   0.004   0.000  -0.000  -0.716  -0.000   0.000
 -0.708  -0.000  -0.000   3.083   0.000   0.708   0.000   0.000  -1.104  -0.000  -0.000  -0.000  -0.000   0.000   0.421   0.000
  0.000  -0.708   0.000   0.000   3.579  -0.000   0.708  -0.000  -0.000  -1.599   0.000   0.000  -0.588  -0.000   0.000   0.089
 -1.599   0.000  -0.000   0.708  -0.000   1.611  -0.000   0.000  -0.708   0.000  -0.000  -0.000   0.000   0.000   0.571  -0.000
  0.000  -1.104   0.000   0.000   0.708  -0.000   1.117  -0.000  -0.000  -0.708  -0.000  -0.000  -0.409   0.000   0.000   0.071
 -0.000   0.000  -2.087   0.000  -0.000   0.000  -0.000   2.095  -0.000   0.000  -0.004  -0.000   0.000   0.695   0.000  -0.000
  0.708   0.000   0.000  -1.104  -0.000  -0.708  -0.000  -0.000   1.117   0.000   0.000  -0.000   0.000  -0.000  -0.409  -0.000
 -0.000   0.708  -0.000  -0.000  -1.599   0.000  -0.708   0.000   0.000   1.611  -0.000  -0.000   0.571   0.000  -0.000  -0.100
  0.000   0.000   0.004  -0.000   0.000  -0.000   0.000  -0.004   0.000  -0.000   2.662  -0.646   0.000  -0.003  -0.000  -0.000
  0.000   0.000   0.000  -0.000   0.000  -0.000   0.000  -0.000  -0.000  -0.000  -0.646   0.183   0.000   0.001  -0.000   0.000
 -0.000   0.421  -0.000  -0.000  -0.588   0.000  -0.409   0.000   0.000   0.571   0.000   0.000   0.387   0.000  -0.000  -0.068
 -0.000   0.000  -0.716   0.000  -0.000   0.000   0.000   0.695  -0.000   0.000  -0.003   0.001   0.000   0.387   0.000   0.000
 -0.588  -0.000  -0.000   0.421   0.000   0.571   0.000   0.000  -0.409  -0.000  -0.000   0.000  -0.000   0.000   0.387   0.000
  0.000  -0.064   0.000   0.000   0.089  -0.000   0.071  -0.000  -0.000  -0.100   0.000   0.000  -0.068   0.000   0.000   0.014
  0.000   0.000   0.109   0.000   0.000  -0.000  -0.000  -0.121   0.000  -0.000   0.001  -0.000  -0.000  -0.068  -0.000  -0.000
  0.089   0.000   0.000  -0.064  -0.000  -0.100  -0.000  -0.000   0.071   0.000   0.000   0.000   0.000  -0.000  -0.068  -0.000


------------------------ aborting loop because EDIFF is reached ----------------------------------------





 total charge

# of ion       s       p       d       tot
------------------------------------------
    1        0.532   0.505   9.796  10.833
    2        0.532   0.505   9.796  10.833
    3        1.309   2.437   0.000   3.746
    4        1.309   2.437   0.000   3.746
--------------------------------------------------
tot          3.681   5.884  19.592  29.158
 
    CHARGE:  cpu time      0.0947: real time      0.0950
    FORLOC:  cpu time      0.0012: real time      0.0012
    FORNL :  cpu time      0.2206: real time      0.2217
    FORCOR:  cpu time      0.0780: real time      0.0783
    FORHAR:  cpu time      0.0008: real time      0.0008
    MIXING:  cpu time      0.0005: real time      0.0005
    OFIELD:  cpu time      0.0000: real time      0.0000

 VOLUME and BASIS-vectors are now :
 -----------------------------------------------------------------------------
  energy-cutoff  :      276.72
  volume of cell :       76.84
      direct lattice vectors                 reciprocal lattice vectors
     3.781583874  0.000000000  0.000000000     0.264439461  0.152674194 -0.000000000
    -1.890791937  3.274947701  0.000000000     0.000000000  0.305348388  0.000000000
     0.000000000  0.000000000  6.204766233     0.000000000 -0.000000000  0.161166426

  length of vectors
     3.781583874  3.781583874  6.204766233     0.305348388  0.305348388  0.161166426


 FORCES acting on ions
    electron-ion (+dipol)            ewald-force                    non-local-force                 convergence-correction
 -----------------------------------------------------------------------------------------------
   -.606E-05 0.281E-04 -.428E+01   -.679E-07 0.325E-07 0.418E+01   0.104E-16 0.173E-16 0.907E-01   0.349E-06 -.205E-06 0.741E-03
   0.274E-04 0.881E-05 -.428E+01   0.679E-07 -.325E-07 0.418E+01   0.520E-17 -.694E-17 0.907E-01   -.352E-06 0.199E-06 0.741E-03
   -.609E-04 -.759E-04 0.417E+01   -.631E-07 0.304E-07 -.418E+01   0.208E-16 0.000E+00 0.180E-01   0.792E-07 -.463E-07 -.338E-03
   -.354E-04 -.906E-04 0.417E+01   0.631E-07 -.304E-07 -.418E+01   -.208E-16 0.139E-16 0.180E-01   -.797E-07 0.454E-07 -.338E-03
 -----------------------------------------------------------------------------------------------
   -.749E-04 -.130E-03 -.213E+00   -.187E-14 -.189E-14 0.000E+00   0.156E-16 0.243E-16 0.217E+00   -.348E-08 -.620E-08 0.805E-03
 
 
 POSITION                                       TOTAL-FORCE (eV/Angst)
 -----------------------------------------------------------------------------------
      1.89079      1.09165      3.10487         0.000000     -0.000000     -0.000144
     -0.00000      2.18330      0.00249        -0.000000      0.000000     -0.000144
      1.89079      1.09165      5.42668        -0.000000      0.000000      0.000144
     -0.00000      2.18330      2.32430         0.000000     -0.000000      0.000144
 -----------------------------------------------------------------------------------
    total drift:                               -0.000075     -0.000130      0.004947


--------------------------------------------------------------------------------------------------------



  FREE ENERGIE OF THE ION-ELECTRON SYSTEM (eV)
  ---------------------------------------------------
  free  energy   TOTEN  =       -15.13987329 eV

  energy  without entropy=      -15.13987329  energy(sigma->0) =      -15.13987329
 


--------------------------------------------------------------------------------------------------------


    POTLOK:  cpu time      0.0798: real time      0.0801


--------------------------------------------------------------------------------------------------------




--------------------------------------------------------------------------------------------------------


  
 reached required accuracy - stopping structural energy minimisation
     LOOP+:  cpu time     24.3390: real time     24.4694
    4ORBIT:  cpu time      0.0000: real time      0.0000



 total charge

# of ion       s       p       d       tot
------------------------------------------
    1        0.532   0.505   9.796  10.833
    2        0.532   0.505   9.796  10.833
    3        1.309   2.437   0.000   3.746
    4        1.309   2.437   0.000   3.746
--------------------------------------------------
tot          3.681   5.884  19.592  29.158
 
 BZINTS: Fermi energy:    2.300005;   36.000000 electrons
         Band energy:-0.120942E+03;  BLOECHL correction:    0.000000

 total amount of memory used by VASP MPI-rank0    59577. kBytes
=======================================================================

   base                                    :      30000. kBytes
   nonl-proj                               :      13277. kBytes
   fftplans                                :       1019. kBytes
   grid                                    :       1937. kBytes
   one-center                              :         62. kBytes
   wavefun                                 :      13282. kBytes
 
  
  
 General timing and accounting informations for this job:
 ========================================================
  
                  Total CPU time used (sec):       28.029
                            User time (sec):       25.601
                          System time (sec):        2.428
                         Elapsed time (sec):       30.553
  
                   Maximum memory used (kb):     1789540.
                   Average memory used (kb):          N/A
  
                          Minor page faults:       227652
                          Major page faults:         6585
                 Voluntary context switches:        24717
