<?xml version="1.0" encoding="ISO-8859-1"?>
<modeling>
 <generator>
  <i name="program" type="string">vasp </i>
  <i name="version" type="string">6.5.1  </i>
  <i name="subversion" type="string">10Mar25 (build May 13 2025 11:33:44) complex                          parallel </i>
  <i name="platform" type="string">LinuxNV </i>
  <i name="date" type="string">2026 05 15 </i>
  <i name="time" type="string">18:31:41 </i>
 </generator>
 <incar>
  <i type="string" name="PREC">Normal</i>
  <i type="string" name="ALGO">Normal</i>
  <i type="int" name="NELM">   100</i>
  <i type="int" name="IBRION">     2</i>
  <i name="EDIFF">      0.00001000</i>
  <i type="int" name="NSW">     1</i>
  <i type="int" name="ISIF">     0</i>
  <i name="ENCUT">    276.72300000</i>
  <i type="int" name="NBANDS">    34</i>
  <i type="int" name="NEDOS">  3202</i>
  <i type="logical" name="LREAL"> F  </i>
  <i name="EMIN">    -12.01000000</i>
  <i name="EMAX">     20.00000000</i>
  <i type="int" name="ISMEAR">    -4</i>
  <i name="SIGMA">      0.10000000</i>
  <i type="logical" name="LWAVE"> F  </i>
  <i type="logical" name="LCHARG"> F  </i>
  <i type="logical" name="LVTOT"> T  </i>
  <i type="int" name="LORBIT">    11</i>
  <i type="logical" name="LASPH"> T  </i>
  <i type="logical" name="LAECHG"> T  </i>
  <i type="string" name="GGA">Ps</i>
 </incar>
 <primitive_cell>
  <structure name="primitive_cell" >
   <crystal>
    <varray name="basis" >
     <v>       3.78158387       0.00000000       0.00000000 </v>
     <v>      -1.89079194       3.27494770       0.00000000 </v>
     <v>       0.00000000       0.00000000       6.20476623 </v>
    </varray>
    <i name="volume">     76.84286172 </i>
    <varray name="rec_basis" >
     <v>       0.26443946       0.15267419      -0.00000000 </v>
     <v>       0.00000000       0.30534839       0.00000000 </v>
     <v>       0.00000000      -0.00000000       0.16116643 </v>
    </varray>
   </crystal>
   <varray name="positions" >
    <v>       0.66666667       0.33333333       0.50040087 </v>
    <v>       0.33333333       0.66666667       0.00040087 </v>
    <v>       0.66666667       0.33333333       0.87459913 </v>
    <v>       0.33333333       0.66666667       0.37459913 </v>
   </varray>
  </structure>
  <varray name="primitive_index" >
   <v type="int" >        1 </v>
   <v type="int" >        2 </v>
   <v type="int" >        3 </v>
   <v type="int" >        4 </v>
  </varray>
 </primitive_cell>
 <kpoints>
  <generation param="Gamma">
   <v type="int" name="divisions">      10       10        6 </v>
   <v name="usershift">      0.00000000       0.00000000       0.00000000 </v>
   <v name="genvec1">      0.10000000       0.00000000       0.00000000 </v>
   <v name="genvec2">      0.00000000       0.10000000       0.00000000 </v>
   <v name="genvec3">      0.00000000       0.00000000       0.16666667 </v>
   <v name="shift">      0.00000000       0.00000000       0.00000000 </v>
  </generation>
  <varray name="kpointlist" >
   <v>       0.00000000       0.00000000       0.00000000 </v>
   <v>       0.10000000       0.00000000       0.00000000 </v>
   <v>       0.20000000       0.00000000       0.00000000 </v>
   <v>       0.30000000       0.00000000       0.00000000 </v>
   <v>       0.40000000       0.00000000       0.00000000 </v>
   <v>       0.50000000       0.00000000       0.00000000 </v>
   <v>       0.10000000       0.10000000       0.00000000 </v>
   <v>       0.20000000       0.10000000       0.00000000 </v>
   <v>       0.30000000       0.10000000       0.00000000 </v>
   <v>       0.40000000       0.10000000       0.00000000 </v>
   <v>       0.20000000       0.20000000       0.00000000 </v>
   <v>       0.30000000       0.20000000       0.00000000 </v>
   <v>       0.40000000       0.20000000       0.00000000 </v>
   <v>       0.30000000       0.30000000       0.00000000 </v>
   <v>       0.00000000       0.00000000       0.16666667 </v>
   <v>       0.10000000       0.00000000       0.16666667 </v>
   <v>       0.20000000       0.00000000       0.16666667 </v>
   <v>       0.30000000       0.00000000       0.16666667 </v>
   <v>       0.40000000       0.00000000       0.16666667 </v>
   <v>       0.50000000       0.00000000       0.16666667 </v>
   <v>       0.10000000       0.10000000       0.16666667 </v>
   <v>       0.20000000       0.10000000       0.16666667 </v>
   <v>       0.30000000       0.10000000       0.16666667 </v>
   <v>       0.40000000       0.10000000       0.16666667 </v>
   <v>       0.20000000       0.20000000       0.16666667 </v>
   <v>       0.30000000       0.20000000       0.16666667 </v>
   <v>       0.40000000       0.20000000       0.16666667 </v>
   <v>       0.30000000       0.30000000       0.16666667 </v>
   <v>       0.00000000       0.00000000       0.33333333 </v>
   <v>       0.10000000       0.00000000       0.33333333 </v>
   <v>       0.20000000       0.00000000       0.33333333 </v>
   <v>       0.30000000       0.00000000       0.33333333 </v>
   <v>       0.40000000       0.00000000       0.33333333 </v>
   <v>       0.50000000       0.00000000       0.33333333 </v>
   <v>       0.10000000       0.10000000       0.33333333 </v>
   <v>       0.20000000       0.10000000       0.33333333 </v>
   <v>       0.30000000       0.10000000       0.33333333 </v>
   <v>       0.40000000       0.10000000       0.33333333 </v>
   <v>       0.20000000       0.20000000       0.33333333 </v>
   <v>       0.30000000       0.20000000       0.33333333 </v>
   <v>       0.40000000       0.20000000       0.33333333 </v>
   <v>       0.30000000       0.30000000       0.33333333 </v>
   <v>       0.00000000       0.00000000       0.50000000 </v>
   <v>       0.10000000       0.00000000       0.50000000 </v>
   <v>       0.20000000       0.00000000       0.50000000 </v>
   <v>       0.30000000       0.00000000       0.50000000 </v>
   <v>       0.40000000       0.00000000       0.50000000 </v>
   <v>       0.50000000       0.00000000       0.50000000 </v>
   <v>       0.10000000       0.10000000       0.50000000 </v>
   <v>       0.20000000       0.10000000       0.50000000 </v>
   <v>       0.30000000       0.10000000       0.50000000 </v>
   <v>       0.40000000       0.10000000       0.50000000 </v>
   <v>       0.20000000       0.20000000       0.50000000 </v>
   <v>       0.30000000       0.20000000       0.50000000 </v>
   <v>       0.40000000       0.20000000       0.50000000 </v>
   <v>       0.30000000       0.30000000       0.50000000 </v>
  </varray>
  <varray name="weights" >
   <v>       0.00166667 </v>
   <v>       0.01000000 </v>
   <v>       0.01000000 </v>
   <v>       0.01000000 </v>
   <v>       0.01000000 </v>
   <v>       0.00500000 </v>
   <v>       0.01000000 </v>
   <v>       0.02000000 </v>
   <v>       0.02000000 </v>
   <v>       0.02000000 </v>
   <v>       0.01000000 </v>
   <v>       0.02000000 </v>
   <v>       0.01000000 </v>
   <v>       0.01000000 </v>
   <v>       0.00333333 </v>
   <v>       0.02000000 </v>
   <v>       0.02000000 </v>
   <v>       0.02000000 </v>
   <v>       0.02000000 </v>
   <v>       0.01000000 </v>
   <v>       0.02000000 </v>
   <v>       0.04000000 </v>
   <v>       0.04000000 </v>
   <v>       0.04000000 </v>
   <v>       0.02000000 </v>
   <v>       0.04000000 </v>
   <v>       0.02000000 </v>
   <v>       0.02000000 </v>
   <v>       0.00333333 </v>
   <v>       0.02000000 </v>
   <v>       0.02000000 </v>
   <v>       0.02000000 </v>
   <v>       0.02000000 </v>
   <v>       0.01000000 </v>
   <v>       0.02000000 </v>
   <v>       0.04000000 </v>
   <v>       0.04000000 </v>
   <v>       0.04000000 </v>
   <v>       0.02000000 </v>
   <v>       0.04000000 </v>
   <v>       0.02000000 </v>
   <v>       0.02000000 </v>
   <v>       0.00166667 </v>
   <v>       0.01000000 </v>
   <v>       0.01000000 </v>
   <v>       0.01000000 </v>
   <v>       0.01000000 </v>
   <v>       0.00500000 </v>
   <v>       0.01000000 </v>
   <v>       0.02000000 </v>
   <v>       0.02000000 </v>
   <v>       0.02000000 </v>
   <v>       0.01000000 </v>
   <v>       0.02000000 </v>
   <v>       0.01000000 </v>
   <v>       0.01000000 </v>
  </varray>
  <varray name="tetrahedronlist"  type="int" >
   <v type="int" >        8       24       26       27       41 </v>
   <v type="int" >        4       24       24       27       41 </v>
   <v type="int" >        4       24       24       38       41 </v>
   <v type="int" >        4       24       26       40       41 </v>
   <v type="int" >        8       24       38       40       41 </v>
   <v type="int" >        8       24       38       38       41 </v>
   <v type="int" >        8       16       17       21       35 </v>
   <v type="int" >        4       16       16       21       35 </v>
   <v type="int" >        4       16       16       30       35 </v>
   <v type="int" >        4       16       17       31       35 </v>
   <v type="int" >        8       16       30       31       35 </v>
   <v type="int" >        8       16       30       30       35 </v>
   <v type="int" >        4       26       26       28       42 </v>
   <v type="int" >        8       26       27       28       42 </v>
   <v type="int" >        4       26       27       41       42 </v>
   <v type="int" >        4       26       26       40       42 </v>
   <v type="int" >        8       26       40       40       42 </v>
   <v type="int" >        8       26       40       41       42 </v>
   <v type="int" >        8       17       18       22       36 </v>
   <v type="int" >        8       17       21       22       36 </v>
   <v type="int" >        4       17       21       35       36 </v>
   <v type="int" >        4       17       18       32       36 </v>
   <v type="int" >        8       17       31       32       36 </v>
   <v type="int" >        8       17       31       35       36 </v>
   <v type="int" >        8       26       27       28       41 </v>
   <v type="int" >        4       26       28       41       42 </v>
   <v type="int" >        4       24       26       38       41 </v>
   <v type="int" >        8       26       38       40       41 </v>
   <v type="int" >        8       18       19       23       37 </v>
   <v type="int" >        8       18       22       23       37 </v>
   <v type="int" >        4       18       22       36       37 </v>
   <v type="int" >        4       18       19       33       37 </v>
   <v type="int" >        8       18       32       33       37 </v>
   <v type="int" >        8       18       32       36       37 </v>
   <v type="int" >        8       20       24       24       38 </v>
   <v type="int" >        8       24       24       27       38 </v>
   <v type="int" >        4       24       27       38       41 </v>
   <v type="int" >        4       20       24       34       38 </v>
   <v type="int" >        8       24       34       38       38 </v>
   <v type="int" >        8       19       20       24       38 </v>
   <v type="int" >        8       19       23       24       38 </v>
   <v type="int" >        4       19       23       37       38 </v>
   <v type="int" >        4       19       20       34       38 </v>
   <v type="int" >        8       19       33       34       38 </v>
   <v type="int" >        8       19       33       37       38 </v>
   <v type="int" >        8       19       20       24       33 </v>
   <v type="int" >        4       20       24       33       38 </v>
   <v type="int" >        8       20       33       34       38 </v>
   <v type="int" >        4       20       24       38       38 </v>
   <v type="int" >        4       19       20       33       38 </v>
   <v type="int" >        4       20       34       38       38 </v>
   <v type="int" >        8       23       24       26       37 </v>
   <v type="int" >        8       19       23       24       37 </v>
   <v type="int" >        4       19       24       33       37 </v>
   <v type="int" >        4       24       26       37       40 </v>
   <v type="int" >        8       24       37       38       40 </v>
   <v type="int" >        8       24       33       37       38 </v>
   <v type="int" >        4       19       24       37       38 </v>
   <v type="int" >        4       18       19       32       37 </v>
   <v type="int" >        8       19       32       33       37 </v>
   <v type="int" >        4       25       26       26       39 </v>
   <v type="int" >        8       23       25       26       39 </v>
   <v type="int" >        4       23       26       37       39 </v>
   <v type="int" >        4       26       26       39       40 </v>
   <v type="int" >        8       26       39       40       40 </v>
   <v type="int" >        8       26       37       39       40 </v>
   <v type="int" >        8       18       22       23       36 </v>
   <v type="int" >        4       18       23       36       37 </v>
   <v type="int" >        4       17       18       31       36 </v>
   <v type="int" >        8       18       31       32       36 </v>
   <v type="int" >        8       23       25       26       37 </v>
   <v type="int" >        4       25       26       37       39 </v>
   <v type="int" >        4       24       26       37       38 </v>
   <v type="int" >        8       26       37       38       40 </v>
   <v type="int" >        8       17       21       22       35 </v>
   <v type="int" >        4       17       22       35       36 </v>
   <v type="int" >        4       16       17       30       35 </v>
   <v type="int" >        8       17       30       31       35 </v>
   <v type="int" >        8       19       23       24       33 </v>
   <v type="int" >        4       23       24       33       37 </v>
   <v type="int" >        4       20       24       33       34 </v>
   <v type="int" >        8       24       33       34       38 </v>
   <v type="int" >        8       15       16       16       30 </v>
   <v type="int" >        8       16       16       21       30 </v>
   <v type="int" >        4       16       21       30       35 </v>
   <v type="int" >        4       15       16       29       30 </v>
   <v type="int" >        8       16       29       30       30 </v>
   <v type="int" >        4       15       16       30       30 </v>
   <v type="int" >        4       15       29       30       30 </v>
   <v type="int" >        8       38       40       41       54 </v>
   <v type="int" >        8       37       38       40       54 </v>
   <v type="int" >        4       37       38       51       54 </v>
   <v type="int" >        4       38       41       54       55 </v>
   <v type="int" >        8       38       52       54       55 </v>
   <v type="int" >        8       38       51       52       54 </v>
   <v type="int" >        8       30       31       35       45 </v>
   <v type="int" >        4       30       35       45       49 </v>
   <v type="int" >        8       30       44       45       49 </v>
   <v type="int" >        8       41       42       42       56 </v>
   <v type="int" >        8       40       41       42       56 </v>
   <v type="int" >        4       40       41       54       56 </v>
   <v type="int" >        4       41       42       56       56 </v>
   <v type="int" >        4       41       55       56       56 </v>
   <v type="int" >        8       41       54       55       56 </v>
   <v type="int" >        8       35       36       36       50 </v>
   <v type="int" >        8       31       35       36       50 </v>
   <v type="int" >        4       31       35       45       50 </v>
   <v type="int" >        4       35       36       50       50 </v>
   <v type="int" >        4       35       49       50       50 </v>
   <v type="int" >        8       35       45       49       50 </v>
   <v type="int" >        4       42       42       42       56 </v>
   <v type="int" >        4       42       42       56       56 </v>
   <v type="int" >        4       41       42       55       56 </v>
   <v type="int" >        8       42       55       56       56 </v>
   <v type="int" >        4       42       56       56       56 </v>
   <v type="int" >        8       36       37       39       53 </v>
   <v type="int" >        4       36       36       39       53 </v>
   <v type="int" >        4       36       36       50       53 </v>
   <v type="int" >        4       36       37       51       53 </v>
   <v type="int" >        8       36       50       51       53 </v>
   <v type="int" >        8       36       50       50       53 </v>
   <v type="int" >        8       40       41       42       54 </v>
   <v type="int" >        4       41       42       54       56 </v>
   <v type="int" >        4       38       41       52       54 </v>
   <v type="int" >        8       41       52       54       55 </v>
   <v type="int" >        8       37       39       40       54 </v>
   <v type="int" >        4       37       39       53       54 </v>
   <v type="int" >        4       37       38       52       54 </v>
   <v type="int" >        8       37       51       52       54 </v>
   <v type="int" >        8       37       51       53       54 </v>
   <v type="int" >        8       33       37       38       51 </v>
   <v type="int" >        8       37       38       40       51 </v>
   <v type="int" >        4       38       40       51       54 </v>
   <v type="int" >        4       33       38       47       51 </v>
   <v type="int" >        8       38       47       51       52 </v>
   <v type="int" >        4       38       38       41       55 </v>
   <v type="int" >        8       38       40       41       55 </v>
   <v type="int" >        4       38       40       54       55 </v>
   <v type="int" >        4       38       38       52       55 </v>
   <v type="int" >        8       38       52       52       55 </v>
   <v type="int" >        8       32       33       37       46 </v>
   <v type="int" >        4       33       37       46       51 </v>
   <v type="int" >        8       33       46       47       51 </v>
   <v type="int" >        8       36       37       39       50 </v>
   <v type="int" >        8       32       36       37       50 </v>
   <v type="int" >        4       32       37       46       50 </v>
   <v type="int" >        4       37       39       50       53 </v>
   <v type="int" >        8       37       50       51       53 </v>
   <v type="int" >        8       37       46       50       51 </v>
   <v type="int" >        8       37       39       40       53 </v>
   <v type="int" >        4       37       40       53       54 </v>
   <v type="int" >        4       36       37       50       53 </v>
   <v type="int" >        8       36       36       39       50 </v>
   <v type="int" >        4       36       39       50       50 </v>
   <v type="int" >        4       37       39       50       51 </v>
   <v type="int" >        8       39       50       51       53 </v>
   <v type="int" >        4       39       50       50       53 </v>
   <v type="int" >        4       36       39       50       53 </v>
   <v type="int" >        4       35       36       49       50 </v>
   <v type="int" >        8       36       49       50       50 </v>
   <v type="int" >        8       32       36       37       46 </v>
   <v type="int" >        4       36       37       46       50 </v>
   <v type="int" >        4       33       37       46       47 </v>
   <v type="int" >        8       37       46       47       51 </v>
   <v type="int" >        8       31       35       36       45 </v>
   <v type="int" >        4       35       36       45       50 </v>
   <v type="int" >        4       30       35       44       45 </v>
   <v type="int" >        8       35       44       45       49 </v>
   <v type="int" >        8       32       33       37       51 </v>
   <v type="int" >        4       32       33       46       51 </v>
   <v type="int" >        4       33       38       51       52 </v>
   <v type="int" >        8       33       47       51       52 </v>
   <v type="int" >        4       30       30       35       49 </v>
   <v type="int" >        8       30       31       35       49 </v>
   <v type="int" >        4       30       31       45       49 </v>
   <v type="int" >        4       30       30       44       49 </v>
   <v type="int" >        8       30       44       44       49 </v>
   <v type="int" >        8       39       51       53       54 </v>
   <v type="int" >        4       36       39       50       51 </v>
   <v type="int" >        4       39       40       51       54 </v>
   <v type="int" >        8       37       39       40       51 </v>
   <v type="int" >        8       36       37       39       51 </v>
   <v type="int" >        8       36       45       49       50 </v>
   <v type="int" >        4       36       36       49       50 </v>
   <v type="int" >        4       31       36       45       49 </v>
   <v type="int" >        8       31       35       36       49 </v>
   <v type="int" >        4       35       36       36       49 </v>
   <v type="int" >        8       40       54       54       56 </v>
   <v type="int" >        8       40       53       54       54 </v>
   <v type="int" >        4       39       40       53       54 </v>
   <v type="int" >        4       40       42       54       56 </v>
   <v type="int" >        8       40       40       42       54 </v>
   <v type="int" >        8       39       40       40       54 </v>
   <v type="int" >        8       32       45       46       50 </v>
   <v type="int" >        4       32       36       45       50 </v>
   <v type="int" >        8       31       32       36       45 </v>
   <v type="int" >        8       40       54       55       56 </v>
   <v type="int" >        4       40       41       55       56 </v>
   <v type="int" >        4       40       40       54       56 </v>
   <v type="int" >        4       40       40       42       56 </v>
   <v type="int" >        8       40       51       53       54 </v>
   <v type="int" >        4       37       40       51       53 </v>
   <v type="int" >        4       40       40       53       54 </v>
   <v type="int" >        4       39       40       40       53 </v>
   <v type="int" >        4       39       53       54       54 </v>
   <v type="int" >        4       39       40       54       54 </v>
   <v type="int" >        4       37       39       51       54 </v>
   <v type="int" >        8       42       54       55       56 </v>
   <v type="int" >        4       42       54       54       56 </v>
   <v type="int" >        4       40       42       54       54 </v>
   <v type="int" >        4       41       42       54       55 </v>
   <v type="int" >        8       36       46       50       51 </v>
   <v type="int" >        4       36       39       51       53 </v>
   <v type="int" >        4       32       36       46       51 </v>
   <v type="int" >        8       32       36       37       51 </v>
   <v type="int" >        4       42       42       55       56 </v>
   <v type="int" >        4       40       42       54       55 </v>
   <v type="int" >        8       40       41       42       55 </v>
   <v type="int" >        4       41       42       42       55 </v>
   <v type="int" >        8       31       45       46       50 </v>
   <v type="int" >        4       31       36       46       50 </v>
   <v type="int" >        8       31       32       36       46 </v>
   <v type="int" >        8       31       45       49       50 </v>
   <v type="int" >        4       31       35       49       50 </v>
   <v type="int" >        4       31       32       46       50 </v>
   <v type="int" >        8       31       32       36       50 </v>
   <v type="int" >        8       32       46       50       51 </v>
   <v type="int" >        4       32       37       50       51 </v>
   <v type="int" >        4       31       32       45       50 </v>
   <v type="int" >        8       36       45       46       50 </v>
   <v type="int" >        4       31       36       45       46 </v>
   <v type="int" >        4       36       37       46       51 </v>
   <v type="int" >        4       32       36       45       46 </v>
   <v type="int" >        4       35       36       45       49 </v>
   <v type="int" >        8       22       36       36       39 </v>
   <v type="int" >        8       22       35       36       36 </v>
   <v type="int" >        4       21       22       35       36 </v>
   <v type="int" >        4       22       25       36       39 </v>
   <v type="int" >        8       22       22       25       36 </v>
   <v type="int" >        8       21       22       22       36 </v>
   <v type="int" >        4       25       36       36       39 </v>
   <v type="int" >        8       25       36       37       39 </v>
   <v type="int" >        4       23       25       36       37 </v>
   <v type="int" >        4       22       25       36       36 </v>
   <v type="int" >        8       22       23       25       36 </v>
   <v type="int" >        8       23       37       39       40 </v>
   <v type="int" >        8       23       36       37       39 </v>
   <v type="int" >        4       22       23       36       39 </v>
   <v type="int" >        4       23       26       39       40 </v>
   <v type="int" >        8       22       23       25       39 </v>
   <v type="int" >        8       23       32       36       37 </v>
   <v type="int" >        4       23       25       36       39 </v>
   <v type="int" >        4       18       23       32       36 </v>
   <v type="int" >        4       23       24       37       40 </v>
   <v type="int" >        4       24       27       40       41 </v>
   <v type="int" >        8       24       26       27       40 </v>
   <v type="int" >        8       23       24       26       40 </v>
   <v type="int" >        4       19       23       32       37 </v>
   <v type="int" >        8       18       19       23       32 </v>
   <v type="int" >        8       23       37       38       40 </v>
   <v type="int" >        4       23       24       38       40 </v>
   <v type="int" >        4       23       25       39       40 </v>
   <v type="int" >        8       23       25       26       40 </v>
   <v type="int" >        8       27       40       41       42 </v>
   <v type="int" >        8       27       38       40       41 </v>
   <v type="int" >        4       24       27       38       40 </v>
   <v type="int" >        4       27       28       40       42 </v>
   <v type="int" >        8       26       27       28       40 </v>
   <v type="int" >        8       22       36       37       39 </v>
   <v type="int" >        4       22       23       37       39 </v>
   <v type="int" >        4       22       22       36       39 </v>
   <v type="int" >        4       22       22       25       39 </v>
   <v type="int" >        4       28       42       42       42 </v>
   <v type="int" >        8       28       41       42       42 </v>
   <v type="int" >        4       27       28       41       42 </v>
   <v type="int" >        4       28       28       42       42 </v>
   <v type="int" >        4       28       28       28       42 </v>
   <v type="int" >        8       27       28       28       42 </v>
   <v type="int" >        8       21       31       35       36 </v>
   <v type="int" >        4       21       35       36       36 </v>
   <v type="int" >        4       21       22       36       36 </v>
   <v type="int" >        4       17       21       31       36 </v>
   <v type="int" >        4       27       41       42       42 </v>
   <v type="int" >        4       27       28       42       42 </v>
   <v type="int" >        4       26       27       40       42 </v>
   <v type="int" >        4       16       21       31       35 </v>
   <v type="int" >        8       16       17       21       31 </v>
   <v type="int" >        8       21       30       31       35 </v>
   <v type="int" >        4       16       21       30       31 </v>
   <v type="int" >        4       21       22       31       36 </v>
   <v type="int" >        8       17       21       22       31 </v>
   <v type="int" >        8       23       32       33       37 </v>
   <v type="int" >        4       19       23       32       33 </v>
   <v type="int" >        4       22       23       32       36 </v>
   <v type="int" >        8       18       22       23       32 </v>
   <v type="int" >        8        3       17       21       22 </v>
   <v type="int" >        8        3       16       17       21 </v>
   <v type="int" >        4        2        3       16       21 </v>
   <v type="int" >        4        3        8       21       22 </v>
   <v type="int" >        8        3        7        8       21 </v>
   <v type="int" >        8        2        3        7       21 </v>
   <v type="int" >        8       12       23       25       26 </v>
   <v type="int" >        8       12       23       24       26 </v>
   <v type="int" >        4       10       12       23       24 </v>
   <v type="int" >        4       11       12       23       25 </v>
   <v type="int" >        8        9       11       12       23 </v>
   <v type="int" >        8        9       10       12       23 </v>
   <v type="int" >        8        4       18       22       23 </v>
   <v type="int" >        8        4       17       18       22 </v>
   <v type="int" >        4        3        4       17       22 </v>
   <v type="int" >        4        4        9       22       23 </v>
   <v type="int" >        8        4        8        9       22 </v>
   <v type="int" >        8        3        4        8       22 </v>
   <v type="int" >        8       12       25       26       26 </v>
   <v type="int" >        4       12       12       25       26 </v>
   <v type="int" >        4        9       12       23       25 </v>
   <v type="int" >        8        9       11       12       25 </v>
   <v type="int" >        4       11       12       12       25 </v>
   <v type="int" >        8        5       19       23       24 </v>
   <v type="int" >        8        5       18       19       23 </v>
   <v type="int" >        4        4        5       18       23 </v>
   <v type="int" >        4        5       10       23       24 </v>
   <v type="int" >        8        5        9       10       23 </v>
   <v type="int" >        8        4        5        9       23 </v>
   <v type="int" >        8       10       19       23       24 </v>
   <v type="int" >        8       10       23       24       26 </v>
   <v type="int" >        4       10       12       23       26 </v>
   <v type="int" >        4        5       10       19       23 </v>
   <v type="int" >        4        6       20       24       24 </v>
   <v type="int" >        8        6       19       20       24 </v>
   <v type="int" >        4        5        6       19       24 </v>
   <v type="int" >        4        6       10       24       24 </v>
   <v type="int" >        8        6       10       10       24 </v>
   <v type="int" >        8        5        6       10       24 </v>
   <v type="int" >        4        6       10       19       24 </v>
   <v type="int" >        8        5        6       10       19 </v>
   <v type="int" >        8        5       19       20       24 </v>
   <v type="int" >        4        5        6       20       24 </v>
   <v type="int" >        4        5        9       23       24 </v>
   <v type="int" >        8        5        9       10       24 </v>
   <v type="int" >        8       10       24       24       27 </v>
   <v type="int" >        8       10       20       24       24 </v>
   <v type="int" >        4        6       10       20       24 </v>
   <v type="int" >        4       10       13       24       27 </v>
   <v type="int" >        8       10       10       13       24 </v>
   <v type="int" >        8        4       18       19       23 </v>
   <v type="int" >        4        4        5       19       23 </v>
   <v type="int" >        4        4        8       22       23 </v>
   <v type="int" >        8        4        8        9       23 </v>
   <v type="int" >        8       12       26       27       28 </v>
   <v type="int" >        8       12       24       26       27 </v>
   <v type="int" >        4       10       12       24       27 </v>
   <v type="int" >        4       12       14       27       28 </v>
   <v type="int" >        8       12       13       14       27 </v>
   <v type="int" >        8       10       12       13       27 </v>
   <v type="int" >        8        3       17       18       22 </v>
   <v type="int" >        4        3        4       18       22 </v>
   <v type="int" >        4        3        7       21       22 </v>
   <v type="int" >        8        3        7        8       22 </v>
   <v type="int" >        8       12       26       26       28 </v>
   <v type="int" >        4       12       12       26       28 </v>
   <v type="int" >        4       12       13       27       28 </v>
   <v type="int" >        8       12       13       14       28 </v>
   <v type="int" >        4       12       12       14       28 </v>
   <v type="int" >        8        2       16       16       21 </v>
   <v type="int" >        8        2       16       17       21 </v>
   <v type="int" >        4        2        3       17       21 </v>
   <v type="int" >        4        2        2       16       21 </v>
   <v type="int" >        4        2        2        7       21 </v>
   <v type="int" >        8       10       24       26       27 </v>
   <v type="int" >        4       10       12       26       27 </v>
   <v type="int" >        4       10       10       24       27 </v>
   <v type="int" >        4       10       10       13       27 </v>
   <v type="int" >        4        1       15       16       16 </v>
   <v type="int" >        4        1        2       16       16 </v>
   <v type="int" >        8        1        2        2       16 </v>
   <v type="int" >        8        2       15       16       16 </v>
   <v type="int" >        4        1        2       15       16 </v>
   <v type="int" >        4        2        7       16       21 </v>
   <v type="int" >        8        2        2        7       16 </v>
   <v type="int" >        8       10       19       20       24 </v>
   <v type="int" >        4        6       10       19       20 </v>
   <v type="int" >        4        9       10       19       23 </v>
   <v type="int" >        8        5        9       10       19 </v>
   <v type="int" >        8       13       24       26       27 </v>
   <v type="int" >        4       13       24       24       27 </v>
   <v type="int" >        4       10       13       24       24 </v>
   <v type="int" >        4       12       13       24       26 </v>
   <v type="int" >        8       10       12       13       24 </v>
   <v type="int" >        8        7       16       17       21 </v>
   <v type="int" >        4        7       16       16       21 </v>
   <v type="int" >        4        2        7       16       16 </v>
   <v type="int" >        4        3        7       16       17 </v>
   <v type="int" >        8        2        3        7       16 </v>
   <v type="int" >        4       14       26       26       28 </v>
   <v type="int" >        8       14       26       27       28 </v>
   <v type="int" >        4       13       14       26       27 </v>
   <v type="int" >        4       12       14       26       26 </v>
   <v type="int" >        8       12       12       14       26 </v>
   <v type="int" >        8       12       13       14       26 </v>
   <v type="int" >        8        8       17       18       22 </v>
   <v type="int" >        8        8       17       21       22 </v>
   <v type="int" >        4        7        8       17       21 </v>
   <v type="int" >        4        4        8       17       18 </v>
   <v type="int" >        8        3        4        8       17 </v>
   <v type="int" >        8        3        7        8       17 </v>
   <v type="int" >        8       13       26       27       28 </v>
   <v type="int" >        4       13       14       26       28 </v>
   <v type="int" >        4       10       13       24       26 </v>
   <v type="int" >        8       10       12       13       26 </v>
   <v type="int" >        8        9       18       19       23 </v>
   <v type="int" >        8        9       18       22       23 </v>
   <v type="int" >        4        8        9       18       22 </v>
   <v type="int" >        4        5        9       18       19 </v>
   <v type="int" >        8        4        5        9       18 </v>
   <v type="int" >        8        4        8        9       18 </v>
   <v type="int" >        4        5       10       20       24 </v>
   <v type="int" >        8        5        6       10       20 </v>
   <v type="int" >        4       10       10       20       24 </v>
   <v type="int" >        4        5       10       19       20 </v>
   <v type="int" >        4        6       10       10       20 </v>
   <v type="int" >        8        9       23       24       26 </v>
   <v type="int" >        8        9       19       23       24 </v>
   <v type="int" >        4        5        9       19       24 </v>
   <v type="int" >        4        9       12       24       26 </v>
   <v type="int" >        8        9       10       12       24 </v>
   <v type="int" >        4        9       10       19       24 </v>
   <v type="int" >        4        4        9       18       19 </v>
   <v type="int" >        8        4        5        9       19 </v>
   <v type="int" >        4       11       25       26       26 </v>
   <v type="int" >        8       11       23       25       26 </v>
   <v type="int" >        4        9       11       23       26 </v>
   <v type="int" >        4       11       12       26       26 </v>
   <v type="int" >        8       11       12       12       26 </v>
   <v type="int" >        8        9       11       12       26 </v>
   <v type="int" >        8        8       18       22       23 </v>
   <v type="int" >        4        8        9       18       23 </v>
   <v type="int" >        4        3        8       17       18 </v>
   <v type="int" >        8        3        4        8       18 </v>
   <v type="int" >        8        9       23       25       26 </v>
   <v type="int" >        4        9       11       25       26 </v>
   <v type="int" >        4        9       10       24       26 </v>
   <v type="int" >        8        9       10       12       26 </v>
   <v type="int" >        8        7       17       21       22 </v>
   <v type="int" >        4        7        8       17       22 </v>
   <v type="int" >        4        2        7       16       17 </v>
   <v type="int" >        8        2        3        7       17 </v>
   <v type="int" >        4        2        2       15       16 </v>
   <v type="int" >        4        1        2        2       15 </v>
   <v type="int" >        4        9       10       23       26 </v>
   <v type="int" >        4       10       13       26       27 </v>
   <v type="int" >        4        2        7       17       21 </v>
   <v type="int" >        8       13       14       14       28 </v>
   <v type="int" >        4       12       13       26       28 </v>
   <v type="int" >        4       13       14       28       28 </v>
   <v type="int" >        4       13       27       28       28 </v>
   <v type="int" >        8        7        8        8       22 </v>
   <v type="int" >        4        3        7       17       22 </v>
   <v type="int" >        4        7        8       22       22 </v>
   <v type="int" >        4        7       21       22       22 </v>
   <v type="int" >        4       14       14       14       28 </v>
   <v type="int" >        4       14       14       28       28 </v>
   <v type="int" >        4       13       14       27       28 </v>
   <v type="int" >        8       14       27       28       28 </v>
   <v type="int" >        4       14       28       28       28 </v>
   <v type="int" >        8        8        9       11       25 </v>
   <v type="int" >        4        8        8       11       25 </v>
   <v type="int" >        4        8        8       22       25 </v>
   <v type="int" >        4        8        9       23       25 </v>
   <v type="int" >        8        8       22       23       25 </v>
   <v type="int" >        8        8       22       22       25 </v>
   <v type="int" >        4        5        9       18       23 </v>
   <v type="int" >        8        8        9       11       22 </v>
   <v type="int" >        4        4        9       18       22 </v>
   <v type="int" >        4        9       11       22       25 </v>
   <v type="int" >        8        9       22       23       25 </v>
   <v type="int" >        4        9       12       25       26 </v>
   <v type="int" >        4        8        9       22       25 </v>
   <v type="int" >        8        8        8       11       22 </v>
   <v type="int" >        4        8       11       22       22 </v>
   <v type="int" >        4        9       11       22       23 </v>
   <v type="int" >        8       11       22       23       25 </v>
   <v type="int" >        4       11       22       22       25 </v>
   <v type="int" >        4        8       11       22       25 </v>
   <v type="int" >        4        7        8       21       22 </v>
   <v type="int" >        8        8       21       22       22 </v>
   <v type="int" >        8       26       26       28       40 </v>
   <v type="int" >        8       25       26       26       40 </v>
   <v type="int" >        4       25       26       39       40 </v>
   <v type="int" >        4       26       28       40       42 </v>
   <v type="int" >        8       17       18       22       32 </v>
   <v type="int" >        4       17       22       32       36 </v>
   <v type="int" >        4       27       28       28       41 </v>
   <v type="int" >        4       26       28       40       41 </v>
   <v type="int" >        4       28       28       41       42 </v>
   <v type="int" >        8       28       40       41       42 </v>
   <v type="int" >        8       22       23       25       37 </v>
   <v type="int" >        4       18       22       32       37 </v>
   <v type="int" >        4       22       25       37       39 </v>
   <v type="int" >        8       22       32       36       37 </v>
   <v type="int" >        4       27       28       40       41 </v>
   <v type="int" >        4       26       28       40       40 </v>
   <v type="int" >        4       28       40       40       42 </v>
   <v type="int" >        4       23       25       37       40 </v>
   <v type="int" >        4       25       26       40       40 </v>
   <v type="int" >        4       25       39       40       40 </v>
   <v type="int" >        8       25       37       39       40 </v>
   <v type="int" >        8       17       18       22       31 </v>
   <v type="int" >        4       18       22       31       36 </v>
   <v type="int" >        4       21       22       22       35 </v>
   <v type="int" >        4       17       22       31       35 </v>
   <v type="int" >        4       22       22       35       36 </v>
   <v type="int" >        8       22       31       35       36 </v>
   <v type="int" >        4       25       26       37       40 </v>
   <v type="int" >        4       22       25       36       37 </v>
   <v type="int" >        4       21       22       31       35 </v>
   <v type="int" >        4       18       22       31       32 </v>
   <v type="int" >        8       22       31       32       36 </v>
   <v type="int" >        4       22       23       32       37 </v>
   <v type="int" >        4       17       22       31       32 </v>
   <v type="int" >        8       38       40       41       52 </v>
   <v type="int" >        8       37       38       40       52 </v>
   <v type="int" >        4       37       40       51       52 </v>
   <v type="int" >        4       40       41       52       55 </v>
   <v type="int" >        8       40       52       54       55 </v>
   <v type="int" >        8       40       51       52       54 </v>
   <v type="int" >        8       32       33       37       47 </v>
   <v type="int" >        4       32       37       47       51 </v>
   <v type="int" >        8       32       46       47       51 </v>
   <v type="int" >        8       38       38       41       52 </v>
   <v type="int" >        4       38       41       52       52 </v>
   <v type="int" >        4       40       41       52       54 </v>
   <v type="int" >        4       41       52       52       55 </v>
   <v type="int" >        8       33       37       38       52 </v>
   <v type="int" >        4       33       37       47       52 </v>
   <v type="int" >        4       37       40       52       54 </v>
   <v type="int" >        8       37       47       51       52 </v>
   <v type="int" >        4       38       40       51       52 </v>
   <v type="int" >        4       39       40       51       53 </v>
   <v type="int" >        4       38       40       52       55 </v>
   <v type="int" >        4       40       42       55       56 </v>
   <v type="int" >        8       30       31       35       44 </v>
   <v type="int" >        4       31       35       44       49 </v>
   <v type="int" >        8       31       44       45       49 </v>
   <v type="int" >        8       30       30       35       44 </v>
   <v type="int" >        4       30       35       44       44 </v>
   <v type="int" >        4       31       35       44       45 </v>
   <v type="int" >        4       35       44       44       49 </v>
   <v type="int" >        8       33       37       38       47 </v>
   <v type="int" >        4       37       38       47       52 </v>
   <v type="int" >        4       32       37       46       47 </v>
   <v type="int" >        4       30       31       44       49 </v>
   <v type="int" >        4       31       36       49       50 </v>
   <v type="int" >        4       32       33       47       51 </v>
   <v type="int" >        4       32       36       50       51 </v>
   <v type="int" >        4       34       48       52       52 </v>
   <v type="int" >        8       34       47       48       52 </v>
   <v type="int" >        4       33       34       47       52 </v>
   <v type="int" >        4       34       38       52       52 </v>
   <v type="int" >        8       34       38       38       52 </v>
   <v type="int" >        8       33       34       38       52 </v>
   <v type="int" >        4       34       38       47       52 </v>
   <v type="int" >        8       33       34       38       47 </v>
   <v type="int" >        8       33       47       48       52 </v>
   <v type="int" >        4       33       34       48       52 </v>
   <v type="int" >        4       33       37       51       52 </v>
   <v type="int" >        8       38       48       52       52 </v>
   <v type="int" >        4       34       38       48       52 </v>
   <v type="int" >        4       38       41       52       55 </v>
   <v type="int" >        4       29       43       44       44 </v>
   <v type="int" >        4       29       30       44       44 </v>
   <v type="int" >        8       29       30       30       44 </v>
   <v type="int" >        8       30       43       44       44 </v>
   <v type="int" >        4       29       30       43       44 </v>
   <v type="int" >        4       30       35       44       49 </v>
   <v type="int" >        8       38       47       48       52 </v>
   <v type="int" >        4       34       38       47       48 </v>
   <v type="int" >        4       37       38       47       51 </v>
   <v type="int" >        4       21       30       30       35 </v>
   <v type="int" >        4       16       21       30       30 </v>
   <v type="int" >        4       17       21       30       31 </v>
   <v type="int" >        8       16       17       21       30 </v>
   <v type="int" >        4       27       38       38       41 </v>
   <v type="int" >        4       24       27       38       38 </v>
   <v type="int" >        4       26       27       38       40 </v>
   <v type="int" >        8       24       26       27       38 </v>
   <v type="int" >        4       24       24       34       38 </v>
   <v type="int" >        4       19       24       33       34 </v>
   <v type="int" >        8       19       20       24       34 </v>
   <v type="int" >        4       20       24       24       34 </v>
   <v type="int" >        4       19       24       34       38 </v>
   <v type="int" >        8       23       33       37       38 </v>
   <v type="int" >        4       23       24       33       38 </v>
   <v type="int" >        4       18       23       32       33 </v>
   <v type="int" >        8       18       19       23       33 </v>
   <v type="int" >        4       19       23       33       38 </v>
   <v type="int" >        4       23       26       38       40 </v>
   <v type="int" >        8       23       24       26       38 </v>
   <v type="int" >        4       16       16       29       30 </v>
   <v type="int" >        4       15       16       16       29 </v>
   <v type="int" >        4        3        7       16       21 </v>
   <v type="int" >        4        9       12       23       24 </v>
   <v type="int" >        4       12       13       24       27 </v>
   <v type="int" >        4        3        8       17       21 </v>
   <v type="int" >        4        8        8       21       22 </v>
   <v type="int" >        4        7        8        8       21 </v>
   <v type="int" >        4       12       14       26       27 </v>
   <v type="int" >        4       14       14       27       28 </v>
   <v type="int" >        4       13       14       14       27 </v>
   <v type="int" >        4        4        9       19       23 </v>
   <v type="int" >        4       11       12       23       26 </v>
   <v type="int" >        4        8       11       22       23 </v>
   <v type="int" >        8        8        9       11       23 </v>
   <v type="int" >        4        4        8       18       23 </v>
   <v type="int" >        4        8       11       23       25 </v>
   <v type="int" >        4        3        8       18       22 </v>
   <v type="int" >        4       11       12       25       26 </v>
   <v type="int" >        4       12       14       26       28 </v>
   <v type="int" >        4        4        8       17       22 </v>
   <v type="int" >        4       18       23       33       37 </v>
   <v type="int" >        4       23       26       37       38 </v>
   <v type="int" >        4       26       27       38       41 </v>
   <v type="int" >        4       17       21       30       35 </v>
   <v type="int" >        8       33       34       38       48 </v>
   <v type="int" >        4       33       38       48       52 </v>
   <v type="int" >        4       34       38       38       48 </v>
   <v type="int" >        4       33       38       47       48 </v>
   <v type="int" >        4       38       38       48       52 </v>
   <v type="int" >        4       29       30       30       43 </v>
   <v type="int" >        4       30       30       43       44 </v>
  </varray>
  <i name="volumeweight">      0.00027778 </i>
 </kpoints>
 <parameters>
  <separator name="general" >
   <i type="string" name="SYSTEM">unknown system</i>
   <i type="logical" name="LCOMPAT"> F  </i>
  </separator>
  <separator name="electronic" >
   <i type="string" name="PREC">normal</i>
   <i name="ENMAX">    276.72300000</i>
   <i name="ENAUG">    575.89200000</i>
   <i name="EDIFF">      0.00001000</i>
   <i type="int" name="IALGO">    38</i>
   <i type="int" name="IWAVPR">    11</i>
   <i type="int" name="NBANDS">    34</i>
   <i type="int" name="NBANDSLOW">    -1</i>
   <i type="int" name="NBANDSHIGH">    -1</i>
   <i name="NELECT">     36.00000000</i>
   <i type="int" name="TURBO">     0</i>
   <i type="int" name="IRESTART">     0</i>
   <i type="int" name="NREBOOT">     0</i>
   <i type="int" name="NMIN">     0</i>
   <i name="EREF">      0.00000000</i>
   <separator name="electronic smearing" >
    <i type="int" name="ISMEAR">    -4</i>
    <i name="SIGMA">      0.10000000</i>
    <i name="KSPACING">      0.50000000</i>
    <i type="logical" name="KGAMMA"> T  </i>
    <i type="logical" name="KBLOWUP"> T  </i>
   </separator>
   <separator name="electronic projectors" >
    <i type="logical" name="LREAL"> F  </i>
    <v name="ROPT">      0.00000000      0.00000000</v>
    <i type="int" name="LMAXPAW">  -100</i>
    <i type="int" name="LMAXMIX">     2</i>
    <i type="logical" name="NLSPLINE"> F  </i>
   </separator>
   <separator name="electronic startup" >
    <i type="int" name="ISTART">     0</i>
    <i type="int" name="ICHARG">     2</i>
    <i type="int" name="INIWAV">     1</i>
   </separator>
   <separator name="electronic spin" >
    <i type="int" name="ISPIN">     1</i>
    <i type="logical" name="LNONCOLLINEAR"> F  </i>
    <v name="MAGMOM">      1.00000000      1.00000000      1.00000000      1.00000000</v>
    <i name="NUPDOWN">     -1.00000000</i>
    <i type="logical" name="LSORBIT"> F  </i>
    <v name="SAXIS">      0.00000000      0.00000000      1.00000000</v>
    <i type="logical" name="LSPIRAL"> F  </i>
    <v name="QSPIRAL">      0.00000000      0.00000000      0.00000000</v>
    <i type="logical" name="LZEROZ"> F  </i>
   </separator>
   <separator name="electronic exchange-correlation" >
    <i type="logical" name="LASPH"> T  </i>
   </separator>
   <separator name="electronic convergence" >
    <i type="int" name="NELM">   100</i>
    <i type="int" name="NELMDL">    -5</i>
    <i type="int" name="NELMIN">     2</i>
    <i name="ENINI">    276.72300000</i>
    <separator name="electronic convergence detail" >
     <i type="logical" name="LDIAG"> T  </i>
     <i type="logical" name="LSUBROT"> F  </i>
     <i type="logical" name="LROBUST"> F  </i>
     <i type="int" name="ISEARCH">     0</i>
     <i name="WEIMIN">      0.00100000</i>
     <i name="EBREAK">      0.00000007</i>
     <i name="DEPER">      0.30000000</i>
     <i type="int" name="NRMM">     4</i>
     <i name="TIME">      0.40000000</i>
    </separator>
   </separator>
   <separator name="electronic mixer" >
    <i name="AMIX">      0.40000000</i>
    <i name="BMIX">      1.00000000</i>
    <i name="AMIN">      0.10000000</i>
    <i name="AMIX_MAG">      1.60000000</i>
    <i name="BMIX_MAG">      1.00000000</i>
    <separator name="electronic mixer details" >
     <i type="int" name="IMIX">     4</i>
     <i type="logical" name="MIXFIRST"> F  </i>
     <i type="int" name="MAXMIX">   -45</i>
     <i name="WC">    100.00000000</i>
     <i type="int" name="INIMIX">     1</i>
     <i type="int" name="MIXPRE">     1</i>
     <i type="int" name="MREMOVE">     5</i>
    </separator>
   </separator>
   <separator name="electronic dipolcorrection" >
    <i type="logical" name="LDIPOL"> F  </i>
    <i type="logical" name="LMONO"> F  </i>
    <i type="int" name="IDIPOL">     0</i>
    <i name="EPSILON">      1.00000000</i>
    <v name="DIPOL">   -100.00000000   -100.00000000   -100.00000000</v>
    <i name="EFIELD">      0.00000000</i>
    <i type="logical" name="LVACPOTAV"> F  </i>
   </separator>
  </separator>
  <separator name="grids" >
   <i type="int" name="NGX">    16</i>
   <i type="int" name="NGY">    16</i>
   <i type="int" name="NGZ">    28</i>
   <i type="int" name="NGXF">    32</i>
   <i type="int" name="NGYF">    32</i>
   <i type="int" name="NGZF">    56</i>
   <i type="logical" name="ADDGRID"> F  </i>
  </separator>
  <separator name="ionic" >
   <i type="int" name="NSW">     1</i>
   <i type="int" name="IBRION">     2</i>
   <i type="int" name="MDALGO">     0</i>
   <i type="int" name="ISIF">     0</i>
   <i name="PSTRESS">      0.00000000</i>
   <i name="EDIFFG">      0.00010000</i>
   <i type="int" name="NFREE">     1</i>
   <i name="POTIM">      0.50000000</i>
   <i name="SMASS">     -3.00000000</i>
   <i name="SCALEE">      1.00000000</i>
  </separator>
  <separator name="ionic md" >
   <i name="TEBEG">      0.00010000</i>
   <i name="TEEND">      0.00010000</i>
   <i type="int" name="NBLOCK">     1</i>
   <i type="int" name="KBLOCK">     1</i>
   <i type="int" name="NPACO">   256</i>
   <i name="APACO">     10.00000000</i>
  </separator>
  <separator name="symmetry" >
   <i type="int" name="ISYM">     2</i>
   <i name="SYMPREC">      0.00001000</i>
  </separator>
  <separator name="dos" >
   <i type="int" name="LORBIT">    11</i>
   <v name="RWIGS">     -1.00000000     -1.00000000</v>
   <i type="int" name="NEDOS">  3202</i>
   <i name="EMIN">    -12.01000000</i>
   <i name="EMAX">     20.00000000</i>
   <i name="EFERMI">      0.00000000</i>
  </separator>
  <separator name="writing" >
   <i type="int" name="NWRITE">     2</i>
   <i type="logical" name="LWAVE"> F  </i>
   <i type="logical" name="LDOWNSAMPLE"> F  </i>
   <i type="logical" name="LCHARG"> F  </i>
   <i type="logical" name="LPARD"> F  </i>
   <i type="logical" name="LVTOT"> T  </i>
   <i type="logical" name="LVHAR"> F  </i>
   <i type="logical" name="LELF"> F  </i>
   <i type="logical" name="LOPTICS"> F  </i>
   <v name="STM">      0.00000000      0.00000000      0.00000000      0.00000000      0.00000000      0.00000000      0.00000000</v>
  </separator>
  <separator name="performance" >
   <i type="int" name="NPAR">     2</i>
   <i type="int" name="NSIM">     4</i>
   <i type="int" name="NBLK">    -1</i>
   <i type="logical" name="LPLANE"> T  </i>
   <i type="logical" name="LSCALAPACK"> T  </i>
   <i type="logical" name="LSCAAWARE"> F  </i>
   <i type="logical" name="LSCALU"> F  </i>
   <i type="logical" name="LASYNC"> F  </i>
   <i type="logical" name="LORBITALREAL"> F  </i>
  </separator>
  <separator name="miscellaneous" >
   <i type="int" name="IDIOT">     3</i>
   <i type="int" name="PHON_NSTRUCT">    -1</i>
   <i type="logical" name="LMUSIC"> F  </i>
   <v name="POMASS">     65.39000000     32.06600000</v>
   <v name="DARWINR">      0.00000000      0.00000000</v>
   <v name="DARWINV">      1.00000000      1.00000000</v>
   <i type="logical" name="LCORR"> T  </i>
  </separator>
  <i type="logical" name="GGA_COMPAT"> T  </i>
  <i type="logical" name="LBERRY"> F  </i>
  <i type="int" name="ICORELEVEL">     0</i>
  <i type="logical" name="LDAU"> F  </i>
  <i type="int" name="I_CONSTRAINED_M">     0</i>
  <separator name="electronic exchange-correlation" >
   <i type="string" name="GGA    ">PS</i>
   <i type="string" name="XC_C">1</i>
   <i type="int" name="VOSKOWN">     0</i>
   <i type="logical" name="LHFCALC"> F  </i>
   <i type="string" name="PRECFOCK"></i>
   <i type="logical" name="LSYMGRAD"> F  </i>
   <i type="logical" name="LHFONE"> F  </i>
   <i type="logical" name="LRHFCALC"> F  </i>
   <i type="logical" name="LTHOMAS"> F  </i>
   <i type="logical" name="LMODELHF"> F  </i>
   <i type="logical" name="LFOCKACE"> F  </i>
   <i name="ENCUT4O">     -1.00000000</i>
   <i type="int" name="EXXOEP">     0</i>
   <i type="int" name="FOURORBIT">     0</i>
   <i name="AEXX">      0.00000000</i>
   <i name="HFALPHA">      0.00000000</i>
   <i name="MCALPHA">      0.00000000</i>
   <i name="ALDAX">      1.00000000</i>
   <i name="AGGAX">      1.00000000</i>
   <i name="AMGGAX">      1.00000000</i>
   <i name="ALDAC">      1.00000000</i>
   <i name="AGGAC">      1.00000000</i>
   <i name="AMGGAC">      1.00000000</i>
   <i type="int" name="NKREDX">     1</i>
   <i type="int" name="NKREDY">     1</i>
   <i type="int" name="NKREDZ">     1</i>
   <i type="logical" name="SHIFTRED"> F  </i>
   <i type="logical" name="ODDONLY"> F  </i>
   <i type="logical" name="EVENONLY"> F  </i>
   <i type="int" name="LMAXFOCK">     0</i>
   <i type="int" name="NMAXFOCKAE">     0</i>
   <i type="logical" name="LFOCKAEDFT"> F  </i>
   <i name="HFSCREEN">      0.00000000</i>
   <i name="HFSCREENC">      0.00000000</i>
   <i type="int" name="NBANDSGWLOW">     0</i>
  </separator>
  <separator name="vdW DFT" >
   <i type="logical" name="LUSE_VDW"> F  </i>
   <i type="int" name="IVDW_NL">    -1</i>
   <i type="logical" name="LSPIN_VDW"> F  </i>
   <i name="ZAB_VDW">     -0.84910000</i>
   <i name="GAMMA_VDW">      1.39626340</i>
   <i name="ALPHA_VDW">      0.00000000</i>
   <i name="PARAM1">      0.12340000</i>
   <i name="PARAM2">      1.00000000</i>
   <i name="BPARAM">      6.30000000</i>
   <i name="CPARAM">      0.00930000</i>
  </separator>
  <separator name="model GW" >
   <i type="int" name="MODEL_GW">     0</i>
   <i name="MODEL_EPS0">     11.52642926</i>
   <i name="MODEL_ALPHA">      1.00000000</i>
  </separator>
  <separator name="linear response parameters" >
   <i type="logical" name="LEPSILON"> F  </i>
   <i type="logical" name="LRPA"> F  </i>
   <i type="logical" name="LNABLA"> F  </i>
   <i type="logical" name="LVEL"> F  </i>
   <i name="CSHIFT">      0.10000000</i>
   <i name="OMEGAMAX">     -1.00000000</i>
   <i name="DEG_THRESHOLD">      0.00200000</i>
   <i name="RTIME">     -0.10000000</i>
   <i name="WPLASMAI">      0.00000000</i>
   <v name="DFIELD">      0.00000000      0.00000000      0.00000000</v>
   <v name="WPLASMA">      0.00000000      0.00000000      0.00000000      0.00000000      0.00000000      0.00000000      0.00000000      0.00000000      0.00000000</v>
  </separator>
  <separator name="orbital magnetization" >
   <i type="logical" name="NUCIND"> F  </i>
   <v name="MAGPOS">      0.00000000      0.00000000      0.00000000</v>
   <i type="logical" name="LNICSALL"> T  </i>
   <i type="logical" name="ORBITALMAG"> F  </i>
   <i type="logical" name="LMAGBLOCH"> F  </i>
   <i type="logical" name="LCHIMAG"> F  </i>
   <i type="logical" name="LGAUGE"> T  </i>
   <i type="int" name="MAGATOM">     0</i>
   <v name="MAGDIPOL">      0.00000000      0.00000000      0.00000000</v>
   <v name="AVECCONST">      0.00000000      0.00000000      0.00000000</v>
  </separator>
  <separator name="response functions" >
   <i type="logical" name="LALL_IN_ONE"> F  </i>
   <i type="int" name="IALL_IN_ONE">    -1</i>
   <i type="int" name="NBANDS_WAVE">    -1</i>
   <i type="logical" name="LFINITE_TEMPERATURE"> F  </i>
   <i type="logical" name="LADDER"> F  </i>
   <i type="logical" name="LRPAFORCE"> F  </i>
   <i type="logical" name="LFXC"> F  </i>
   <i type="logical" name="LHARTREE"> T  </i>
   <i type="int" name="IBSE">     2</i>
   <v type="int" name="KPOINT">    -1     0     0     0</v>
   <i type="logical" name="LTCTC"> F  </i>
   <i type="logical" name="LTCTE"> F  </i>
   <i type="logical" name="LTETE"> F  </i>
   <i type="logical" name="LTRIPLET"> F  </i>
   <i type="logical" name="LFXCEPS"> F  </i>
   <i type="logical" name="LFXHEG"> F  </i>
   <i type="int" name="NATURALO">     2</i>
   <i type="logical" name="LHOLEGF"> F  </i>
   <i type="logical" name="L2ORDER"> F  </i>
   <i type="logical" name="LDMP1"> F  </i>
   <i type="logical" name="LMP2LT"> F  </i>
   <i type="logical" name="LSMP2LT"> F  </i>
   <i type="logical" name="LGWLF"> F  </i>
   <i name="ENCUTGW">     -1.60000002</i>
   <i name="ENCUTGWSOFT">     -1.60000002</i>
   <i name="ENCUTLF">     -1.00000000</i>
   <i type="logical" name="ESF_SPLINES"> F  </i>
   <i name="ESF_CONV">      0.01000000</i>
   <i type="int" name="ESF_NINTER">    15</i>
   <i type="int" name="LMAXMP2">    -1</i>
   <i name="SCISSOR">      0.00000000</i>
   <i type="int" name="NOMEGA">     0</i>
   <i type="int" name="NOMEGAR">     0</i>
   <i type="int" name="NBANDSGW">    -1</i>
   <i type="int" name="NBANDSO">    -1</i>
   <i type="int" name="NBANDSV">    -1</i>
   <i type="int" name="NELMGW">     1</i>
   <i type="int" name="NELMHF">     1</i>
   <i type="int" name="DIM">     3</i>
   <i type="int" name="IESPILON">     4</i>
   <i type="int" name="ANTIRES">     0</i>
   <i name="OMEGAMAX">    -30.00000000</i>
   <i name="OMEGAMIN">    -30.00000000</i>
   <i name="OMEGATL">   -200.00000000</i>
   <i type="int" name="OMEGAGRID">     0</i>
   <i name="CSHIFT">     -0.10000000</i>
   <i type="logical" name="LSELFENERGY"> F  </i>
   <i type="logical" name="LSPECTRAL"> F  </i>
   <i type="logical" name="LSPECTRALGW"> F  </i>
   <i type="logical" name="LSINGLES"> F  </i>
   <i type="logical" name="LFERMIGW"> F  </i>
   <i type="logical" name="ODDONLYGW"> F  </i>
   <i type="logical" name="EVENONLYGW"> F  </i>
   <i type="int" name="NKREDLFX">     1</i>
   <i type="int" name="NKREDLFY">     1</i>
   <i type="int" name="NKREDLFZ">     1</i>
   <i type="int" name="MAXMEM">  2800</i>
   <i type="int" name="TELESCOPE">     0</i>
   <i type="int" name="NTAUPAR">    -1</i>
   <i type="int" name="NOMEGAPAR">    -1</i>
   <i name="DAMP_NEWTON">      0.80000001</i>
   <i name="LAMBDA">      1.00000000</i>
  </separator>
  <separator name="External order field" >
   <i name="OFIELD_KAPPA">      0.00000000</i>
   <v name="OFIELD_K">      0.00000000      0.00000000      0.00000000</v>
   <i name="OFIELD_Q6_NEAR">      0.00000000</i>
   <i name="OFIELD_Q6_FAR">      0.00000000</i>
   <i name="OFIELD_A">      0.00000000</i>
  </separator>
  <separator name="optional k-points parameters" >
   <i type="int" name="KPOINTS_OPT_MODE">     1</i>
   <i type="logical" name="LKPOINTS_OPT"> F  </i>
  </separator>
 </parameters>
 <atominfo>
  <atoms>       4 </atoms>
  <types>       2 </types>
  <array name="atoms" >
   <dimension dim="1">ion</dimension>
   <field type="string">element</field>
   <field type="int">atomtype</field>
   <set>
    <rc><c>Zn</c><c>   1</c></rc>
    <rc><c>Zn</c><c>   1</c></rc>
    <rc><c>S </c><c>   2</c></rc>
    <rc><c>S </c><c>   2</c></rc>
   </set>
  </array>
  <array name="atomtypes" >
   <dimension dim="1">type</dimension>
   <field type="int">atomspertype</field>
   <field type="string">element</field>
   <field>mass</field>
   <field>valence</field>
   <field type="string">pseudopotential</field>
   <set>
    <rc><c>   2</c><c>Zn</c><c>     65.39000000</c><c>     12.00000000</c><c>  PAW_PBE Zn 06Sep2000                  </c></rc>
    <rc><c>   2</c><c>S </c><c>     32.06600000</c><c>      6.00000000</c><c>  PAW_PBE S 06Sep2000                   </c></rc>
   </set>
  </array>
 </atominfo>
 <structure name="initialpos" >
  <crystal>
   <varray name="basis" >
    <v>       3.78158387       0.00000000       0.00000000 </v>
    <v>      -1.89079194       3.27494770       0.00000000 </v>
    <v>       0.00000000       0.00000000       6.20476623 </v>
   </varray>
   <i name="volume">     76.84286172 </i>
   <varray name="rec_basis" >
    <v>       0.26443946       0.15267419      -0.00000000 </v>
    <v>       0.00000000       0.30534839       0.00000000 </v>
    <v>       0.00000000      -0.00000000       0.16116643 </v>
   </varray>
  </crystal>
  <varray name="positions" >
   <v>       0.66666667       0.33333333       0.50040087 </v>
   <v>       0.33333333       0.66666667       0.00040087 </v>
   <v>       0.66666667       0.33333333       0.87459913 </v>
   <v>       0.33333333       0.66666667       0.37459913 </v>
  </varray>
 </structure>
 <calculation>
  <scstep>
   <time name="dav">    1.80    1.81</time>
   <time name="total">    2.55    2.60</time>
   <energy>
    <i name="alphaZ">    147.15733780 </i>
    <i name="ewald">  -2526.08836804 </i>
    <i name="hartreedc">  -1371.32612577 </i>
    <i name="XCdc">    140.97932143 </i>
    <i name="pawpsdc">   3343.44361914 </i>
    <i name="pawaedc">  -3692.01684003 </i>
    <i name="eentropy">      0.00000000 </i>
    <i name="bandstr">    101.71346145 </i>
    <i name="atom">   4048.05923486 </i>
    <i name="e_fr_energy">    191.92164083 </i>
    <i name="e_wo_entrp">    191.92164083 </i>
    <i name="e_0_energy">    191.92164083 </i>
   </energy>
  </scstep>
  <scstep>
   <time name="dav">    1.51    1.51</time>
   <time name="total">    1.71    1.72</time>
   <energy>
    <i name="e_fr_energy">      3.19245820 </i>
    <i name="e_wo_entrp">      3.19245820 </i>
    <i name="e_0_energy">      3.19245820 </i>
   </energy>
  </scstep>
  <scstep>
   <time name="dav">    1.71    1.72</time>
   <time name="total">    1.86    1.87</time>
   <energy>
    <i name="e_fr_energy">    -15.61256199 </i>
    <i name="e_wo_entrp">    -15.61256199 </i>
    <i name="e_0_energy">    -15.61256199 </i>
   </energy>
  </scstep>
  <scstep>
   <time name="dav">    1.65    1.66</time>
   <time name="total">    1.80    1.81</time>
   <energy>
    <i name="e_fr_energy">    -15.94984932 </i>
    <i name="e_wo_entrp">    -15.94984932 </i>
    <i name="e_0_energy">    -15.94984932 </i>
   </energy>
  </scstep>
  <scstep>
   <time name="dav">    1.73    1.74</time>
   <time name="total">    1.97    1.98</time>
   <energy>
    <i name="e_fr_energy">    -15.95274597 </i>
    <i name="e_wo_entrp">    -15.95274597 </i>
    <i name="e_0_energy">    -15.95274597 </i>
   </energy>
  </scstep>
  <scstep>
   <time name="dav">    1.94    1.95</time>
   <time name="total">    2.26    2.27</time>
   <energy>
    <i name="e_fr_energy">    -15.17669576 </i>
    <i name="e_wo_entrp">    -15.17669576 </i>
    <i name="e_0_energy">    -15.17669576 </i>
   </energy>
  </scstep>
  <scstep>
   <time name="dav">    1.68    1.68</time>
   <time name="total">    2.00    2.01</time>
   <energy>
    <i name="e_fr_energy">    -15.14636437 </i>
    <i name="e_wo_entrp">    -15.14636437 </i>
    <i name="e_0_energy">    -15.14636437 </i>
   </energy>
  </scstep>
  <scstep>
   <time name="dav">    1.64    1.65</time>
   <time name="total">    1.96    1.97</time>
   <energy>
    <i name="e_fr_energy">    -15.14033632 </i>
    <i name="e_wo_entrp">    -15.14033632 </i>
    <i name="e_0_energy">    -15.14033632 </i>
   </energy>
  </scstep>
  <scstep>
   <time name="dav">    1.66    1.67</time>
   <time name="total">    1.98    1.99</time>
   <energy>
    <i name="e_fr_energy">    -15.13968539 </i>
    <i name="e_wo_entrp">    -15.13968539 </i>
    <i name="e_0_energy">    -15.13968539 </i>
   </energy>
  </scstep>
  <scstep>
   <time name="dav">    1.69    1.69</time>
   <time name="total">    2.01    2.02</time>
   <energy>
    <i name="e_fr_energy">    -15.13976918 </i>
    <i name="e_wo_entrp">    -15.13976918 </i>
    <i name="e_0_energy">    -15.13976918 </i>
   </energy>
  </scstep>
  <scstep>
   <time name="dav">    1.58    1.59</time>
   <time name="total">    1.90    1.91</time>
   <energy>
    <i name="e_fr_energy">    -15.13986815 </i>
    <i name="e_wo_entrp">    -15.13986815 </i>
    <i name="e_0_energy">    -15.13986815 </i>
   </energy>
  </scstep>
  <scstep>
   <time name="dav">    1.59    1.60</time>
   <time name="total">    1.82    1.83</time>
   <energy>
    <i name="alphaZ">    147.15733780 </i>
    <i name="ewald">  -2526.08836804 </i>
    <i name="hartreedc">  -1354.89577775 </i>
    <i name="XCdc">    141.04954416 </i>
    <i name="pawpsdc">   4373.23767417 </i>
    <i name="pawaedc">  -4722.71777119 </i>
    <i name="eentropy">      0.00000000 </i>
    <i name="bandstr">   -120.94174729 </i>
    <i name="atom">   4048.05923486 </i>
    <i name="e_fr_energy">    -15.13987329 </i>
    <i name="e_wo_entrp">    -15.13987329 </i>
    <i name="e_0_energy">    -15.13987329 </i>
   </energy>
  </scstep>
  <structure>
   <crystal>
    <varray name="basis" >
     <v>       3.78158387       0.00000000       0.00000000 </v>
     <v>      -1.89079194       3.27494770       0.00000000 </v>
     <v>       0.00000000       0.00000000       6.20476623 </v>
    </varray>
    <i name="volume">     76.84286172 </i>
    <varray name="rec_basis" >
     <v>       0.26443946       0.15267419      -0.00000000 </v>
     <v>       0.00000000       0.30534839       0.00000000 </v>
     <v>       0.00000000      -0.00000000       0.16116643 </v>
    </varray>
   </crystal>
   <varray name="positions" >
    <v>       0.66666667       0.33333333       0.50040087 </v>
    <v>       0.33333333       0.66666667       0.00040087 </v>
    <v>       0.66666667       0.33333333       0.87459913 </v>
    <v>       0.33333333       0.66666667       0.37459913 </v>
   </varray>
  </structure>
  <varray name="forces" >
   <v>       0.00000000      -0.00000000      -0.00014399 </v>
   <v>      -0.00000000       0.00000000      -0.00014399 </v>
   <v>      -0.00000000       0.00000000       0.00014399 </v>
   <v>       0.00000000      -0.00000000       0.00014399 </v>
  </varray>
  <energy>
   <i name="e_fr_energy">    -15.13987329 </i>
   <i name="e_wo_entrp">    -15.13987329 </i>
   <i name="e_0_energy">    -15.13987329 </i>
  </energy>
  <time name="totalsc">   24.34   24.47</time>
  <eigenvalues>
   <array>
    <dimension dim="1">band</dimension>
    <dimension dim="2">kpoint</dimension>
    <dimension dim="3">spin</dimension>
    <field>eigene</field>
    <field>occ</field>
    <set>
     <set comment="spin 1">
      <set comment="kpoint 1">
       <r>  -11.0899    1.0000 </r>
       <r>  -10.0908    1.0000 </r>
       <r>   -4.1971    1.0000 </r>
       <r>   -4.1807    1.0000 </r>
       <r>   -4.1807    1.0000 </r>
       <r>   -4.0945    1.0000 </r>
       <r>   -4.0944    1.0000 </r>
       <r>   -3.7116    1.0000 </r>
       <r>   -3.7116    1.0000 </r>
       <r>   -3.6280    1.0000 </r>
       <r>   -3.6280    1.0000 </r>
       <r>   -3.4887    1.0000 </r>
       <r>   -3.2694    1.0000 </r>
       <r>    1.3487    1.0000 </r>
       <r>    1.3487    1.0000 </r>
       <r>    2.2020    1.0000 </r>
       <r>    2.2921    1.0000 </r>
       <r>    2.2922    1.0000 </r>
       <r>    4.4481    0.0000 </r>
       <r>    5.3160    0.0000 </r>
       <r>    8.5061    0.0000 </r>
       <r>    8.5061    0.0000 </r>
       <r>    8.7659    0.0000 </r>
       <r>    9.9355    0.0000 </r>
       <r>    9.9355    0.0000 </r>
       <r>   11.4936    0.0000 </r>
       <r>   12.3008    0.0000 </r>
       <r>   12.3009    0.0000 </r>
       <r>   13.4098    0.0000 </r>
       <r>   14.5437    0.0000 </r>
       <r>   14.5438    0.0000 </r>
       <r>   14.8016    0.0000 </r>
       <r>   15.7575    0.0000 </r>
       <r>   18.1497    0.0000 </r>
      </set>
      <set comment="kpoint 2">
       <r>  -11.0183    1.0000 </r>
       <r>  -10.0503    1.0000 </r>
       <r>   -4.1932    1.0000 </r>
       <r>   -4.1773    1.0000 </r>
       <r>   -4.1666    1.0000 </r>
       <r>   -4.0884    1.0000 </r>
       <r>   -4.0739    1.0000 </r>
       <r>   -3.7221    1.0000 </r>
       <r>   -3.7126    1.0000 </r>
       <r>   -3.6846    1.0000 </r>
       <r>   -3.6246    1.0000 </r>
       <r>   -3.4350    1.0000 </r>
       <r>   -3.1729    1.0000 </r>
       <r>    0.7870    1.0000 </r>
       <r>    1.1804    1.0000 </r>
       <r>    1.6543    1.0000 </r>
       <r>    2.1105    1.0000 </r>
       <r>    2.2020    1.0000 </r>
       <r>    5.0242    0.0000 </r>
       <r>    5.8250    0.0000 </r>
       <r>    8.1743    0.0000 </r>
       <r>    8.7094    0.0000 </r>
       <r>    8.9749    0.0000 </r>
       <r>    9.7472    0.0000 </r>
       <r>   10.2527    0.0000 </r>
       <r>   11.0324    0.0000 </r>
       <r>   11.6695    0.0000 </r>
       <r>   12.0873    0.0000 </r>
       <r>   14.3808    0.0000 </r>
       <r>   14.8097    0.0000 </r>
       <r>   14.9931    0.0000 </r>
       <r>   15.6933    0.0000 </r>
       <r>   16.4578    0.0000 </r>
       <r>   17.4674    0.0000 </r>
      </set>
      <set comment="kpoint 3">
       <r>  -10.8171    1.0000 </r>
       <r>   -9.9457    1.0000 </r>
       <r>   -4.2055    1.0000 </r>
       <r>   -4.1470    1.0000 </r>
       <r>   -4.1324    1.0000 </r>
       <r>   -4.0580    1.0000 </r>
       <r>   -4.0181    1.0000 </r>
       <r>   -3.7480    1.0000 </r>
       <r>   -3.7291    1.0000 </r>
       <r>   -3.7082    1.0000 </r>
       <r>   -3.6167    1.0000 </r>
       <r>   -3.3991    1.0000 </r>
       <r>   -2.8963    1.0000 </r>
       <r>   -0.3053    1.0000 </r>
       <r>    0.5571    1.0000 </r>
       <r>    0.7879    1.0000 </r>
       <r>    1.8225    1.0000 </r>
       <r>    1.9617    1.0000 </r>
       <r>    5.8694    0.0000 </r>
       <r>    6.3618    0.0000 </r>
       <r>    8.0194    0.0000 </r>
       <r>    8.8965    0.0000 </r>
       <r>    9.1040    0.0000 </r>
       <r>   10.0253    0.0000 </r>
       <r>   10.3400    0.0000 </r>
       <r>   11.0940    0.0000 </r>
       <r>   11.2266    0.0000 </r>
       <r>   12.0589    0.0000 </r>
       <r>   14.7740    0.0000 </r>
       <r>   15.7455    0.0000 </r>
       <r>   16.1730    0.0000 </r>
       <r>   16.9447    0.0000 </r>
       <r>   17.5409    0.0000 </r>
       <r>   17.8160    0.0000 </r>
      </set>
      <set comment="kpoint 4">
       <r>  -10.5307    1.0000 </r>
       <r>   -9.8267    1.0000 </r>
       <r>   -4.2073    1.0000 </r>
       <r>   -4.1159    1.0000 </r>
       <r>   -4.0983    1.0000 </r>
       <r>   -3.9804    1.0000 </r>
       <r>   -3.9462    1.0000 </r>
       <r>   -3.7876    1.0000 </r>
       <r>   -3.7295    1.0000 </r>
       <r>   -3.6881    1.0000 </r>
       <r>   -3.6056    1.0000 </r>
       <r>   -3.3468    1.0000 </r>
       <r>   -2.6094    1.0000 </r>
       <r>   -1.2642    1.0000 </r>
       <r>   -0.4993    1.0000 </r>
       <r>    0.3646    1.0000 </r>
       <r>    1.3463    1.0000 </r>
       <r>    1.6702    1.0000 </r>
       <r>    6.1325    0.0000 </r>
       <r>    6.3827    0.0000 </r>
       <r>    7.9333    0.0000 </r>
       <r>    8.8403    0.0000 </r>
       <r>    9.2411    0.0000 </r>
       <r>   10.4417    0.0000 </r>
       <r>   10.9352    0.0000 </r>
       <r>   11.5030    0.0000 </r>
       <r>   12.2535    0.0000 </r>
       <r>   12.8968    0.0000 </r>
       <r>   14.2268    0.0000 </r>
       <r>   15.8743    0.0000 </r>
       <r>   16.1501    0.0000 </r>
       <r>   17.4503    0.0000 </r>
       <r>   18.6774    0.0000 </r>
       <r>   18.6873    0.0000 </r>
      </set>
      <set comment="kpoint 5">
       <r>  -10.2439    1.0000 </r>
       <r>   -9.7596    1.0000 </r>
       <r>   -4.1916    1.0000 </r>
       <r>   -4.0787    1.0000 </r>
       <r>   -4.0573    1.0000 </r>
       <r>   -3.8866    1.0000 </r>
       <r>   -3.8680    1.0000 </r>
       <r>   -3.8455    1.0000 </r>
       <r>   -3.6928    1.0000 </r>
       <r>   -3.6567    1.0000 </r>
       <r>   -3.5942    1.0000 </r>
       <r>   -3.2942    1.0000 </r>
       <r>   -2.6767    1.0000 </r>
       <r>   -1.6613    1.0000 </r>
       <r>   -1.1828    1.0000 </r>
       <r>    0.0516    1.0000 </r>
       <r>    0.7924    1.0000 </r>
       <r>    1.4439    1.0000 </r>
       <r>    5.8912    0.0000 </r>
       <r>    6.5022    0.0000 </r>
       <r>    7.4521    0.0000 </r>
       <r>    9.1606    0.0000 </r>
       <r>    9.3215    0.0000 </r>
       <r>   10.7490    0.0000 </r>
       <r>   11.1658    0.0000 </r>
       <r>   13.0059    0.0000 </r>
       <r>   13.5894    0.0000 </r>
       <r>   14.1801    0.0000 </r>
       <r>   14.3698    0.0000 </r>
       <r>   15.1358    0.0000 </r>
       <r>   16.2471    0.0000 </r>
       <r>   17.4434    0.0000 </r>
       <r>   17.5958    0.0000 </r>
       <r>   18.1952    0.0000 </r>
      </set>
      <set comment="kpoint 6">
       <r>  -10.1039    1.0000 </r>
       <r>   -9.7572    1.0000 </r>
       <r>   -4.1844    1.0000 </r>
       <r>   -4.0732    1.0000 </r>
       <r>   -3.9689    1.0000 </r>
       <r>   -3.9299    1.0000 </r>
       <r>   -3.8644    1.0000 </r>
[...]
        <r>  0.0005  0.0425  0.0062  0.0334  0.0000  0.0000  0.0000  0.0000  0.0000 </r>
       </set>
       <set comment="band 22">
        <r>  0.0345  0.0005  0.0302  0.0096  0.0076  0.0052  0.0038  0.0031  0.0064 </r>
        <r>  0.0544  0.0078  0.0221  0.0066  0.0136  0.0081  0.0033  0.0017  0.0042 </r>
        <r>  0.0005  0.0425  0.0062  0.0334  0.0000  0.0000  0.0000  0.0000  0.0000 </r>
        <r>  0.0008  0.0567  0.0060  0.0056  0.0000  0.0000  0.0000  0.0000  0.0000 </r>
       </set>
       <set comment="band 23">
        <r>  0.0150  0.0346  0.0148  0.0031  0.0003  0.0106  0.0011  0.0048  0.0005 </r>
        <r>  0.0144  0.0227  0.0185  0.0262  0.0002  0.0076  0.0014  0.0120  0.0004 </r>
        <r>  0.0055  0.0140  0.0060  0.0436  0.0000  0.0000  0.0000  0.0000  0.0000 </r>
        <r>  0.0062  0.0142  0.0061  0.0386  0.0000  0.0000  0.0000  0.0000  0.0000 </r>
       </set>
       <set comment="band 24">
        <r>  0.0144  0.0227  0.0185  0.0262  0.0002  0.0076  0.0014  0.0120  0.0004 </r>
        <r>  0.0150  0.0346  0.0148  0.0031  0.0003  0.0106  0.0011  0.0048  0.0005 </r>
        <r>  0.0062  0.0142  0.0061  0.0386  0.0000  0.0000  0.0000  0.0000  0.0000 </r>
        <r>  0.0055  0.0140  0.0060  0.0436  0.0000  0.0000  0.0000  0.0000  0.0000 </r>
       </set>
       <set comment="band 25">
        <r>  0.0000  0.0398  0.0151  0.0137  0.0057  0.0011  0.0000  0.0005  0.0034 </r>
        <r>  0.0379  0.0309  0.0022  0.0214  0.0148  0.0005  0.0016  0.0016  0.0069 </r>
        <r>  0.0025  0.0416  0.0028  0.1003  0.0000  0.0000  0.0000  0.0000  0.0000 </r>
        <r>  0.0031  0.0051  0.0274  0.0074  0.0000  0.0000  0.0000  0.0000  0.0000 </r>
       </set>
       <set comment="band 26">
        <r>  0.0379  0.0309  0.0022  0.0214  0.0148  0.0005  0.0016  0.0016  0.0069 </r>
        <r>  0.0000  0.0398  0.0151  0.0137  0.0057  0.0011  0.0000  0.0005  0.0034 </r>
        <r>  0.0031  0.0051  0.0274  0.0074  0.0000  0.0000  0.0000  0.0000  0.0000 </r>
        <r>  0.0025  0.0416  0.0028  0.1003  0.0000  0.0000  0.0000  0.0000  0.0000 </r>
       </set>
       <set comment="band 27">
        <r>  0.0009  0.0136  0.0286  0.0107  0.0061  0.0002  0.0001  0.0001  0.0113 </r>
        <r>  0.0032  0.0480  0.0144  0.0757  0.0067  0.0003  0.0027  0.0005  0.0185 </r>
        <r>  0.0097  0.0093  0.0447  0.0078  0.0000  0.0000  0.0000  0.0000  0.0000 </r>
        <r>  0.0003  0.0175  0.0053  0.0108  0.0000  0.0000  0.0000  0.0000  0.0000 </r>
       </set>
       <set comment="band 28">
        <r>  0.0032  0.0480  0.0144  0.0757  0.0067  0.0003  0.0027  0.0005  0.0185 </r>
        <r>  0.0009  0.0136  0.0286  0.0107  0.0061  0.0002  0.0001  0.0001  0.0113 </r>
        <r>  0.0003  0.0175  0.0053  0.0108  0.0000  0.0000  0.0000  0.0000  0.0000 </r>
        <r>  0.0097  0.0093  0.0447  0.0078  0.0000  0.0000  0.0000  0.0000  0.0000 </r>
       </set>
       <set comment="band 29">
        <r>  0.0003  0.0143  0.0109  0.0041  0.0034  0.0072  0.0011  0.0104  0.0038 </r>
        <r>  0.0012  0.0112  0.0109  0.0143  0.0006  0.0221  0.0160  0.0172  0.0010 </r>
        <r>  0.0209  0.0015  0.0165  0.0032  0.0000  0.0000  0.0000  0.0000  0.0000 </r>
        <r>  0.0002  0.0019  0.0541  0.0023  0.0000  0.0000  0.0000  0.0000  0.0000 </r>
       </set>
       <set comment="band 30">
        <r>  0.0012  0.0112  0.0109  0.0143  0.0006  0.0221  0.0160  0.0172  0.0010 </r>
        <r>  0.0003  0.0143  0.0109  0.0041  0.0034  0.0072  0.0011  0.0104  0.0038 </r>
        <r>  0.0002  0.0019  0.0541  0.0023  0.0000  0.0000  0.0000  0.0000  0.0000 </r>
        <r>  0.0209  0.0015  0.0165  0.0032  0.0000  0.0000  0.0000  0.0000  0.0000 </r>
       </set>
       <set comment="band 31">
        <r>  0.0034  0.0192  0.0068  0.0418  0.0050  0.0010  0.0044  0.0025  0.0068 </r>
        <r>  0.0029  0.0017  0.0323  0.0098  0.0033  0.0001  0.0251  0.0005  0.0078 </r>
        <r>  0.0022  0.0057  0.0107  0.0019  0.0000  0.0000  0.0000  0.0000  0.0000 </r>
        <r>  0.0289  0.0098  0.0009  0.0380  0.0000  0.0000  0.0000  0.0000  0.0000 </r>
       </set>
       <set comment="band 32">
        <r>  0.0029  0.0017  0.0323  0.0098  0.0033  0.0001  0.0251  0.0005  0.0078 </r>
        <r>  0.0034  0.0192  0.0068  0.0418  0.0050  0.0010  0.0044  0.0025  0.0068 </r>
        <r>  0.0289  0.0098  0.0009  0.0380  0.0000  0.0000  0.0000  0.0000  0.0000 </r>
        <r>  0.0022  0.0057  0.0107  0.0019  0.0000  0.0000  0.0000  0.0000  0.0000 </r>
       </set>
       <set comment="band 33">
        <r>  0.0013  0.0088  0.0417  0.0021  0.0013  0.0010  0.0087  0.0105  0.0036 </r>
        <r>  0.0043  0.0661  0.0195  0.0345  0.0036  0.0141  0.0046  0.0018  0.0005 </r>
        <r>  0.0033  0.0386  0.0098  0.0473  0.0000  0.0000  0.0000  0.0000  0.0000 </r>
        <r>  0.0016  0.0088  0.0177  0.0075  0.0000  0.0000  0.0000  0.0000  0.0000 </r>
       </set>
       <set comment="band 34">
        <r>  0.0043  0.0661  0.0195  0.0345  0.0036  0.0141  0.0046  0.0018  0.0005 </r>
        <r>  0.0013  0.0088  0.0417  0.0021  0.0013  0.0010  0.0087  0.0105  0.0036 </r>
        <r>  0.0016  0.0088  0.0177  0.0075  0.0000  0.0000  0.0000  0.0000  0.0000 </r>
        <r>  0.0033  0.0386  0.0098  0.0473  0.0000  0.0000  0.0000  0.0000  0.0000 </r>
       </set>
      </set>
      <set comment="kpoint 56">
       <set comment="band 1">
        <r>  0.0050  0.0076  0.0037  0.0058  0.0060  0.0036  0.0046  0.0029  0.0073 </r>
        <r>  0.0050  0.0074  0.0037  0.0059  0.0059  0.0037  0.0046  0.0029  0.0074 </r>
        <r>  0.3152  0.0000  0.0000  0.0000  0.0000  0.0000  0.0000  0.0000  0.0000 </r>
        <r>  0.3159  0.0000  0.0000  0.0000  0.0000  0.0000  0.0000  0.0000  0.0000 </r>
       </set>
       <set comment="band 2">
        <r>  0.0050  0.0074  0.0037  0.0059  0.0059  0.0037  0.0046  0.0029  0.0074 </r>
        <r>  0.0050  0.0076  0.0037  0.0058  0.0060  0.0036  0.0046  0.0029  0.0073 </r>
        <r>  0.3159  0.0000  0.0000  0.0000  0.0000  0.0000  0.0000  0.0000  0.0000 </r>
        <r>  0.3152  0.0000  0.0000  0.0000  0.0000  0.0000  0.0000  0.0000  0.0000 </r>
       </set>
       <set comment="band 3">
        <r>  0.0102  0.0003  0.0002  0.0017  0.0615  0.0717  0.1524  0.0317  0.0824 </r>
        <r>  0.0102  0.0010  0.0002  0.0011  0.0903  0.0828  0.1524  0.0207  0.0537 </r>
        <r>  0.0000  0.0007  0.0239  0.0069  0.0000  0.0000  0.0000  0.0000  0.0000 </r>
        <r>  0.0000  0.0072  0.0239  0.0004  0.0000  0.0000  0.0000  0.0000  0.0000 </r>
       </set>
       <set comment="band 4">
        <r>  0.0102  0.0010  0.0002  0.0011  0.0903  0.0828  0.1524  0.0207  0.0537 </r>
        <r>  0.0102  0.0003  0.0002  0.0017  0.0615  0.0717  0.1524  0.0317  0.0824 </r>
        <r>  0.0000  0.0072  0.0239  0.0004  0.0000  0.0000  0.0000  0.0000  0.0000 </r>
        <r>  0.0000  0.0007  0.0239  0.0069  0.0000  0.0000  0.0000  0.0000  0.0000 </r>
       </set>
       <set comment="band 5">
        <r>  0.0008  0.0017  0.0001  0.0014  0.0196  0.1161  0.0434  0.2139  0.0400 </r>
        <r>  0.0008  0.0019  0.0001  0.0011  0.0215  0.1521  0.0434  0.1784  0.0383 </r>
        <r>  0.0000  0.0096  0.0035  0.0114  0.0000  0.0000  0.0000  0.0000  0.0000 </r>
        <r>  0.0000  0.0112  0.0035  0.0097  0.0000  0.0000  0.0000  0.0000  0.0000 </r>
       </set>
       <set comment="band 6">
        <r>  0.0008  0.0019  0.0001  0.0011  0.0215  0.1520  0.0434  0.1784  0.0383 </r>
        <r>  0.0008  0.0017  0.0001  0.0014  0.0196  0.1161  0.0434  0.2139  0.0400 </r>
        <r>  0.0000  0.0112  0.0035  0.0097  0.0000  0.0000  0.0000  0.0000  0.0000 </r>
        <r>  0.0000  0.0096  0.0035  0.0114  0.0000  0.0000  0.0000  0.0000  0.0000 </r>
       </set>
       <set comment="band 7">
        <r>  0.0088  0.0002  0.0010  0.0000  0.0438  0.0680  0.1575  0.1239  0.0427 </r>
        <r>  0.0088  0.0000  0.0010  0.0002  0.0248  0.1156  0.1575  0.0762  0.0617 </r>
        <r>  0.0001  0.0084  0.0001  0.0094  0.0000  0.0000  0.0000  0.0000  0.0000 </r>
        <r>  0.0001  0.0118  0.0001  0.0060  0.0000  0.0000  0.0000  0.0000  0.0000 </r>
       </set>
       <set comment="band 8">
        <r>  0.0088  0.0000  0.0010  0.0002  0.0248  0.1156  0.1575  0.0762  0.0617 </r>
        <r>  0.0088  0.0002  0.0010  0.0000  0.0438  0.0680  0.1575  0.1238  0.0427 </r>
        <r>  0.0001  0.0118  0.0001  0.0060  0.0000  0.0000  0.0000  0.0000  0.0000 </r>
        <r>  0.0001  0.0084  0.0001  0.0094  0.0000  0.0000  0.0000  0.0000  0.0000 </r>
       </set>
       <set comment="band 9">
        <r>  0.0002  0.0000  0.0001  0.0001  0.1689  0.0939  0.0235  0.0153  0.1781 </r>
        <r>  0.0002  0.0001  0.0001  0.0000  0.2194  0.0031  0.0235  0.1061  0.1279 </r>
        <r>  0.0000  0.0004  0.0001  0.0004  0.0000  0.0000  0.0000  0.0000  0.0000 </r>
        <r>  0.0000  0.0002  0.0001  0.0007  0.0000  0.0000  0.0000  0.0000  0.0000 </r>
       </set>
       <set comment="band 10">
        <r>  0.0002  0.0001  0.0001  0.0000  0.2194  0.0031  0.0235  0.1061  0.1279 </r>
        <r>  0.0002  0.0000  0.0001  0.0001  0.1689  0.0939  0.0235  0.0153  0.1781 </r>
        <r>  0.0000  0.0002  0.0001  0.0007  0.0000  0.0000  0.0000  0.0000  0.0000 </r>
        <r>  0.0000  0.0004  0.0001  0.0004  0.0000  0.0000  0.0000  0.0000  0.0000 </r>
       </set>
       <set comment="band 11">
        <r>  0.0061  0.0007  0.0005  0.0004  0.1195  0.0781  0.0759  0.0481  0.1360 </r>
        <r>  0.0061  0.0008  0.0005  0.0003  0.1351  0.0817  0.0757  0.0447  0.1210 </r>
        <r>  0.0107  0.0019  0.0008  0.0008  0.0000  0.0000  0.0000  0.0000  0.0000 </r>
        <r>  0.0107  0.0017  0.0008  0.0010  0.0000  0.0000  0.0000  0.0000  0.0000 </r>
       </set>
       <set comment="band 12">
        <r>  0.0061  0.0008  0.0005  0.0003  0.1351  0.0817  0.0757  0.0447  0.1210 </r>
        <r>  0.0061  0.0007  0.0005  0.0004  0.1195  0.0781  0.0759  0.0481  0.1360 </r>
        <r>  0.0107  0.0017  0.0008  0.0010  0.0000  0.0000  0.0000  0.0000  0.0000 </r>
        <r>  0.0107  0.0019  0.0008  0.0008  0.0000  0.0000  0.0000  0.0000  0.0000 </r>
       </set>
       <set comment="band 13">
        <r>  0.1066  0.0018  0.0016  0.0036  0.0126  0.0355  0.0044  0.0165  0.0425 </r>
        <r>  0.1066  0.0043  0.0016  0.0011  0.0330  0.0175  0.0044  0.0345  0.0221 </r>
        <r>  0.0032  0.0569  0.0192  0.0333  0.0000  0.0000  0.0000  0.0000  0.0000 </r>
        <r>  0.0032  0.0491  0.0192  0.0411  0.0000  0.0000  0.0000  0.0000  0.0000 </r>
       </set>
       <set comment="band 14">
        <r>  0.1066  0.0043  0.0016  0.0011  0.0330  0.0175  0.0044  0.0345  0.0221 </r>
        <r>  0.1066  0.0018  0.0016  0.0036  0.0126  0.0355  0.0044  0.0165  0.0425 </r>
        <r>  0.0032  0.0491  0.0192  0.0411  0.0000  0.0000  0.0000  0.0000  0.0000 </r>
        <r>  0.0032  0.0569  0.0192  0.0333  0.0000  0.0000  0.0000  0.0000  0.0000 </r>
       </set>
       <set comment="band 15">
        <r>  0.0016  0.0234  0.0001  0.0314  0.0026  0.0258  0.0004  0.0271  0.0006 </r>
        <r>  0.0016  0.0284  0.0001  0.0264  0.0010  0.0227  0.0004  0.0302  0.0021 </r>
        <r>  0.0003  0.0726  0.0010  0.0870  0.0000  0.0000  0.0000  0.0000  0.0000 </r>
        <r>  0.0003  0.0618  0.0010  0.0979  0.0000  0.0000  0.0000  0.0000  0.0000 </r>
       </set>
       <set comment="band 16">
        <r>  0.0016  0.0284  0.0001  0.0264  0.0010  0.0227  0.0004  0.0302  0.0021 </r>
        <r>  0.0016  0.0234  0.0001  0.0314  0.0026  0.0258  0.0004  0.0271  0.0006 </r>
        <r>  0.0003  0.0618  0.0010  0.0979  0.0000  0.0000  0.0000  0.0000  0.0000 </r>
        <r>  0.0003  0.0726  0.0010  0.0870  0.0000  0.0000  0.0000  0.0000  0.0000 </r>
       </set>
       <set comment="band 17">
        <r>  0.0006  0.0043  0.0412  0.0052  0.0066  0.0000  0.0294  0.0000  0.0057 </r>
        <r>  0.0006  0.0059  0.0413  0.0036  0.0045  0.0001  0.0295  0.0000  0.0078 </r>
        <r>  0.0002  0.0305  0.1761  0.0235  0.0000  0.0000  0.0000  0.0000  0.0000 </r>
        <r>  0.0002  0.0249  0.1766  0.0289  0.0000  0.0000  0.0000  0.0000  0.0000 </r>
       </set>
       <set comment="band 18">
        <r>  0.0006  0.0059  0.0413  0.0036  0.0045  0.0001  0.0295  0.0000  0.0078 </r>
        <r>  0.0006  0.0043  0.0412  0.0052  0.0066  0.0000  0.0294  0.0000  0.0057 </r>
        <r>  0.0002  0.0249  0.1766  0.0289  0.0000  0.0000  0.0000  0.0000  0.0000 </r>
        <r>  0.0002  0.0305  0.1761  0.0235  0.0000  0.0000  0.0000  0.0000  0.0000 </r>
       </set>
       <set comment="band 19">
        <r>  0.1004  0.0105  0.0231  0.0052  0.0003  0.0103  0.0065  0.0048  0.0001 </r>
        <r>  0.1004  0.0064  0.0231  0.0093  0.0000  0.0088  0.0065  0.0062  0.0004 </r>
        <r>  0.0307  0.0033  0.0112  0.0128  0.0000  0.0000  0.0000  0.0000  0.0000 </r>
        <r>  0.0307  0.0126  0.0112  0.0034  0.0000  0.0000  0.0000  0.0000  0.0000 </r>
       </set>
       <set comment="band 20">
        <r>  0.1004  0.0064  0.0231  0.0093  0.0000  0.0088  0.0065  0.0062  0.0004 </r>
        <r>  0.1004  0.0105  0.0231  0.0052  0.0003  0.0103  0.0065  0.0048  0.0001 </r>
        <r>  0.0307  0.0126  0.0112  0.0034  0.0000  0.0000  0.0000  0.0000  0.0000 </r>
        <r>  0.0307  0.0033  0.0112  0.0128  0.0000  0.0000  0.0000  0.0000  0.0000 </r>
       </set>
       <set comment="band 21">
        <r>  0.0083  0.0149  0.0028  0.0196  0.0060  0.0079  0.0004  0.0139  0.0044 </r>
        <r>  0.0083  0.0179  0.0028  0.0166  0.0041  0.0101  0.0004  0.0117  0.0063 </r>
        <r>  0.0006  0.0336  0.0009  0.0407  0.0000  0.0000  0.0000  0.0000  0.0000 </r>
        <r>  0.0006  0.0188  0.0009  0.0555  0.0000  0.0000  0.0000  0.0000  0.0000 </r>
       </set>
       <set comment="band 22">
        <r>  0.0083  0.0179  0.0028  0.0166  0.0041  0.0101  0.0004  0.0117  0.0063 </r>
        <r>  0.0083  0.0149  0.0028  0.0196  0.0060  0.0079  0.0004  0.0139  0.0044 </r>
        <r>  0.0006  0.0188  0.0009  0.0555  0.0000  0.0000  0.0000  0.0000  0.0000 </r>
        <r>  0.0006  0.0336  0.0009  0.0407  0.0000  0.0000  0.0000  0.0000  0.0000 </r>
       </set>
       <set comment="band 23">
        <r>  0.0546  0.0008  0.0389  0.0047  0.0003  0.0020  0.0047  0.0009  0.0004 </r>
        <r>  0.0546  0.0053  0.0389  0.0002  0.0007  0.0002  0.0047  0.0027  0.0000 </r>
        <r>  0.0023  0.0655  0.0071  0.0437  0.0000  0.0000  0.0000  0.0000  0.0000 </r>
        <r>  0.0023  0.0623  0.0071  0.0469  0.0000  0.0000  0.0000  0.0000  0.0000 </r>
       </set>
       <set comment="band 24">
        <r>  0.0546  0.0053  0.0389  0.0002  0.0007  0.0002  0.0047  0.0027  0.0000 </r>
        <r>  0.0546  0.0008  0.0389  0.0047  0.0003  0.0020  0.0047  0.0009  0.0004 </r>
        <r>  0.0023  0.0623  0.0071  0.0469  0.0000  0.0000  0.0000  0.0000  0.0000 </r>
        <r>  0.0023  0.0655  0.0071  0.0437  0.0000  0.0000  0.0000  0.0000  0.0000 </r>
       </set>
       <set comment="band 25">
        <r>  0.0036  0.0413  0.0036  0.0197  0.0117  0.0018  0.0002  0.0022  0.0172 </r>
        <r>  0.0036  0.0033  0.0036  0.0577  0.0088  0.0038  0.0002  0.0002  0.0201 </r>
        <r>  0.0072  0.0073  0.0068  0.0107  0.0000  0.0000  0.0000  0.0000  0.0000 </r>
        <r>  0.0072  0.0136  0.0068  0.0044  0.0000  0.0000  0.0000  0.0000  0.0000 </r>
       </set>
       <set comment="band 26">
        <r>  0.0036  0.0033  0.0036  0.0577  0.0088  0.0038  0.0002  0.0002  0.0201 </r>
        <r>  0.0036  0.0413  0.0036  0.0197  0.0117  0.0018  0.0002  0.0022  0.0172 </r>
        <r>  0.0072  0.0136  0.0068  0.0044  0.0000  0.0000  0.0000  0.0000  0.0000 </r>
        <r>  0.0072  0.0073  0.0068  0.0107  0.0000  0.0000  0.0000  0.0000  0.0000 </r>
       </set>
       <set comment="band 27">
        <r>  0.0052  0.0672  0.0167  0.0255  0.0138  0.0003  0.0009  0.0010  0.0050 </r>
        <r>  0.0052  0.0357  0.0167  0.0571  0.0139  0.0004  0.0009  0.0008  0.0049 </r>
        <r>  0.0087  0.0121  0.0243  0.0146  0.0000  0.0000  0.0000  0.0000  0.0000 </r>
        <r>  0.0087  0.0254  0.0243  0.0012  0.0000  0.0000  0.0000  0.0000  0.0000 </r>
       </set>
       <set comment="band 28">
        <r>  0.0052  0.0357  0.0167  0.0571  0.0139  0.0004  0.0009  0.0008  0.0049 </r>
        <r>  0.0052  0.0672  0.0167  0.0255  0.0138  0.0003  0.0009  0.0010  0.0050 </r>
        <r>  0.0087  0.0254  0.0243  0.0012  0.0000  0.0000  0.0000  0.0000  0.0000 </r>
        <r>  0.0087  0.0121  0.0243  0.0146  0.0000  0.0000  0.0000  0.0000  0.0000 </r>
       </set>
       <set comment="band 29">
        <r>  0.0000  0.0058  0.0240  0.0012  0.0007  0.0129  0.0065  0.0161  0.0006 </r>
        <r>  0.0000  0.0025  0.0240  0.0045  0.0007  0.0181  0.0065  0.0109  0.0006 </r>
        <r>  0.0042  0.0044  0.0627  0.0072  0.0000  0.0000  0.0000  0.0000  0.0000 </r>
        <r>  0.0042  0.0069  0.0627  0.0047  0.0000  0.0000  0.0000  0.0000  0.0000 </r>
       </set>
       <set comment="band 30">
        <r>  0.0000  0.0025  0.0240  0.0045  0.0007  0.0181  0.0065  0.0109  0.0006 </r>
        <r>  0.0000  0.0058  0.0240  0.0012  0.0007  0.0129  0.0065  0.0161  0.0006 </r>
        <r>  0.0042  0.0069  0.0627  0.0047  0.0000  0.0000  0.0000  0.0000  0.0000 </r>
        <r>  0.0042  0.0044  0.0627  0.0072  0.0000  0.0000  0.0000  0.0000  0.0000 </r>
       </set>
       <set comment="band 31">
        <r>  0.0006  0.0057  0.0320  0.0288  0.0002  0.0009  0.0264  0.0032  0.0043 </r>
        <r>  0.0006  0.0229  0.0320  0.0116  0.0035  0.0016  0.0263  0.0024  0.0011 </r>
        <r>  0.0213  0.0068  0.0017  0.0001  0.0000  0.0000  0.0000  0.0000  0.0000 </r>
        <r>  0.0213  0.0022  0.0017  0.0047  0.0000  0.0000  0.0000  0.0000  0.0000 </r>
       </set>
       <set comment="band 32">
        <r>  0.0006  0.0229  0.0320  0.0116  0.0035  0.0016  0.0263  0.0024  0.0011 </r>
        <r>  0.0006  0.0057  0.0320  0.0288  0.0002  0.0009  0.0264  0.0032  0.0043 </r>
        <r>  0.0213  0.0022  0.0017  0.0047  0.0000  0.0000  0.0000  0.0000  0.0000 </r>
        <r>  0.0213  0.0068  0.0017  0.0001  0.0000  0.0000  0.0000  0.0000  0.0000 </r>
       </set>
       <set comment="band 33">
        <r>  0.0020  0.0466  0.0084  0.0312  0.0016  0.0005  0.0014  0.0080  0.0093 </r>
        <r>  0.0020  0.0380  0.0084  0.0392  0.0076  0.0076  0.0014  0.0010  0.0032 </r>
        <r>  0.0049  0.0485  0.0046  0.0250  0.0000  0.0000  0.0000  0.0000  0.0000 </r>
        <r>  0.0049  0.0413  0.0045  0.0327  0.0000  0.0000  0.0000  0.0000  0.0000 </r>
       </set>
       <set comment="band 34">
        <r>  0.0020  0.0380  0.0084  0.0392  0.0076  0.0076  0.0014  0.0010  0.0032 </r>
        <r>  0.0020  0.0466  0.0084  0.0312  0.0016  0.0005  0.0014  0.0080  0.0093 </r>
        <r>  0.0049  0.0413  0.0045  0.0327  0.0000  0.0000  0.0000  0.0000  0.0000 </r>
        <r>  0.0049  0.0485  0.0046  0.0250  0.0000  0.0000  0.0000  0.0000  0.0000 </r>
       </set>
      </set>
     </set>
    </set>
   </array>
  </projected>
 </calculation>
 <structure name="finalpos" >
  <crystal>
   <varray name="basis" >
    <v>       3.78158387       0.00000000       0.00000000 </v>
    <v>      -1.89079194       3.27494770       0.00000000 </v>
    <v>       0.00000000       0.00000000       6.20476623 </v>
   </varray>
   <i name="volume">     76.84286172 </i>
   <varray name="rec_basis" >
    <v>       0.26443946       0.15267419      -0.00000000 </v>
    <v>       0.00000000       0.30534839       0.00000000 </v>
    <v>       0.00000000      -0.00000000       0.16116643 </v>
   </varray>
  </crystal>
  <varray name="positions" >
   <v>       0.66666667       0.33333333       0.50040087 </v>
   <v>       0.33333333       0.66666667       0.00040087 </v>
   <v>       0.66666667       0.33333333       0.87459913 </v>
   <v>       0.33333333       0.66666667       0.37459913 </v>
  </varray>
 </structure>
</modeling>
