 running    2 mpi-ranks, on    1 nodes
 distrk:  each k-point on    2 cores,    1 groups
 distr:  one band on    1 cores,    2 groups
 Offloading initialized ...    2 GPUs detected
 vasp.6.5.1 10Mar25 (build May 13 2025 11:33:44) complex                         
 POSCAR found type information on POSCAR ZnS 
 POSCAR found :  2 types and       4 ions
 scaLAPACK will be used selectively (only on CPU)
 -----------------------------------------------------------------------------
|                                                                             |
|               ----> ADVICE to this user running VASP <----                  |
|                                                                             |
|     You enforced a specific xc type in the INCAR file but a different       |
|     type was found in the POTCAR file.                                      |
|     I HOPE YOU KNOW WHAT YOU ARE DOING!                                     |
|                                                                             |
 -----------------------------------------------------------------------------

 LDA part: xc-table for (Slater+PW92), standard interpolation
 POSCAR, INCAR and KPOINTS ok, starting setup
 FFT: planning ... GRIDC
 FFT: planning ... GRID_SOFT
 FFT: planning ... GRID
 WAVECAR not read
 augmentation electrons    35.97124519355401     
 soft         electrons    0.000000000000000     
 total        electrons    35.97124519355401     
 augmentation electrons    51.20301854452237     
 soft         electrons    0.000000000000000     
 total        electrons    51.20301854452237     
 entering main loop
       N       E                     dE             d eps       ncg     rms          rms(c)
DAV:   1     0.191921640833E+03    0.19192E+03   -0.10849E+04  3840   0.810E+02
DAV:   2     0.319245820108E+01   -0.18873E+03   -0.17657E+03  3936   0.222E+02
DAV:   3    -0.156125619879E+02   -0.18805E+02   -0.18542E+02  4594   0.722E+01
DAV:   4    -0.159498493151E+02   -0.33729E+00   -0.33685E+00  4342   0.102E+01
DAV:   5    -0.159527459668E+02   -0.28967E-02   -0.28962E-02  4624   0.907E-01    0.999E+00
DAV:   6    -0.151766957586E+02    0.77605E+00   -0.11680E+00  5494   0.284E+01    0.755E+00
DAV:   7    -0.151463643719E+02    0.30331E-01   -0.68379E-01  4458   0.445E+00    0.329E+00
DAV:   8    -0.151403363237E+02    0.60280E-02   -0.13174E-02  4314   0.808E-01    0.660E-01
DAV:   9    -0.151396853913E+02    0.65093E-03   -0.27335E-03  4382   0.239E-01    0.167E-01
DAV:  10    -0.151397691766E+02   -0.83785E-04   -0.18066E-04  4480   0.654E-02    0.101E-01
DAV:  11    -0.151398681548E+02   -0.98978E-04   -0.58179E-05  4100   0.493E-02    0.219E-02
DAV:  12    -0.151398732935E+02   -0.51387E-05   -0.14052E-05  4080   0.337E-02
   1 F= -.15139873E+02 E0= -.15139873E+02  d E =-.151399E+02
 curvature:   0.00 expect dE= 0.000E+00 dE for cont linesearch  0.000E+00
 trial: gam= 0.00000 g(F)=  0.400E-08 g(S)=  0.000E+00 ort = 0.000E+00 (trialstep = 0.100E+01)
 search vector abs. value=  0.410E-08
 reached required accuracy - stopping structural energy minimisation
 augmentation electrons    14.38323767405502     
 soft         electrons    21.58784769356501     
 total        electrons    35.97108536762003     
