 vasp.6.5.1 10Mar25 (build May 05 2025 13:45:00) complex                        
  
 executed on             LinuxIFC date 2026.04.27  11:23:48
 running  112 mpi-ranks, on    1 nodes
 distrk:  each k-point on   28 cores,    4 groups
 distr:  one band on NCORE=   1 cores,   28 groups


--------------------------------------------------------------------------------------------------------


 INCAR:
   ALGO = Damped
   PREC = Normal
   LREAL = False
   EDIFF = 1e-07
   ENCUT = 400.0
   LASPH = True
   NELM = 100
   ISIF = 3
   IBRION = 2
   EDIFFG = -0.005
   NSW = 300
   ISMEAR = 0
   SIGMA = 0.1
   LWAVE = True
   LCHARG = False
   LORBIT = 10
   LHFCALC = True
   PRECFOCK = Fast
   AEXX = 0.36
   HFSCREEN = 0.2
   TIME = 0.4
   KPAR = 4

 POTCAR:    PAW_PBE Nd_3 06Sep2000                
 POTCAR:    PAW_PBE Zn 06Sep2000                  
 -----------------------------------------------------------------------------
|                                                                             |
|           W    W    AA    RRRRR   N    N  II  N    N   GGGG   !!!           |
|           W    W   A  A   R    R  NN   N  II  NN   N  G    G  !!!           |
|           W    W  A    A  R    R  N N  N  II  N N  N  G       !!!           |
|           W WW W  AAAAAA  RRRRR   N  N N  II  N  N N  G  GGG   !            |
|           WW  WW  A    A  R   R   N   NN  II  N   NN  G    G                |
|           W    W  A    A  R    R  N    N  II  N    N   GGGG   !!!           |
|                                                                             |
|     For optimal performance we recommend to set                             |
|       NCORE = 2 up to number-of-cores-per-socket                            |
|     NCORE specifies how many cores store one orbital (NPAR=cpu/NCORE).      |
|     This setting can greatly improve the performance of VASP for DFT.       |
|     The default, NCORE=1 might be grossly inefficient on modern             |
|     multi-core architectures or massively parallel machines. Do your        |
|     own testing! More info at https://www.vasp.at/wiki/index.php/NCORE      |
|     Unfortunately you need to use the default for GW and RPA                |
|     calculations (for HF NCORE is supported but not extensively tested      |
|     yet).                                                                   |
|                                                                             |
 -----------------------------------------------------------------------------

 POTCAR:    PAW_PBE Nd_3 06Sep2000                
   SHA256 =  90782177844a5d17e05a83442c3981b109958f4399d5595472847236a982ac31 Nd_3/POTCAR           
   COPYR  = (c) Copyright 06Sep2000 Georg Kresse                                                    
   COPYR  = This file is part of the software VASP. Any use, copying, and all other rights are regul
   COPYR  = If you do not have a valid VASP license, you may not use, copy or distribute this file. 
   VRHFIN =Nd : [core=Xe4]                                                                          
   LEXCH  = PE                                                                                      
   EATOM  =   934.1494 eV,   68.6580 Ry                                                             
                                                                                                    
   TITEL  = PAW_PBE Nd_3 06Sep2000                                                                  
   LULTRA =        F    use ultrasoft PP ?                                                          
   IUNSCR =        1    unscreen: 0-lin 1-nonlin 2-no                                               
   RPACOR =    2.400    partial core radius                                                         
   POMASS =  144.240; ZVAL   =   11.000    mass and valenz                                          
   RCORE  =    2.800    outmost cutoff radius                                                       
   RWIGS  =    3.000; RWIGS  =    1.588    wigner-seitz radius (au A)                               
   ENMAX  =  182.619; ENMIN  =  136.964 eV                                                          
   RCLOC  =    2.418    cutoff for local pot                                                        
   LCOR   =        T    correct aug charges                                                         
   LPAW   =        T    paw PP                                                                      
   EAUG   =  299.021                                                                                
   DEXC   =    0.000                                                                                
   RMAX   =    2.866    core radius for proj-oper                                                   
   RAUG   =    1.300    factor for augmentation sphere                                              
   RDEP   =    2.838    radius for radial grids                                                     
   RDEPT  =    2.433    core radius for aug-charge                                                  
                                                                                                    
   Atomic configuration                                                                             
   14 entries                                                                                       
     n  l   j            E        occ.                                                              
     1  0  0.50    -43395.8286   2.0000                                                             
     2  0  0.50     -7023.8781   2.0000                                                             
     2  1  1.50     -6278.5294   6.0000                                                             
     3  0  0.50     -1529.8925   2.0000                                                             
     3  1  1.50     -1294.9660   6.0000                                                             
     3  2  2.50      -969.3626  10.0000                                                             
     4  0  0.50      -309.7145   2.0000                                                             
     4  1  1.50      -232.6371   6.0000                                                             
     4  2  2.50      -123.0912  10.0000                                                             
     4  3  2.50        -6.9199   3.0000                                                             
     5  0  0.50       -43.6910   2.0000                                                             
     6  0  0.50        -3.8688   2.0000                                                             
     5  1  1.50       -24.6661   6.0000                                                             
     5  2  2.50        -2.9249   1.0000                                                             
   Description                                                                                      
     l       E           TYP  RCUT    TYP  RCUT                                                     
     0    -43.6910211     23  2.800                                                                 
     0     -3.8687565     23  2.800                                                                 
     1    -24.6660554     23  2.800                                                                 
     1     13.6058260     23  2.800                                                                 
     2     -2.9249058     23  2.800                                                                 
     2      0.2001824     23  2.800                                                                 
  local pseudopotential read in
  partial core-charges read in
  partial kinetic energy density read in
  atomic valenz-charges read in
  non local Contribution for L=           0  read in
    real space projection operators read in
  non local Contribution for L=           0  read in
    real space projection operators read in
  non local Contribution for L=           1  read in
    real space projection operators read in
  non local Contribution for L=           1  read in
    real space projection operators read in
  non local Contribution for L=           2  read in
    real space projection operators read in
  non local Contribution for L=           2  read in
    real space projection operators read in
    PAW grid and wavefunctions read in
 
   number of l-projection  operators is LMAX  =           6
   number of lm-projection operators is LMMAX =          18
 
 POTCAR:    PAW_PBE Zn 06Sep2000                  
   SHA256 =  501fddbd8274dd8e9725d4f3de27861d7f1e553a7e18441bc79fed8f346e7f23 Zn/POTCAR             
   COPYR  = (c) Copyright 06Sep2000 Georg Kresse                                                    
   COPYR  = This file is part of the software VASP. Any use, copying, and all other rights are regul
   COPYR  = If you do not have a valid VASP license, you may not use, copy or distribute this file. 
   VRHFIN =Zn: d10 p2                                                                               
   LEXCH  = PE                                                                                      
   EATOM  =  1748.8345 eV,  128.5357 Ry                                                             
                                                                                                    
   TITEL  = PAW_PBE Zn 06Sep2000                                                                    
   LULTRA =        F    use ultrasoft PP ?                                                          
   IUNSCR =        1    unscreen: 0-lin 1-nonlin 2-no                                               
   RPACOR =    2.000    partial core radius                                                         
   POMASS =   65.390; ZVAL   =   12.000    mass and valenz                                          
   RCORE  =    2.300    outmost cutoff radius                                                       
   RWIGS  =    2.400; RWIGS  =    1.270    wigner-seitz radius (au A)                               
   ENMAX  =  276.723; ENMIN  =  207.542 eV                                                          
   RCLOC  =    1.828    cutoff for local pot                                                        
   LCOR   =        T    correct aug charges                                                         
   LPAW   =        T    paw PP                                                                      
   EAUG   =  575.892                                                                                
   DEXC   =    0.000                                                                                
   RMAX   =    2.347    core radius for proj-oper                                                   
   RAUG   =    1.300    factor for augmentation sphere                                              
   RDEP   =    2.324    radius for radial grids                                                     
   RDEPT  =    1.788    core radius for aug-charge                                                  
                                                                                                    
   Atomic configuration                                                                             
    9 entries                                                                                       
     n  l   j            E        occ.                                                              
     1  0  0.50     -9524.6913   2.0000                                                             
     2  0  0.50     -1158.1882   2.0000                                                             
     2  1  1.50     -1003.8506   6.0000                                                             
     3  0  0.50      -129.2194   2.0000                                                             
     3  1  1.50       -83.3890   6.0000                                                             
     3  2  2.50       -10.1410  10.0000                                                             
     4  0  0.50        -5.9785   2.0000                                                             
     4  1  0.50        -4.0817   0.0000                                                             
     4  3  2.50        -1.3606   0.0000                                                             
   Description                                                                                      
     l       E           TYP  RCUT    TYP  RCUT                                                     
     2    -10.1410010     23  2.300                                                                 
     2    -11.5015836     23  2.300                                                                 
     0     -5.9785163     23  2.300                                                                 
     0      1.1858015     23  2.300                                                                 
     1     -2.7211652     23  2.300                                                                 
     1     13.2444212     23  2.300                                                                 
  local pseudopotential read in
  partial core-charges read in
  partial kinetic energy density read in
  atomic valenz-charges read in
  non local Contribution for L=           2  read in
    real space projection operators read in
  non local Contribution for L=           2  read in
    real space projection operators read in
  non local Contribution for L=           0  read in
    real space projection operators read in
  non local Contribution for L=           0  read in
    real space projection operators read in
  non local Contribution for L=           1  read in
    real space projection operators read in
  non local Contribution for L=           1  read in
    real space projection operators read in
    PAW grid and wavefunctions read in
 
   number of l-projection  operators is LMAX  =           6
   number of lm-projection operators is LMMAX =          18
 
  PAW_PBE Nd_3 06Sep2000                :
 energy of atom  1       EATOM= -934.1494
 kinetic energy error for atom=    0.0015 (will be added to EATOM!!)
  PAW_PBE Zn 06Sep2000                  :
 energy of atom  2       EATOM=-1748.8345
 kinetic energy error for atom=    0.0107 (will be added to EATOM!!)
 
 
 POSCAR: Nd1 Zn1
  positions in direct lattice
  No initial velocities read in


 exchange-correlation table for PE
   RHO(1)=    0.500       N(1)  =     2000
   RHO(2)=  100.500       N(2)  =     4000
 


--------------------------------------------------------------------------------------------------------


 ion  position               nearest neighbor table
   1  0.000  0.000  0.000-   2 3.18   2 3.18   2 3.18   2 3.18   2 3.18   2 3.18   2 3.18   2 3.18

   2  0.500  0.500  0.500-   1 3.18   1 3.18   1 3.18   1 3.18   1 3.18   1 3.18   1 3.18   1 3.18

 
  LATTYP: Found a simple cubic cell.
 ALAT       =     3.6707656400
  
  Lattice vectors:
  
 A1 = (   3.6707656400,   0.0000000000,   0.0000000000)
 A2 = (   0.0000000000,   3.6707656400,   0.0000000000)
 A3 = (   0.0000000000,   0.0000000000,   3.6707656400)


Analysis of symmetry for initial positions (statically):
=====================================================================
 Subroutine PRICEL returns:
 Original cell was already a primitive cell.
 

 Routine SETGRP: Setting up the symmetry group for a 
 simple cubic supercell.


 Subroutine GETGRP returns: Found 48 space group operations
 (whereof 48 operations were pure point group operations)
 out of a pool of 48 trial point group operations.


The static configuration has the point symmetry O_h .


Analysis of symmetry for dynamics (positions and initial velocities):
=====================================================================
 Subroutine PRICEL returns:
 Original cell was already a primitive cell.
 

 Routine SETGRP: Setting up the symmetry group for a 
 simple cubic supercell.


 Subroutine GETGRP returns: Found 48 space group operations
 (whereof 48 operations were pure point group operations)
 out of a pool of 48 trial point group operations.


The dynamic configuration has the point symmetry O_h .


 Subroutine INISYM returns: Found 48 space group operations
 (whereof 48 operations are pure point group operations),
 and found     1 'primitive' translations


----------------------------------------------------------------------------------------

                                     Primitive cell                                     

  volume of cell :      49.4618

  direct lattice vectors                    reciprocal lattice vectors
     3.670765640  0.000000000  0.000000000     0.272422731  0.000000000  0.000000000
     0.000000000  3.670765640  0.000000000     0.000000000  0.272422731  0.000000000
     0.000000000  0.000000000  3.670765640     0.000000000  0.000000000  0.272422731

  length of vectors
     3.670765640  3.670765640  3.670765640     0.272422731  0.272422731  0.272422731

  position of ions in fractional coordinates (direct lattice)
     0.000000000  0.000000000  0.000000000
     0.500000000  0.500000000  0.500000000

  ion indices of the primitive-cell ions
   primitive index   ion index
                 1           1
                 2           2

----------------------------------------------------------------------------------------

 
 
 KPOINTS: Num irrep kpoints: 35                   

Automatic generation of k-mesh.
 Grid dimensions read from file:
 generate k-points for:    9    9    9

 Generating k-lattice:

  Cartesian coordinates                     Fractional coordinates (reciprocal lattice)
     0.030269192  0.000000000  0.000000000     0.111111111  0.000000000  0.000000000
     0.000000000  0.030269192  0.000000000     0.000000000  0.111111111  0.000000000
     0.000000000  0.000000000  0.030269192     0.000000000  0.000000000  0.111111111

  Length of vectors
     0.030269192  0.030269192  0.030269192

  Shift w.r.t. Gamma in fractional coordinates (k-lattice)
     0.000000000  0.000000000  0.000000000

 
 Subroutine IBZKPT returns following result:
 ===========================================
 
 Found     35 irreducible k-points:
 
 Following reciprocal coordinates:
            Coordinates               Weight
  0.000000  0.000000  0.000000      1.000000
  0.111111  0.000000  0.000000      6.000000
  0.222222  0.000000  0.000000      6.000000
  0.333333  0.000000  0.000000      6.000000
  0.444444  0.000000  0.000000      6.000000
  0.111111  0.111111  0.000000     12.000000
  0.222222  0.111111  0.000000     24.000000
  0.333333  0.111111  0.000000     24.000000
  0.444444  0.111111  0.000000     24.000000
  0.222222  0.222222  0.000000     12.000000
  0.333333  0.222222  0.000000     24.000000
  0.444444  0.222222  0.000000     24.000000
  0.333333  0.333333  0.000000     12.000000
  0.444444  0.333333  0.000000     24.000000
  0.444444  0.444444  0.000000     12.000000
  0.111111  0.111111  0.111111      8.000000
  0.222222  0.111111  0.111111     24.000000
  0.333333  0.111111  0.111111     24.000000
  0.444444  0.111111  0.111111     24.000000
  0.222222  0.222222  0.111111     24.000000
  0.333333  0.222222  0.111111     48.000000
  0.444444  0.222222  0.111111     48.000000
  0.333333  0.333333  0.111111     24.000000
  0.444444  0.333333  0.111111     48.000000
  0.444444  0.444444  0.111111     24.000000
  0.222222  0.222222  0.222222      8.000000
  0.333333  0.222222  0.222222     24.000000
  0.444444  0.222222  0.222222     24.000000
  0.333333  0.333333  0.222222     24.000000
  0.444444  0.333333  0.222222     48.000000
  0.444444  0.444444  0.222222     24.000000
  0.333333  0.333333  0.333333      8.000000
  0.444444  0.333333  0.333333     24.000000
  0.444444  0.444444  0.333333     24.000000
  0.444444  0.444444  0.444444      8.000000
 
 Following cartesian coordinates:
            Coordinates               Weight
  0.000000  0.000000  0.000000      1.000000
  0.030269  0.000000  0.000000      6.000000
  0.060538  0.000000  0.000000      6.000000
  0.090808  0.000000  0.000000      6.000000
  0.121077  0.000000  0.000000      6.000000
  0.030269  0.030269  0.000000     12.000000
  0.060538  0.030269  0.000000     24.000000
  0.090808  0.030269  0.000000     24.000000
  0.121077  0.030269  0.000000     24.000000
  0.060538  0.060538  0.000000     12.000000
  0.090808  0.060538  0.000000     24.000000
  0.121077  0.060538  0.000000     24.000000
  0.090808  0.090808  0.000000     12.000000
  0.121077  0.090808  0.000000     24.000000
  0.121077  0.121077  0.000000     12.000000
  0.030269  0.030269  0.030269      8.000000
  0.060538  0.030269  0.030269     24.000000
  0.090808  0.030269  0.030269     24.000000
  0.121077  0.030269  0.030269     24.000000
  0.060538  0.060538  0.030269     24.000000
  0.090808  0.060538  0.030269     48.000000
  0.121077  0.060538  0.030269     48.000000
  0.090808  0.090808  0.030269     24.000000
  0.121077  0.090808  0.030269     48.000000
  0.121077  0.121077  0.030269     24.000000
  0.060538  0.060538  0.060538      8.000000
  0.090808  0.060538  0.060538     24.000000
  0.121077  0.060538  0.060538     24.000000
  0.090808  0.090808  0.060538     24.000000
  0.121077  0.090808  0.060538     48.000000
  0.121077  0.121077  0.060538     24.000000
  0.090808  0.090808  0.090808      8.000000
  0.121077  0.090808  0.090808     24.000000
  0.121077  0.121077  0.090808     24.000000
  0.121077  0.121077  0.121077      8.000000
 
 
 Subroutine IBZKPT_HF returns following result:
 ==============================================
 
 Found    729 k-points in 1st BZ
 the following    729 k-points will be used (e.g. in the exchange kernel)
 Following reciprocal coordinates:   # in IRBZ
  0.000000  0.000000  0.000000    0.00137174   1 t-inv F
  0.111111  0.000000  0.000000    0.00137174   2 t-inv F
  0.222222  0.000000  0.000000    0.00137174   3 t-inv F
  0.333333  0.000000  0.000000    0.00137174   4 t-inv F
  0.444444  0.000000  0.000000    0.00137174   5 t-inv F
  0.111111  0.111111  0.000000    0.00137174   6 t-inv F
  0.222222  0.111111  0.000000    0.00137174   7 t-inv F
  0.333333  0.111111  0.000000    0.00137174   8 t-inv F
  0.444444  0.111111  0.000000    0.00137174   9 t-inv F
  0.222222  0.222222  0.000000    0.00137174  10 t-inv F
  0.333333  0.222222  0.000000    0.00137174  11 t-inv F
  0.444444  0.222222  0.000000    0.00137174  12 t-inv F
  0.333333  0.333333  0.000000    0.00137174  13 t-inv F
  0.444444  0.333333  0.000000    0.00137174  14 t-inv F
  0.444444  0.444444  0.000000    0.00137174  15 t-inv F
  0.111111  0.111111  0.111111    0.00137174  16 t-inv F
  0.222222  0.111111  0.111111    0.00137174  17 t-inv F
  0.333333  0.111111  0.111111    0.00137174  18 t-inv F
  0.444444  0.111111  0.111111    0.00137174  19 t-inv F
  0.222222  0.222222  0.111111    0.00137174  20 t-inv F
  0.333333  0.222222  0.111111    0.00137174  21 t-inv F
  0.444444  0.222222  0.111111    0.00137174  22 t-inv F
  0.333333  0.333333  0.111111    0.00137174  23 t-inv F
  0.444444  0.333333  0.111111    0.00137174  24 t-inv F
  0.444444  0.444444  0.111111    0.00137174  25 t-inv F
  0.222222  0.222222  0.222222    0.00137174  26 t-inv F
  0.333333  0.222222  0.222222    0.00137174  27 t-inv F
  0.444444  0.222222  0.222222    0.00137174  28 t-inv F
  0.333333  0.333333  0.222222    0.00137174  29 t-inv F
  0.444444  0.333333  0.222222    0.00137174  30 t-inv F
  0.444444  0.444444  0.222222    0.00137174  31 t-inv F
  0.333333  0.333333  0.333333    0.00137174  32 t-inv F
  0.444444  0.333333  0.333333    0.00137174  33 t-inv F
  0.444444  0.444444  0.333333    0.00137174  34 t-inv F
  0.444444  0.444444  0.444444    0.00137174  35 t-inv F
 -0.111111  0.000000  0.000000    0.00137174   2 t-inv F
  0.000000  0.111111  0.000000    0.00137174   2 t-inv F
  0.000000 -0.111111  0.000000    0.00137174   2 t-inv F
  0.000000  0.000000  0.111111    0.00137174   2 t-inv F
  0.000000  0.000000 -0.111111    0.00137174   2 t-inv F
 -0.222222  0.000000  0.000000    0.00137174   3 t-inv F
  0.000000  0.222222  0.000000    0.00137174   3 t-inv F
  0.000000 -0.222222  0.000000    0.00137174   3 t-inv F
  0.000000  0.000000  0.222222    0.00137174   3 t-inv F
  0.000000  0.000000 -0.222222    0.00137174   3 t-inv F
 -0.333333  0.000000  0.000000    0.00137174   4 t-inv F
  0.000000  0.333333  0.000000    0.00137174   4 t-inv F
  0.000000 -0.333333  0.000000    0.00137174   4 t-inv F
  0.000000  0.000000  0.333333    0.00137174   4 t-inv F
  0.000000  0.000000 -0.333333    0.00137174   4 t-inv F
 -0.444444  0.000000  0.000000    0.00137174   5 t-inv F
  0.000000  0.444444  0.000000    0.00137174   5 t-inv F
  0.000000 -0.444444  0.000000    0.00137174   5 t-inv F
  0.000000  0.000000  0.444444    0.00137174   5 t-inv F
  0.000000  0.000000 -0.444444    0.00137174   5 t-inv F
 -0.111111 -0.111111  0.000000    0.00137174   6 t-inv F
  0.000000  0.111111  0.111111    0.00137174   6 t-inv F
  0.000000 -0.111111 -0.111111    0.00137174   6 t-inv F
  0.111111  0.000000  0.111111    0.00137174   6 t-inv F
 -0.111111  0.000000 -0.111111    0.00137174   6 t-inv F
 -0.111111  0.111111  0.000000    0.00137174   6 t-inv F
  0.111111 -0.111111  0.000000    0.00137174   6 t-inv F
 -0.111111  0.000000  0.111111    0.00137174   6 t-inv F
  0.111111  0.000000 -0.111111    0.00137174   6 t-inv F
  0.000000 -0.111111  0.111111    0.00137174   6 t-inv F
  0.000000  0.111111 -0.111111    0.00137174   6 t-inv F
 -0.222222 -0.111111  0.000000    0.00137174   7 t-inv F
  0.000000  0.222222  0.111111    0.00137174   7 t-inv F
  0.000000 -0.222222 -0.111111    0.00137174   7 t-inv F
  0.111111  0.000000  0.222222    0.00137174   7 t-inv F
 -0.111111  0.000000 -0.222222    0.00137174   7 t-inv F
 -0.111111  0.222222  0.000000    0.00137174   7 t-inv F
  0.111111 -0.222222  0.000000    0.00137174   7 t-inv F
 -0.222222  0.000000  0.111111    0.00137174   7 t-inv F
  0.222222  0.000000 -0.111111    0.00137174   7 t-inv F
  0.000000  0.111111  0.222222    0.00137174   7 t-inv F
  0.000000 -0.111111 -0.222222    0.00137174   7 t-inv F
  0.000000 -0.222222  0.111111    0.00137174   7 t-inv F
  0.000000  0.222222 -0.111111    0.00137174   7 t-inv F
 -0.111111  0.000000  0.222222    0.00137174   7 t-inv F
  0.111111  0.000000 -0.222222    0.00137174   7 t-inv F
  0.222222  0.000000  0.111111    0.00137174   7 t-inv F
 -0.222222  0.000000 -0.111111    0.00137174   7 t-inv F
  0.000000 -0.111111  0.222222    0.00137174   7 t-inv F
  0.000000  0.111111 -0.222222    0.00137174   7 t-inv F
  0.222222 -0.111111  0.000000    0.00137174   7 t-inv F
 -0.222222  0.111111  0.000000    0.00137174   7 t-inv F
  0.111111  0.222222  0.000000    0.00137174   7 t-inv F
 -0.111111 -0.222222  0.000000    0.00137174   7 t-inv F
 -0.333333 -0.111111  0.000000    0.00137174   8 t-inv F
  0.000000  0.333333  0.111111    0.00137174   8 t-inv F
  0.000000 -0.333333 -0.111111    0.00137174   8 t-inv F
  0.111111  0.000000  0.333333    0.00137174   8 t-inv F
 -0.111111  0.000000 -0.333333    0.00137174   8 t-inv F
 -0.111111  0.333333  0.000000    0.00137174   8 t-inv F
  0.111111 -0.333333  0.000000    0.00137174   8 t-inv F
 -0.333333  0.000000  0.111111    0.00137174   8 t-inv F
  0.333333  0.000000 -0.111111    0.00137174   8 t-inv F
  0.000000  0.111111  0.333333    0.00137174   8 t-inv F
  0.000000 -0.111111 -0.333333    0.00137174   8 t-inv F
  0.000000 -0.333333  0.111111    0.00137174   8 t-inv F
  0.000000  0.333333 -0.111111    0.00137174   8 t-inv F
 -0.111111  0.000000  0.333333    0.00137174   8 t-inv F
  0.111111  0.000000 -0.333333    0.00137174   8 t-inv F
  0.333333  0.000000  0.111111    0.00137174   8 t-inv F
 -0.333333  0.000000 -0.111111    0.00137174   8 t-inv F
  0.000000 -0.111111  0.333333    0.00137174   8 t-inv F
  0.000000  0.111111 -0.333333    0.00137174   8 t-inv F
  0.333333 -0.111111  0.000000    0.00137174   8 t-inv F
 -0.333333  0.111111  0.000000    0.00137174   8 t-inv F
  0.111111  0.333333  0.000000    0.00137174   8 t-inv F
 -0.111111 -0.333333  0.000000    0.00137174   8 t-inv F
 -0.444444 -0.111111  0.000000    0.00137174   9 t-inv F
  0.000000  0.444444  0.111111    0.00137174   9 t-inv F
  0.000000 -0.444444 -0.111111    0.00137174   9 t-inv F
  0.111111  0.000000  0.444444    0.00137174   9 t-inv F
 -0.111111  0.000000 -0.444444    0.00137174   9 t-inv F
 -0.111111  0.444444  0.000000    0.00137174   9 t-inv F
  0.111111 -0.444444  0.000000    0.00137174   9 t-inv F
 -0.444444  0.000000  0.111111    0.00137174   9 t-inv F
  0.444444  0.000000 -0.111111    0.00137174   9 t-inv F
  0.000000  0.111111  0.444444    0.00137174   9 t-inv F
  0.000000 -0.111111 -0.444444    0.00137174   9 t-inv F
  0.000000 -0.444444  0.111111    0.00137174   9 t-inv F
  0.000000  0.444444 -0.111111    0.00137174   9 t-inv F
 -0.111111  0.000000  0.444444    0.00137174   9 t-inv F
  0.111111  0.000000 -0.444444    0.00137174   9 t-inv F
  0.444444  0.000000  0.111111    0.00137174   9 t-inv F
 -0.444444  0.000000 -0.111111    0.00137174   9 t-inv F
  0.000000 -0.111111  0.444444    0.00137174   9 t-inv F
  0.000000  0.111111 -0.444444    0.00137174   9 t-inv F
  0.444444 -0.111111  0.000000    0.00137174   9 t-inv F
 -0.444444  0.111111  0.000000    0.00137174   9 t-inv F
  0.111111  0.444444  0.000000    0.00137174   9 t-inv F
 -0.111111 -0.444444  0.000000    0.00137174   9 t-inv F
 -0.222222 -0.222222  0.000000    0.00137174  10 t-inv F
  0.000000  0.222222  0.222222    0.00137174  10 t-inv F
  0.000000 -0.222222 -0.222222    0.00137174  10 t-inv F
  0.222222  0.000000  0.222222    0.00137174  10 t-inv F
 -0.222222  0.000000 -0.222222    0.00137174  10 t-inv F
 -0.222222  0.222222  0.000000    0.00137174  10 t-inv F
  0.222222 -0.222222  0.000000    0.00137174  10 t-inv F
 -0.222222  0.000000  0.222222    0.00137174  10 t-inv F
  0.222222  0.000000 -0.222222    0.00137174  10 t-inv F
  0.000000 -0.222222  0.222222    0.00137174  10 t-inv F
  0.000000  0.222222 -0.222222    0.00137174  10 t-inv F
 -0.333333 -0.222222  0.000000    0.00137174  11 t-inv F
  0.000000  0.333333  0.222222    0.00137174  11 t-inv F
  0.000000 -0.333333 -0.222222    0.00137174  11 t-inv F
  0.222222  0.000000  0.333333    0.00137174  11 t-inv F
 -0.222222  0.000000 -0.333333    0.00137174  11 t-inv F
 -0.222222  0.333333  0.000000    0.00137174  11 t-inv F
  0.222222 -0.333333  0.000000    0.00137174  11 t-inv F
 -0.333333  0.000000  0.222222    0.00137174  11 t-inv F
  0.333333  0.000000 -0.222222    0.00137174  11 t-inv F
  0.000000  0.222222  0.333333    0.00137174  11 t-inv F
  0.000000 -0.222222 -0.333333    0.00137174  11 t-inv F
  0.000000 -0.333333  0.222222    0.00137174  11 t-inv F
  0.000000  0.333333 -0.222222    0.00137174  11 t-inv F
 -0.222222  0.000000  0.333333    0.00137174  11 t-inv F
  0.222222  0.000000 -0.333333    0.00137174  11 t-inv F
  0.333333  0.000000  0.222222    0.00137174  11 t-inv F
 -0.333333  0.000000 -0.222222    0.00137174  11 t-inv F
  0.000000 -0.222222  0.333333    0.00137174  11 t-inv F
  0.000000  0.222222 -0.333333    0.00137174  11 t-inv F
  0.333333 -0.222222  0.000000    0.00137174  11 t-inv F
 -0.333333  0.222222  0.000000    0.00137174  11 t-inv F
  0.222222  0.333333  0.000000    0.00137174  11 t-inv F
 -0.222222 -0.333333  0.000000    0.00137174  11 t-inv F
 -0.444444 -0.222222  0.000000    0.00137174  12 t-inv F
  0.000000  0.444444  0.222222    0.00137174  12 t-inv F
  0.000000 -0.444444 -0.222222    0.00137174  12 t-inv F
  0.222222  0.000000  0.444444    0.00137174  12 t-inv F
 -0.222222  0.000000 -0.444444    0.00137174  12 t-inv F
 -0.222222  0.444444  0.000000    0.00137174  12 t-inv F
  0.222222 -0.444444  0.000000    0.00137174  12 t-inv F
 -0.444444  0.000000  0.222222    0.00137174  12 t-inv F
  0.444444  0.000000 -0.222222    0.00137174  12 t-inv F
  0.000000  0.222222  0.444444    0.00137174  12 t-inv F
  0.000000 -0.222222 -0.444444    0.00137174  12 t-inv F
  0.000000 -0.444444  0.222222    0.00137174  12 t-inv F
  0.000000  0.444444 -0.222222    0.00137174  12 t-inv F
 -0.222222  0.000000  0.444444    0.00137174  12 t-inv F
  0.222222  0.000000 -0.444444    0.00137174  12 t-inv F
  0.444444  0.000000  0.222222    0.00137174  12 t-inv F
 -0.444444  0.000000 -0.222222    0.00137174  12 t-inv F
  0.000000 -0.222222  0.444444    0.00137174  12 t-inv F
  0.000000  0.222222 -0.444444    0.00137174  12 t-inv F
  0.444444 -0.222222  0.000000    0.00137174  12 t-inv F
 -0.444444  0.222222  0.000000    0.00137174  12 t-inv F
  0.222222  0.444444  0.000000    0.00137174  12 t-inv F
 -0.222222 -0.444444  0.000000    0.00137174  12 t-inv F
 -0.333333 -0.333333  0.000000    0.00137174  13 t-inv F
  0.000000  0.333333  0.333333    0.00137174  13 t-inv F
  0.000000 -0.333333 -0.333333    0.00137174  13 t-inv F
  0.333333  0.000000  0.333333    0.00137174  13 t-inv F
 -0.333333  0.000000 -0.333333    0.00137174  13 t-inv F
 -0.333333  0.333333  0.000000    0.00137174  13 t-inv F
  0.333333 -0.333333  0.000000    0.00137174  13 t-inv F
 -0.333333  0.000000  0.333333    0.00137174  13 t-inv F
  0.333333  0.000000 -0.333333    0.00137174  13 t-inv F
  0.000000 -0.333333  0.333333    0.00137174  13 t-inv F
  0.000000  0.333333 -0.333333    0.00137174  13 t-inv F
 -0.444444 -0.333333  0.000000    0.00137174  14 t-inv F
  0.000000  0.444444  0.333333    0.00137174  14 t-inv F
  0.000000 -0.444444 -0.333333    0.00137174  14 t-inv F
  0.333333  0.000000  0.444444    0.00137174  14 t-inv F
 -0.333333  0.000000 -0.444444    0.00137174  14 t-inv F
 -0.333333  0.444444  0.000000    0.00137174  14 t-inv F
  0.333333 -0.444444  0.000000    0.00137174  14 t-inv F
 -0.444444  0.000000  0.333333    0.00137174  14 t-inv F
  0.444444  0.000000 -0.333333    0.00137174  14 t-inv F
  0.000000  0.333333  0.444444    0.00137174  14 t-inv F
  0.000000 -0.333333 -0.444444    0.00137174  14 t-inv F
  0.000000 -0.444444  0.333333    0.00137174  14 t-inv F
  0.000000  0.444444 -0.333333    0.00137174  14 t-inv F
 -0.333333  0.000000  0.444444    0.00137174  14 t-inv F
  0.333333  0.000000 -0.444444    0.00137174  14 t-inv F
  0.444444  0.000000  0.333333    0.00137174  14 t-inv F
 -0.444444  0.000000 -0.333333    0.00137174  14 t-inv F
  0.000000 -0.333333  0.444444    0.00137174  14 t-inv F
  0.000000  0.333333 -0.444444    0.00137174  14 t-inv F
  0.444444 -0.333333  0.000000    0.00137174  14 t-inv F
 -0.444444  0.333333  0.000000    0.00137174  14 t-inv F
  0.333333  0.444444  0.000000    0.00137174  14 t-inv F
 -0.333333 -0.444444  0.000000    0.00137174  14 t-inv F
 -0.444444 -0.444444  0.000000    0.00137174  15 t-inv F
  0.000000  0.444444  0.444444    0.00137174  15 t-inv F
  0.000000 -0.444444 -0.444444    0.00137174  15 t-inv F
  0.444444  0.000000  0.444444    0.00137174  15 t-inv F
 -0.444444  0.000000 -0.444444    0.00137174  15 t-inv F
 -0.444444  0.444444  0.000000    0.00137174  15 t-inv F
  0.444444 -0.444444  0.000000    0.00137174  15 t-inv F
 -0.444444  0.000000  0.444444    0.00137174  15 t-inv F
  0.444444  0.000000 -0.444444    0.00137174  15 t-inv F
  0.000000 -0.444444  0.444444    0.00137174  15 t-inv F
  0.000000  0.444444 -0.444444    0.00137174  15 t-inv F
 -0.111111 -0.111111 -0.111111    0.00137174  16 t-inv F
 -0.111111  0.111111  0.111111    0.00137174  16 t-inv F
  0.111111 -0.111111 -0.111111    0.00137174  16 t-inv F
 -0.111111 -0.111111  0.111111    0.00137174  16 t-inv F
  0.111111  0.111111 -0.111111    0.00137174  16 t-inv F
  0.111111 -0.111111  0.111111    0.00137174  16 t-inv F
 -0.111111  0.111111 -0.111111    0.00137174  16 t-inv F
 -0.222222 -0.111111 -0.111111    0.00137174  17 t-inv F
  0.111111  0.222222  0.111111    0.00137174  17 t-inv F
 -0.111111 -0.222222 -0.111111    0.00137174  17 t-inv F
  0.111111  0.111111  0.222222    0.00137174  17 t-inv F
 -0.111111 -0.111111 -0.222222    0.00137174  17 t-inv F
 -0.111111  0.222222  0.111111    0.00137174  17 t-inv F
  0.111111 -0.222222 -0.111111    0.00137174  17 t-inv F
 -0.222222  0.111111  0.111111    0.00137174  17 t-inv F
  0.222222 -0.111111 -0.111111    0.00137174  17 t-inv F
 -0.111111  0.111111  0.222222    0.00137174  17 t-inv F
  0.111111 -0.111111 -0.222222    0.00137174  17 t-inv F
 -0.222222 -0.111111  0.111111    0.00137174  17 t-inv F
  0.222222  0.111111 -0.111111    0.00137174  17 t-inv F
 -0.111111 -0.222222  0.111111    0.00137174  17 t-inv F
  0.111111  0.222222 -0.111111    0.00137174  17 t-inv F
 -0.111111 -0.111111  0.222222    0.00137174  17 t-inv F
  0.111111  0.111111 -0.222222    0.00137174  17 t-inv F
  0.111111 -0.222222  0.111111    0.00137174  17 t-inv F
 -0.111111  0.222222 -0.111111    0.00137174  17 t-inv F
  0.222222 -0.111111  0.111111    0.00137174  17 t-inv F
 -0.222222  0.111111 -0.111111    0.00137174  17 t-inv F
  0.111111 -0.111111  0.222222    0.00137174  17 t-inv F
 -0.111111  0.111111 -0.222222    0.00137174  17 t-inv F
 -0.333333 -0.111111 -0.111111    0.00137174  18 t-inv F
  0.111111  0.333333  0.111111    0.00137174  18 t-inv F
 -0.111111 -0.333333 -0.111111    0.00137174  18 t-inv F
  0.111111  0.111111  0.333333    0.00137174  18 t-inv F
 -0.111111 -0.111111 -0.333333    0.00137174  18 t-inv F
 -0.111111  0.333333  0.111111    0.00137174  18 t-inv F
  0.111111 -0.333333 -0.111111    0.00137174  18 t-inv F
 -0.333333  0.111111  0.111111    0.00137174  18 t-inv F
  0.333333 -0.111111 -0.111111    0.00137174  18 t-inv F
 -0.111111  0.111111  0.333333    0.00137174  18 t-inv F
  0.111111 -0.111111 -0.333333    0.00137174  18 t-inv F
 -0.333333 -0.111111  0.111111    0.00137174  18 t-inv F
  0.333333  0.111111 -0.111111    0.00137174  18 t-inv F
 -0.111111 -0.333333  0.111111    0.00137174  18 t-inv F
  0.111111  0.333333 -0.111111    0.00137174  18 t-inv F
 -0.111111 -0.111111  0.333333    0.00137174  18 t-inv F
  0.111111  0.111111 -0.333333    0.00137174  18 t-inv F
  0.111111 -0.333333  0.111111    0.00137174  18 t-inv F
 -0.111111  0.333333 -0.111111    0.00137174  18 t-inv F
  0.333333 -0.111111  0.111111    0.00137174  18 t-inv F
 -0.333333  0.111111 -0.111111    0.00137174  18 t-inv F
  0.111111 -0.111111  0.333333    0.00137174  18 t-inv F
 -0.111111  0.111111 -0.333333    0.00137174  18 t-inv F
 -0.444444 -0.111111 -0.111111    0.00137174  19 t-inv F
  0.111111  0.444444  0.111111    0.00137174  19 t-inv F
 -0.111111 -0.444444 -0.111111    0.00137174  19 t-inv F
  0.111111  0.111111  0.444444    0.00137174  19 t-inv F
 -0.111111 -0.111111 -0.444444    0.00137174  19 t-inv F
 -0.111111  0.444444  0.111111    0.00137174  19 t-inv F
  0.111111 -0.444444 -0.111111    0.00137174  19 t-inv F
 -0.444444  0.111111  0.111111    0.00137174  19 t-inv F
  0.444444 -0.111111 -0.111111    0.00137174  19 t-inv F
 -0.111111  0.111111  0.444444    0.00137174  19 t-inv F
  0.111111 -0.111111 -0.444444    0.00137174  19 t-inv F
 -0.444444 -0.111111  0.111111    0.00137174  19 t-inv F
  0.444444  0.111111 -0.111111    0.00137174  19 t-inv F
 -0.111111 -0.444444  0.111111    0.00137174  19 t-inv F
  0.111111  0.444444 -0.111111    0.00137174  19 t-inv F
 -0.111111 -0.111111  0.444444    0.00137174  19 t-inv F
  0.111111  0.111111 -0.444444    0.00137174  19 t-inv F
  0.111111 -0.444444  0.111111    0.00137174  19 t-inv F
 -0.111111  0.444444 -0.111111    0.00137174  19 t-inv F
  0.444444 -0.111111  0.111111    0.00137174  19 t-inv F
 -0.444444  0.111111 -0.111111    0.00137174  19 t-inv F
  0.111111 -0.111111  0.444444    0.00137174  19 t-inv F
 -0.111111  0.111111 -0.444444    0.00137174  19 t-inv F
 -0.222222 -0.222222 -0.111111    0.00137174  20 t-inv F
  0.111111  0.222222  0.222222    0.00137174  20 t-inv F
 -0.111111 -0.222222 -0.222222    0.00137174  20 t-inv F
  0.222222  0.111111  0.222222    0.00137174  20 t-inv F
 -0.222222 -0.111111 -0.222222    0.00137174  20 t-inv F
 -0.222222  0.222222  0.111111    0.00137174  20 t-inv F
  0.222222 -0.222222 -0.111111    0.00137174  20 t-inv F
 -0.222222  0.111111  0.222222    0.00137174  20 t-inv F
  0.222222 -0.111111 -0.222222    0.00137174  20 t-inv F
 -0.111111  0.222222  0.222222    0.00137174  20 t-inv F
  0.111111 -0.222222 -0.222222    0.00137174  20 t-inv F
 -0.222222 -0.222222  0.111111    0.00137174  20 t-inv F
  0.222222  0.222222 -0.111111    0.00137174  20 t-inv F
 -0.111111 -0.222222  0.222222    0.00137174  20 t-inv F
  0.111111  0.222222 -0.222222    0.00137174  20 t-inv F
 -0.222222 -0.111111  0.222222    0.00137174  20 t-inv F
  0.222222  0.111111 -0.222222    0.00137174  20 t-inv F
  0.222222 -0.222222  0.111111    0.00137174  20 t-inv F
 -0.222222  0.222222 -0.111111    0.00137174  20 t-inv F
  0.222222 -0.111111  0.222222    0.00137174  20 t-inv F
 -0.222222  0.111111 -0.222222    0.00137174  20 t-inv F
  0.111111 -0.222222  0.222222    0.00137174  20 t-inv F
 -0.111111  0.222222 -0.222222    0.00137174  20 t-inv F
 -0.333333 -0.222222 -0.111111    0.00137174  21 t-inv F
  0.111111  0.333333  0.222222    0.00137174  21 t-inv F
 -0.111111 -0.333333 -0.222222    0.00137174  21 t-inv F
  0.222222  0.111111  0.333333    0.00137174  21 t-inv F
 -0.222222 -0.111111 -0.333333    0.00137174  21 t-inv F
 -0.222222  0.333333  0.111111    0.00137174  21 t-inv F
  0.222222 -0.333333 -0.111111    0.00137174  21 t-inv F
 -0.333333  0.111111  0.222222    0.00137174  21 t-inv F
  0.333333 -0.111111 -0.222222    0.00137174  21 t-inv F
 -0.111111  0.222222  0.333333    0.00137174  21 t-inv F
  0.111111 -0.222222 -0.333333    0.00137174  21 t-inv F
 -0.333333 -0.222222  0.111111    0.00137174  21 t-inv F
  0.333333  0.222222 -0.111111    0.00137174  21 t-inv F
 -0.111111 -0.333333  0.222222    0.00137174  21 t-inv F
  0.111111  0.333333 -0.222222    0.00137174  21 t-inv F
 -0.222222 -0.111111  0.333333    0.00137174  21 t-inv F
  0.222222  0.111111 -0.333333    0.00137174  21 t-inv F
  0.222222 -0.333333  0.111111    0.00137174  21 t-inv F
 -0.222222  0.333333 -0.111111    0.00137174  21 t-inv F
  0.333333 -0.111111  0.222222    0.00137174  21 t-inv F
 -0.333333  0.111111 -0.222222    0.00137174  21 t-inv F
  0.111111 -0.222222  0.333333    0.00137174  21 t-inv F
 -0.111111  0.222222 -0.333333    0.00137174  21 t-inv F
  0.111111 -0.333333 -0.222222    0.00137174  21 t-inv F
 -0.111111  0.333333  0.222222    0.00137174  21 t-inv F
  0.222222 -0.111111 -0.333333    0.00137174  21 t-inv F
 -0.222222  0.111111  0.333333    0.00137174  21 t-inv F
  0.333333 -0.222222 -0.111111    0.00137174  21 t-inv F
 -0.333333  0.222222  0.111111    0.00137174  21 t-inv F
  0.111111  0.222222 -0.333333    0.00137174  21 t-inv F
 -0.111111 -0.222222  0.333333    0.00137174  21 t-inv F
  0.222222  0.333333 -0.111111    0.00137174  21 t-inv F
 -0.222222 -0.333333  0.111111    0.00137174  21 t-inv F
  0.333333  0.111111 -0.222222    0.00137174  21 t-inv F
 -0.333333 -0.111111  0.222222    0.00137174  21 t-inv F
 -0.222222  0.111111 -0.333333    0.00137174  21 t-inv F
  0.222222 -0.111111  0.333333    0.00137174  21 t-inv F
 -0.333333  0.222222 -0.111111    0.00137174  21 t-inv F
  0.333333 -0.222222  0.111111    0.00137174  21 t-inv F
 -0.111111  0.333333 -0.222222    0.00137174  21 t-inv F
  0.111111 -0.333333  0.222222    0.00137174  21 t-inv F
 -0.333333 -0.111111 -0.222222    0.00137174  21 t-inv F
  0.333333  0.111111  0.222222    0.00137174  21 t-inv F
 -0.222222 -0.333333 -0.111111    0.00137174  21 t-inv F
  0.222222  0.333333  0.111111    0.00137174  21 t-inv F
 -0.111111 -0.222222 -0.333333    0.00137174  21 t-inv F
  0.111111  0.222222  0.333333    0.00137174  21 t-inv F
 -0.444444 -0.222222 -0.111111    0.00137174  22 t-inv F
  0.111111  0.444444  0.222222    0.00137174  22 t-inv F
 -0.111111 -0.444444 -0.222222    0.00137174  22 t-inv F
  0.222222  0.111111  0.444444    0.00137174  22 t-inv F
 -0.222222 -0.111111 -0.444444    0.00137174  22 t-inv F
 -0.222222  0.444444  0.111111    0.00137174  22 t-inv F
  0.222222 -0.444444 -0.111111    0.00137174  22 t-inv F
 -0.444444  0.111111  0.222222    0.00137174  22 t-inv F
  0.444444 -0.111111 -0.222222    0.00137174  22 t-inv F
 -0.111111  0.222222  0.444444    0.00137174  22 t-inv F
  0.111111 -0.222222 -0.444444    0.00137174  22 t-inv F
 -0.444444 -0.222222  0.111111    0.00137174  22 t-inv F
  0.444444  0.222222 -0.111111    0.00137174  22 t-inv F
 -0.111111 -0.444444  0.222222    0.00137174  22 t-inv F
  0.111111  0.444444 -0.222222    0.00137174  22 t-inv F
 -0.222222 -0.111111  0.444444    0.00137174  22 t-inv F
  0.222222  0.111111 -0.444444    0.00137174  22 t-inv F
  0.222222 -0.444444  0.111111    0.00137174  22 t-inv F
 -0.222222  0.444444 -0.111111    0.00137174  22 t-inv F
  0.444444 -0.111111  0.222222    0.00137174  22 t-inv F
 -0.444444  0.111111 -0.222222    0.00137174  22 t-inv F
  0.111111 -0.222222  0.444444    0.00137174  22 t-inv F
 -0.111111  0.222222 -0.444444    0.00137174  22 t-inv F
  0.111111 -0.444444 -0.222222    0.00137174  22 t-inv F
 -0.111111  0.444444  0.222222    0.00137174  22 t-inv F
  0.222222 -0.111111 -0.444444    0.00137174  22 t-inv F
 -0.222222  0.111111  0.444444    0.00137174  22 t-inv F
  0.444444 -0.222222 -0.111111    0.00137174  22 t-inv F
 -0.444444  0.222222  0.111111    0.00137174  22 t-inv F
  0.111111  0.222222 -0.444444    0.00137174  22 t-inv F
 -0.111111 -0.222222  0.444444    0.00137174  22 t-inv F
  0.222222  0.444444 -0.111111    0.00137174  22 t-inv F
 -0.222222 -0.444444  0.111111    0.00137174  22 t-inv F
  0.444444  0.111111 -0.222222    0.00137174  22 t-inv F
 -0.444444 -0.111111  0.222222    0.00137174  22 t-inv F
 -0.222222  0.111111 -0.444444    0.00137174  22 t-inv F
  0.222222 -0.111111  0.444444    0.00137174  22 t-inv F
 -0.444444  0.222222 -0.111111    0.00137174  22 t-inv F
  0.444444 -0.222222  0.111111    0.00137174  22 t-inv F
 -0.111111  0.444444 -0.222222    0.00137174  22 t-inv F
  0.111111 -0.444444  0.222222    0.00137174  22 t-inv F
 -0.444444 -0.111111 -0.222222    0.00137174  22 t-inv F
  0.444444  0.111111  0.222222    0.00137174  22 t-inv F
 -0.222222 -0.444444 -0.111111    0.00137174  22 t-inv F
  0.222222  0.444444  0.111111    0.00137174  22 t-inv F
 -0.111111 -0.222222 -0.444444    0.00137174  22 t-inv F
  0.111111  0.222222  0.444444    0.00137174  22 t-inv F
 -0.333333 -0.333333 -0.111111    0.00137174  23 t-inv F
  0.111111  0.333333  0.333333    0.00137174  23 t-inv F
 -0.111111 -0.333333 -0.333333    0.00137174  23 t-inv F
  0.333333  0.111111  0.333333    0.00137174  23 t-inv F
 -0.333333 -0.111111 -0.333333    0.00137174  23 t-inv F
 -0.333333  0.333333  0.111111    0.00137174  23 t-inv F
  0.333333 -0.333333 -0.111111    0.00137174  23 t-inv F
 -0.333333  0.111111  0.333333    0.00137174  23 t-inv F
  0.333333 -0.111111 -0.333333    0.00137174  23 t-inv F
 -0.111111  0.333333  0.333333    0.00137174  23 t-inv F
  0.111111 -0.333333 -0.333333    0.00137174  23 t-inv F
 -0.333333 -0.333333  0.111111    0.00137174  23 t-inv F
  0.333333  0.333333 -0.111111    0.00137174  23 t-inv F
 -0.111111 -0.333333  0.333333    0.00137174  23 t-inv F
  0.111111  0.333333 -0.333333    0.00137174  23 t-inv F
 -0.333333 -0.111111  0.333333    0.00137174  23 t-inv F
  0.333333  0.111111 -0.333333    0.00137174  23 t-inv F
  0.333333 -0.333333  0.111111    0.00137174  23 t-inv F
 -0.333333  0.333333 -0.111111    0.00137174  23 t-inv F
  0.333333 -0.111111  0.333333    0.00137174  23 t-inv F
 -0.333333  0.111111 -0.333333    0.00137174  23 t-inv F
  0.111111 -0.333333  0.333333    0.00137174  23 t-inv F
 -0.111111  0.333333 -0.333333    0.00137174  23 t-inv F
 -0.444444 -0.333333 -0.111111    0.00137174  24 t-inv F
  0.111111  0.444444  0.333333    0.00137174  24 t-inv F
 -0.111111 -0.444444 -0.333333    0.00137174  24 t-inv F
  0.333333  0.111111  0.444444    0.00137174  24 t-inv F
 -0.333333 -0.111111 -0.444444    0.00137174  24 t-inv F
 -0.333333  0.444444  0.111111    0.00137174  24 t-inv F
  0.333333 -0.444444 -0.111111    0.00137174  24 t-inv F
 -0.444444  0.111111  0.333333    0.00137174  24 t-inv F
  0.444444 -0.111111 -0.333333    0.00137174  24 t-inv F
 -0.111111  0.333333  0.444444    0.00137174  24 t-inv F
  0.111111 -0.333333 -0.444444    0.00137174  24 t-inv F
 -0.444444 -0.333333  0.111111    0.00137174  24 t-inv F
  0.444444  0.333333 -0.111111    0.00137174  24 t-inv F
 -0.111111 -0.444444  0.333333    0.00137174  24 t-inv F
  0.111111  0.444444 -0.333333    0.00137174  24 t-inv F
 -0.333333 -0.111111  0.444444    0.00137174  24 t-inv F
  0.333333  0.111111 -0.444444    0.00137174  24 t-inv F
  0.333333 -0.444444  0.111111    0.00137174  24 t-inv F
 -0.333333  0.444444 -0.111111    0.00137174  24 t-inv F
  0.444444 -0.111111  0.333333    0.00137174  24 t-inv F
 -0.444444  0.111111 -0.333333    0.00137174  24 t-inv F
  0.111111 -0.333333  0.444444    0.00137174  24 t-inv F
 -0.111111  0.333333 -0.444444    0.00137174  24 t-inv F
  0.111111 -0.444444 -0.333333    0.00137174  24 t-inv F
 -0.111111  0.444444  0.333333    0.00137174  24 t-inv F
  0.333333 -0.111111 -0.444444    0.00137174  24 t-inv F
 -0.333333  0.111111  0.444444    0.00137174  24 t-inv F
  0.444444 -0.333333 -0.111111    0.00137174  24 t-inv F
 -0.444444  0.333333  0.111111    0.00137174  24 t-inv F
  0.111111  0.333333 -0.444444    0.00137174  24 t-inv F
 -0.111111 -0.333333  0.444444    0.00137174  24 t-inv F
  0.333333  0.444444 -0.111111    0.00137174  24 t-inv F
 -0.333333 -0.444444  0.111111    0.00137174  24 t-inv F
  0.444444  0.111111 -0.333333    0.00137174  24 t-inv F
 -0.444444 -0.111111  0.333333    0.00137174  24 t-inv F
 -0.333333  0.111111 -0.444444    0.00137174  24 t-inv F
  0.333333 -0.111111  0.444444    0.00137174  24 t-inv F
 -0.444444  0.333333 -0.111111    0.00137174  24 t-inv F
  0.444444 -0.333333  0.111111    0.00137174  24 t-inv F
 -0.111111  0.444444 -0.333333    0.00137174  24 t-inv F
  0.111111 -0.444444  0.333333    0.00137174  24 t-inv F
 -0.444444 -0.111111 -0.333333    0.00137174  24 t-inv F
  0.444444  0.111111  0.333333    0.00137174  24 t-inv F
 -0.333333 -0.444444 -0.111111    0.00137174  24 t-inv F
  0.333333  0.444444  0.111111    0.00137174  24 t-inv F
 -0.111111 -0.333333 -0.444444    0.00137174  24 t-inv F
  0.111111  0.333333  0.444444    0.00137174  24 t-inv F
 -0.444444 -0.444444 -0.111111    0.00137174  25 t-inv F
  0.111111  0.444444  0.444444    0.00137174  25 t-inv F
 -0.111111 -0.444444 -0.444444    0.00137174  25 t-inv F
  0.444444  0.111111  0.444444    0.00137174  25 t-inv F
 -0.444444 -0.111111 -0.444444    0.00137174  25 t-inv F
 -0.444444  0.444444  0.111111    0.00137174  25 t-inv F
  0.444444 -0.444444 -0.111111    0.00137174  25 t-inv F
 -0.444444  0.111111  0.444444    0.00137174  25 t-inv F
  0.444444 -0.111111 -0.444444    0.00137174  25 t-inv F
 -0.111111  0.444444  0.444444    0.00137174  25 t-inv F
  0.111111 -0.444444 -0.444444    0.00137174  25 t-inv F
 -0.444444 -0.444444  0.111111    0.00137174  25 t-inv F
  0.444444  0.444444 -0.111111    0.00137174  25 t-inv F
 -0.111111 -0.444444  0.444444    0.00137174  25 t-inv F
  0.111111  0.444444 -0.444444    0.00137174  25 t-inv F
 -0.444444 -0.111111  0.444444    0.00137174  25 t-inv F
  0.444444  0.111111 -0.444444    0.00137174  25 t-inv F
  0.444444 -0.444444  0.111111    0.00137174  25 t-inv F
 -0.444444  0.444444 -0.111111    0.00137174  25 t-inv F
  0.444444 -0.111111  0.444444    0.00137174  25 t-inv F
 -0.444444  0.111111 -0.444444    0.00137174  25 t-inv F
  0.111111 -0.444444  0.444444    0.00137174  25 t-inv F
 -0.111111  0.444444 -0.444444    0.00137174  25 t-inv F
 -0.222222 -0.222222 -0.222222    0.00137174  26 t-inv F
 -0.222222  0.222222  0.222222    0.00137174  26 t-inv F
  0.222222 -0.222222 -0.222222    0.00137174  26 t-inv F
 -0.222222 -0.222222  0.222222    0.00137174  26 t-inv F
  0.222222  0.222222 -0.222222    0.00137174  26 t-inv F
  0.222222 -0.222222  0.222222    0.00137174  26 t-inv F
 -0.222222  0.222222 -0.222222    0.00137174  26 t-inv F
 -0.333333 -0.222222 -0.222222    0.00137174  27 t-inv F
  0.222222  0.333333  0.222222    0.00137174  27 t-inv F
 -0.222222 -0.333333 -0.222222    0.00137174  27 t-inv F
  0.222222  0.222222  0.333333    0.00137174  27 t-inv F
 -0.222222 -0.222222 -0.333333    0.00137174  27 t-inv F
 -0.222222  0.333333  0.222222    0.00137174  27 t-inv F
  0.222222 -0.333333 -0.222222    0.00137174  27 t-inv F
 -0.333333  0.222222  0.222222    0.00137174  27 t-inv F
  0.333333 -0.222222 -0.222222    0.00137174  27 t-inv F
 -0.222222  0.222222  0.333333    0.00137174  27 t-inv F
  0.222222 -0.222222 -0.333333    0.00137174  27 t-inv F
 -0.333333 -0.222222  0.222222    0.00137174  27 t-inv F
  0.333333  0.222222 -0.222222    0.00137174  27 t-inv F
 -0.222222 -0.333333  0.222222    0.00137174  27 t-inv F
  0.222222  0.333333 -0.222222    0.00137174  27 t-inv F
 -0.222222 -0.222222  0.333333    0.00137174  27 t-inv F
  0.222222  0.222222 -0.333333    0.00137174  27 t-inv F
  0.222222 -0.333333  0.222222    0.00137174  27 t-inv F
 -0.222222  0.333333 -0.222222    0.00137174  27 t-inv F
  0.333333 -0.222222  0.222222    0.00137174  27 t-inv F
 -0.333333  0.222222 -0.222222    0.00137174  27 t-inv F
  0.222222 -0.222222  0.333333    0.00137174  27 t-inv F
 -0.222222  0.222222 -0.333333    0.00137174  27 t-inv F
 -0.444444 -0.222222 -0.222222    0.00137174  28 t-inv F
  0.222222  0.444444  0.222222    0.00137174  28 t-inv F
 -0.222222 -0.444444 -0.222222    0.00137174  28 t-inv F
  0.222222  0.222222  0.444444    0.00137174  28 t-inv F
 -0.222222 -0.222222 -0.444444    0.00137174  28 t-inv F
 -0.222222  0.444444  0.222222    0.00137174  28 t-inv F
  0.222222 -0.444444 -0.222222    0.00137174  28 t-inv F
 -0.444444  0.222222  0.222222    0.00137174  28 t-inv F
  0.444444 -0.222222 -0.222222    0.00137174  28 t-inv F
 -0.222222  0.222222  0.444444    0.00137174  28 t-inv F
  0.222222 -0.222222 -0.444444    0.00137174  28 t-inv F
 -0.444444 -0.222222  0.222222    0.00137174  28 t-inv F
  0.444444  0.222222 -0.222222    0.00137174  28 t-inv F
 -0.222222 -0.444444  0.222222    0.00137174  28 t-inv F
  0.222222  0.444444 -0.222222    0.00137174  28 t-inv F
 -0.222222 -0.222222  0.444444    0.00137174  28 t-inv F
  0.222222  0.222222 -0.444444    0.00137174  28 t-inv F
  0.222222 -0.444444  0.222222    0.00137174  28 t-inv F
 -0.222222  0.444444 -0.222222    0.00137174  28 t-inv F
  0.444444 -0.222222  0.222222    0.00137174  28 t-inv F
 -0.444444  0.222222 -0.222222    0.00137174  28 t-inv F
  0.222222 -0.222222  0.444444    0.00137174  28 t-inv F
 -0.222222  0.222222 -0.444444    0.00137174  28 t-inv F
 -0.333333 -0.333333 -0.222222    0.00137174  29 t-inv F
  0.222222  0.333333  0.333333    0.00137174  29 t-inv F
 -0.222222 -0.333333 -0.333333    0.00137174  29 t-inv F
  0.333333  0.222222  0.333333    0.00137174  29 t-inv F
 -0.333333 -0.222222 -0.333333    0.00137174  29 t-inv F
 -0.333333  0.333333  0.222222    0.00137174  29 t-inv F
  0.333333 -0.333333 -0.222222    0.00137174  29 t-inv F
 -0.333333  0.222222  0.333333    0.00137174  29 t-inv F
  0.333333 -0.222222 -0.333333    0.00137174  29 t-inv F
 -0.222222  0.333333  0.333333    0.00137174  29 t-inv F
  0.222222 -0.333333 -0.333333    0.00137174  29 t-inv F
 -0.333333 -0.333333  0.222222    0.00137174  29 t-inv F
  0.333333  0.333333 -0.222222    0.00137174  29 t-inv F
 -0.222222 -0.333333  0.333333    0.00137174  29 t-inv F
  0.222222  0.333333 -0.333333    0.00137174  29 t-inv F
 -0.333333 -0.222222  0.333333    0.00137174  29 t-inv F
  0.333333  0.222222 -0.333333    0.00137174  29 t-inv F
  0.333333 -0.333333  0.222222    0.00137174  29 t-inv F
 -0.333333  0.333333 -0.222222    0.00137174  29 t-inv F
  0.333333 -0.222222  0.333333    0.00137174  29 t-inv F
 -0.333333  0.222222 -0.333333    0.00137174  29 t-inv F
  0.222222 -0.333333  0.333333    0.00137174  29 t-inv F
 -0.222222  0.333333 -0.333333    0.00137174  29 t-inv F
 -0.444444 -0.333333 -0.222222    0.00137174  30 t-inv F
  0.222222  0.444444  0.333333    0.00137174  30 t-inv F
 -0.222222 -0.444444 -0.333333    0.00137174  30 t-inv F
  0.333333  0.222222  0.444444    0.00137174  30 t-inv F
 -0.333333 -0.222222 -0.444444    0.00137174  30 t-inv F
 -0.333333  0.444444  0.222222    0.00137174  30 t-inv F
  0.333333 -0.444444 -0.222222    0.00137174  30 t-inv F
 -0.444444  0.222222  0.333333    0.00137174  30 t-inv F
  0.444444 -0.222222 -0.333333    0.00137174  30 t-inv F
 -0.222222  0.333333  0.444444    0.00137174  30 t-inv F
  0.222222 -0.333333 -0.444444    0.00137174  30 t-inv F
 -0.444444 -0.333333  0.222222    0.00137174  30 t-inv F
  0.444444  0.333333 -0.222222    0.00137174  30 t-inv F
 -0.222222 -0.444444  0.333333    0.00137174  30 t-inv F
  0.222222  0.444444 -0.333333    0.00137174  30 t-inv F
 -0.333333 -0.222222  0.444444    0.00137174  30 t-inv F
  0.333333  0.222222 -0.444444    0.00137174  30 t-inv F
  0.333333 -0.444444  0.222222    0.00137174  30 t-inv F
 -0.333333  0.444444 -0.222222    0.00137174  30 t-inv F
  0.444444 -0.222222  0.333333    0.00137174  30 t-inv F
 -0.444444  0.222222 -0.333333    0.00137174  30 t-inv F
  0.222222 -0.333333  0.444444    0.00137174  30 t-inv F
 -0.222222  0.333333 -0.444444    0.00137174  30 t-inv F
  0.222222 -0.444444 -0.333333    0.00137174  30 t-inv F
 -0.222222  0.444444  0.333333    0.00137174  30 t-inv F
  0.333333 -0.222222 -0.444444    0.00137174  30 t-inv F
 -0.333333  0.222222  0.444444    0.00137174  30 t-inv F
  0.444444 -0.333333 -0.222222    0.00137174  30 t-inv F
 -0.444444  0.333333  0.222222    0.00137174  30 t-inv F
  0.222222  0.333333 -0.444444    0.00137174  30 t-inv F
 -0.222222 -0.333333  0.444444    0.00137174  30 t-inv F
  0.333333  0.444444 -0.222222    0.00137174  30 t-inv F
 -0.333333 -0.444444  0.222222    0.00137174  30 t-inv F
  0.444444  0.222222 -0.333333    0.00137174  30 t-inv F
 -0.444444 -0.222222  0.333333    0.00137174  30 t-inv F
 -0.333333  0.222222 -0.444444    0.00137174  30 t-inv F
  0.333333 -0.222222  0.444444    0.00137174  30 t-inv F
 -0.444444  0.333333 -0.222222    0.00137174  30 t-inv F
  0.444444 -0.333333  0.222222    0.00137174  30 t-inv F
 -0.222222  0.444444 -0.333333    0.00137174  30 t-inv F
  0.222222 -0.444444  0.333333    0.00137174  30 t-inv F
 -0.444444 -0.222222 -0.333333    0.00137174  30 t-inv F
  0.444444  0.222222  0.333333    0.00137174  30 t-inv F
 -0.333333 -0.444444 -0.222222    0.00137174  30 t-inv F
  0.333333  0.444444  0.222222    0.00137174  30 t-inv F
 -0.222222 -0.333333 -0.444444    0.00137174  30 t-inv F
  0.222222  0.333333  0.444444    0.00137174  30 t-inv F
 -0.444444 -0.444444 -0.222222    0.00137174  31 t-inv F
  0.222222  0.444444  0.444444    0.00137174  31 t-inv F
 -0.222222 -0.444444 -0.444444    0.00137174  31 t-inv F
  0.444444  0.222222  0.444444    0.00137174  31 t-inv F
 -0.444444 -0.222222 -0.444444    0.00137174  31 t-inv F
 -0.444444  0.444444  0.222222    0.00137174  31 t-inv F
  0.444444 -0.444444 -0.222222    0.00137174  31 t-inv F
 -0.444444  0.222222  0.444444    0.00137174  31 t-inv F
  0.444444 -0.222222 -0.444444    0.00137174  31 t-inv F
 -0.222222  0.444444  0.444444    0.00137174  31 t-inv F
  0.222222 -0.444444 -0.444444    0.00137174  31 t-inv F
 -0.444444 -0.444444  0.222222    0.00137174  31 t-inv F
  0.444444  0.444444 -0.222222    0.00137174  31 t-inv F
 -0.222222 -0.444444  0.444444    0.00137174  31 t-inv F
  0.222222  0.444444 -0.444444    0.00137174  31 t-inv F
 -0.444444 -0.222222  0.444444    0.00137174  31 t-inv F
  0.444444  0.222222 -0.444444    0.00137174  31 t-inv F
  0.444444 -0.444444  0.222222    0.00137174  31 t-inv F
 -0.444444  0.444444 -0.222222    0.00137174  31 t-inv F
  0.444444 -0.222222  0.444444    0.00137174  31 t-inv F
 -0.444444  0.222222 -0.444444    0.00137174  31 t-inv F
  0.222222 -0.444444  0.444444    0.00137174  31 t-inv F
 -0.222222  0.444444 -0.444444    0.00137174  31 t-inv F
 -0.333333 -0.333333 -0.333333    0.00137174  32 t-inv F
 -0.333333  0.333333  0.333333    0.00137174  32 t-inv F
  0.333333 -0.333333 -0.333333    0.00137174  32 t-inv F
 -0.333333 -0.333333  0.333333    0.00137174  32 t-inv F
  0.333333  0.333333 -0.333333    0.00137174  32 t-inv F
  0.333333 -0.333333  0.333333    0.00137174  32 t-inv F
 -0.333333  0.333333 -0.333333    0.00137174  32 t-inv F
 -0.444444 -0.333333 -0.333333    0.00137174  33 t-inv F
  0.333333  0.444444  0.333333    0.00137174  33 t-inv F
 -0.333333 -0.444444 -0.333333    0.00137174  33 t-inv F
  0.333333  0.333333  0.444444    0.00137174  33 t-inv F
 -0.333333 -0.333333 -0.444444    0.00137174  33 t-inv F
 -0.333333  0.444444  0.333333    0.00137174  33 t-inv F
  0.333333 -0.444444 -0.333333    0.00137174  33 t-inv F
 -0.444444  0.333333  0.333333    0.00137174  33 t-inv F
  0.444444 -0.333333 -0.333333    0.00137174  33 t-inv F
 -0.333333  0.333333  0.444444    0.00137174  33 t-inv F
  0.333333 -0.333333 -0.444444    0.00137174  33 t-inv F
 -0.444444 -0.333333  0.333333    0.00137174  33 t-inv F
  0.444444  0.333333 -0.333333    0.00137174  33 t-inv F
 -0.333333 -0.444444  0.333333    0.00137174  33 t-inv F
  0.333333  0.444444 -0.333333    0.00137174  33 t-inv F
 -0.333333 -0.333333  0.444444    0.00137174  33 t-inv F
  0.333333  0.333333 -0.444444    0.00137174  33 t-inv F
  0.333333 -0.444444  0.333333    0.00137174  33 t-inv F
 -0.333333  0.444444 -0.333333    0.00137174  33 t-inv F
  0.444444 -0.333333  0.333333    0.00137174  33 t-inv F
 -0.444444  0.333333 -0.333333    0.00137174  33 t-inv F
  0.333333 -0.333333  0.444444    0.00137174  33 t-inv F
 -0.333333  0.333333 -0.444444    0.00137174  33 t-inv F
 -0.444444 -0.444444 -0.333333    0.00137174  34 t-inv F
  0.333333  0.444444  0.444444    0.00137174  34 t-inv F
 -0.333333 -0.444444 -0.444444    0.00137174  34 t-inv F
  0.444444  0.333333  0.444444    0.00137174  34 t-inv F
 -0.444444 -0.333333 -0.444444    0.00137174  34 t-inv F
 -0.444444  0.444444  0.333333    0.00137174  34 t-inv F
  0.444444 -0.444444 -0.333333    0.00137174  34 t-inv F
 -0.444444  0.333333  0.444444    0.00137174  34 t-inv F
  0.444444 -0.333333 -0.444444    0.00137174  34 t-inv F
 -0.333333  0.444444  0.444444    0.00137174  34 t-inv F
  0.333333 -0.444444 -0.444444    0.00137174  34 t-inv F
 -0.444444 -0.444444  0.333333    0.00137174  34 t-inv F
  0.444444  0.444444 -0.333333    0.00137174  34 t-inv F
 -0.333333 -0.444444  0.444444    0.00137174  34 t-inv F
  0.333333  0.444444 -0.444444    0.00137174  34 t-inv F
 -0.444444 -0.333333  0.444444    0.00137174  34 t-inv F
  0.444444  0.333333 -0.444444    0.00137174  34 t-inv F
  0.444444 -0.444444  0.333333    0.00137174  34 t-inv F
 -0.444444  0.444444 -0.333333    0.00137174  34 t-inv F
  0.444444 -0.333333  0.444444    0.00137174  34 t-inv F
 -0.444444  0.333333 -0.444444    0.00137174  34 t-inv F
  0.333333 -0.444444  0.444444    0.00137174  34 t-inv F
 -0.333333  0.444444 -0.444444    0.00137174  34 t-inv F
 -0.444444 -0.444444 -0.444444    0.00137174  35 t-inv F
 -0.444444  0.444444  0.444444    0.00137174  35 t-inv F
  0.444444 -0.444444 -0.444444    0.00137174  35 t-inv F
 -0.444444 -0.444444  0.444444    0.00137174  35 t-inv F
  0.444444  0.444444 -0.444444    0.00137174  35 t-inv F
  0.444444 -0.444444  0.444444    0.00137174  35 t-inv F
 -0.444444  0.444444 -0.444444    0.00137174  35 t-inv F


--------------------------------------------------------------------------------------------------------




 Dimension of arrays:
   k-points           NKPTS =     35   k-points in BZ     NKDIM =    729   number of bands    NBANDS=     28
   number of dos      NEDOS =    301   number of ions     NIONS =      2
   non local maximal  LDIM  =      6   non local SUM 2l+1 LMDIM =     18
   total plane-waves  NPLWV =   5832
   max r-space proj   IRMAX =      1   max aug-charges    IRDMAX=   9592
   dimension x,y,z NGX =    18 NGY =   18 NGZ =   18
   dimension x,y,z NGXF=    36 NGYF=   36 NGZF=   36
   support grid    NGXF=    36 NGYF=   36 NGZF=   36
   ions per type =               1   1
   NGX,Y,Z   is equivalent  to a cutoff of   8.15,  8.15,  8.15 a.u.
   NGXF,Y,Z  is equivalent  to a cutoff of  16.30, 16.30, 16.30 a.u.

 SYSTEM =  unknown system                          
 POSCAR =  Nd1 Zn1                                 

 Startparameter for this run:
   NWRITE =      2    write-flag & timer
   PREC   = normal    normal or accurate (medium, high low for compatibility)
   ISTART =      0    job   : 0-new  1-cont  2-samecut
   ICHARG =      2    charge: 1-file 2-atom 10-const
   ISPIN  =      1    spin polarized calculation?
   LNONCOLLINEAR =      F non collinear calculations
   LSORBIT =      F    spin-orbit coupling
   INIWAV =      1    electr: 0-lowe 1-rand  2-diag
   LASPH  =      T    aspherical Exc in radial PAW
 Electronic Relaxation 1
   ENCUT  =  400.0 eV  29.40 Ry    5.42 a.u.   5.99  5.99  5.99*2*pi/ulx,y,z
   ENINI  =  400.0     initial cutoff
   ENAUG  =  575.9 eV  augmentation charge cutoff
   NELM   =    100;   NELMIN=  2; NELMDL= -5     # of ELM steps 
   EDIFF  = 0.1E-06   stopping-criterion for ELM
   LREAL  =      F    real-space projection
   NLSPLINE    = F    spline interpolate recip. space projectors
   LCOMPAT=      F    compatible to vasp.4.4
   GGA_COMPAT  = T    GGA compatible to vasp.4.4-vasp.4.6
   LMAXPAW     = -100 max onsite density
   LMAXMIX     =    2 max onsite mixed and CHGCAR
   VOSKOWN=      0    Vosko Wilk Nusair interpolation
   ROPT   =    0.00000   0.00000
 Ionic relaxation
   EDIFFG = -.5E-02   stopping-criterion for IOM
   NSW    =    300    number of steps for IOM
   NBLOCK =      1;   KBLOCK =    300    inner block; outer block 
   IBRION =      2    ionic relax: 0-MD 1-quasi-New 2-CG
   NFREE  =      1    steps in history (QN), initial steepest desc. (CG)
   ISIF   =      3    stress and relaxation
   IWAVPR =     11    prediction:  0-non 1-charg 2-wave 3-comb
   ISYM   =      3    0-nonsym 1-usesym 2-fastsym
   LCORR  =      T    Harris-Foulkes like correction to forces

   POTIM  = 0.5000    time-step for ionic-motion
   TEIN   =    0.0    initial temperature
   TEBEG  =    0.0;   TEEND  =   0.0 temperature during run
   SMASS  =  -3.00    Nose mass-parameter (am)
   estimated Nose-frequenzy (Omega)   =  0.10E-29 period in steps = 0.13E+47 mass=  -0.308E-27a.u.
   SCALEE = 1.0000    scale energy and forces
   NPACO  =    256;   APACO  = 10.0  distance and # of slots for P.C.
   PSTRESS=    0.0 pullay stress

  Mass of Ions in am
   POMASS = 144.24 65.39
  Ionic Valenz
   ZVAL   =  11.00 12.00
  Atomic Wigner-Seitz radii
   RWIGS  =  -1.00 -1.00
  virtual crystal weights 
   VCA    =   1.00  1.00
   NELECT =      23.0000    total number of electrons
   NUPDOWN=      -1.0000    fix difference up-down

 DOS related values:
   EMIN   =  10.00;   EMAX   =-10.00  energy-range for DOS
   EFERMI =   0.00;   METHOD = LEGACY      
   ISMEAR =     0;   SIGMA  =   0.10  broadening in eV -4-tet -1-fermi 0-gaus
   EFERMI_NEDOS =   21; number of points for ismear=-14 and -15

 Electronic relaxation 2 (details)
   IALGO  =     53    algorithm
   LDIAG  =      T    sub-space diagonalisation (order eigenvalues)
   LSUBROT=      F    optimize rotation matrix (better conditioning)
   LROBUST=      F    robust break criterion during scf (extrapolated energy error)
   ISEARCH=      0    line search for conjugate gradient (0, 1=use gradient)
   TURBO    =      0    0=normal 1=particle mesh
   IRESTART =      0    0=no restart 2=restart with 2 vectors
   NREBOOT  =      0    no. of reboots
   NMIN     =      0    reboot dimension
   EREF     =   0.00    reference energy to select bands
   IMIX   =      4    mixing-type and parameters
     AMIX     =   0.40;   BMIX     =  1.00
     AMIX_MAG =   1.60;   BMIX_MAG =  1.00
     AMIN     =   0.10
     WC   =   100.;   INIMIX=   1;  MIXPRE=   1;  MAXMIX= -45

 Intra band minimization:
   WEIMIN = 0.0010     energy-eigenvalue tresh-hold
   EBREAK =  0.89E-09  absolut break condition
   DEPER  =   0.30     relativ break condition  

   TIME   =   0.40     timestep for ELM

  volume/ion in A,a.u.               =      24.73       166.89
  Fermi-wavevector in a.u.,A,eV,Ry     =   1.268316  2.396770 21.886676  1.608625
  Thomas-Fermi vector in A             =   2.401417
 
 Write flags
   LWAVE        =      T    write WAVECAR
   LDOWNSAMPLE  =      F    k-point downsampling of WAVECAR
   LCHARG       =      F    write CHGCAR
   LVTOT        =      F    write LOCPOT, total local potential
   LVHAR        =      F    write LOCPOT, Hartree potential only
   WRT_POTENTIAL= false  ! write potential to hdf5 file
   LELF         =      F    write electronic localiz. function (ELF)
   LORBIT       =     10    0 simple, 1 ext, 2 COOP (PROOUT), +10 PAW based schemes


 Python interface
   PLUGINS active      =      F    recompile with -DPLUGINS to activate
 
 Dipole corrections
   LMONO      =      F    monopole corrections only (constant potential shift)
   LDIPOL     =      F    correct potential (dipole corrections)
   IDIPOL     =      0    1-x, 2-y, 3-z, 4-all directions 
   EPSILON    =  1.0000000 bulk dielectric constant
   LVACPOTAV  =      F  vacuum potentials using an averaging scheme for the charge density
   VACPOTFLAT =  0.1000000 required flatness to determine vacuum potential
 
Coulomb truncation method
  LTRUNCATE          =      F  Coulomb kernel truncation to be used

 
 Exchange correlation treatment:
   GGA     = PE    functional components
   XC_C    = 1    coefficients multiplying the functional components
   LIBXC   =     F    Libxc                    
   VOSKOWN =     0    Vosko Wilk Nusair interpolation
   EXXOEP  =     0    0=HF, 1=EXX-LHF (local Hartree Fock) 2=EXX OEP
   LHFCALC =     T    Hartree Fock is set to
   LSYMGRAD=     F    symmetrize gradient (conserves proper symmetry)
   PRECFOCK=fast      Normal, Fast or Accurate (Low or Medium for compatibility)
   LRHFCALC=     F    long range Hartree Fock
   LRSCOR  =     F    long range correlation only (use DFT for short range part)
   LTHOMAS =     F    Thomas Fermi screening in HF
   LMODELHF=     F    short range full HF, long range fraction AEXX
   FOCKCORR=     1    mode to apply convergence corrections
   LFOCKACE=     T    use Adeptively-Compressed-Exchange operator
   ENCUT4O =  -1.0   cutoff for four orbital integrals eV
   LMAXFOCK=     4    L truncation for augmentation on plane wave grid
   LMAXFOCKAE=  -1    L truncation for all-electron charge restoration on plane wave grid
   NMAXFOCKAE=   1    number of basis functions for all-electron charge restoration
   LFOCKAEDFT=     F  apply the AE augmentation even for DFT
   NKREDX  =     1    reduce k-point grid by
   NKREDY  =     1    reduce k-point grid by
   NKREDZ  =     1    reduce k-point grid by
   SHIFTRED=     F    shift reduced grid of Gamma
   HFKIDENT=     F    idential grid for each k-point
   ODDONLY =     F    use only odd q-grid points
   EVENONLY=     F    use only even q-grid points
   HFALPHA =   -1.0000 decay constant for conv. correction
   MCALPHA =    0.0000 extent of test-charge in conv. correction in multipole expansion
   AEXX    =    0.3600 exact exchange contribution
   HFSCREEN=    0.2000 screening length (either q_TF or 0.3 A-1)
   HFSCREENC=   0.2000 screening length for correlation (either q_TF or 0.3 A-1)
   HFRCUT  =    0.0000 spherical cutoff for potential kernel
   ALDAX   =    0.6400 LDA exchange part
   AGGAX   =    0.6400 GGA exchange part
   AMGGAX  =    0.6400 meta-GGA exchange part
   ALDAC   =    1.0000 LDA correlation
   AGGAC   =    1.0000 GGA correlation
   AMGGAC  =    1.0000 meta-GGA correlation
   ENCUTFOCK=  -1.0 apply spherical cutoff to Coloumb kernel
   NBANDSGWLOW=     1    first orbital included in HF term
   NBLOCK_FOCK=    64    blocking factor in FOCK_ACC

 Parameters of functionals:
   PE:
     No parameter
 
 Van der Waals corrections
   IVDW    =     0    specifies the selected vdW correction

 Linear response parameters
   LEPSILON=     F    determine dielectric tensor
   LRPA    =     F    only Hartree local field effects (RPA)
   LNABLA  =     F    use nabla operator in PAW spheres
   LVEL    =     F    velocity operator in full k-point grid
   CSHIFT  =0.1000    complex shift for real part using Kramers Kronig
   OMEGAMAX=  -1.0    maximum frequency
   DEG_THRESHOLD= 0.2000000E-02 threshold for treating states as degnerate
   RTIME   =   -0.100 relaxation time in fs
  (WPLASMAI=    0.000 imaginary part of plasma frequency in eV, 0.658/RTIME)
   DFIELD  = 0.0000000 0.0000000 0.0000000 field for delta impulse in time
 
  Optional k-point grid parameters
   LKPOINTS_OPT  =     F    use optional k-point grid
   KPOINTS_OPT_MODE=     1    mode for optional k-point grid
 
 Orbital magnetization related:
   ORBITALMAG=     F  switch on orbital magnetization
   LCHIMAG   =     F  perturbation theory with respect to B field
   DQ        =  0.001000  dq finite difference perturbation B field
   LLRAUG    =     F  two centre corrections for induced B field
   LBONE     =     F  B-component reconstruction in AE one-centre
   LVGVCALC  =     T  calculate vGv susceptibility
   LVGVAPPL  =     F  apply vGv susceptibility instead of pGv for G=0

 Random number generation:
   RANDOM_GENERATOR = DEFAULT
   PCG_SEED         = not used


--------------------------------------------------------------------------------------------------------


 conjugate gradient relaxation of ions
 charge density and potential will be updated during run
 non-spin polarized calculation
 Conjugate gradient for all bands (Freysoldt, et al. PRB 79, 241103 (2009))
 perform sub-space diagonalisation
    before iterative eigenvector-optimisation
 modified Broyden-mixing scheme, WC =      100.0
 initial mixing is a Kerker type mixing with AMIX =  0.4000 and BMIX =      1.0000
 Hartree-type preconditioning will be used
 using additional bands           16
 reciprocal scheme for non local part
 use partial core corrections
 no Harris-corrections to forces 
 use gradient corrections 
 use of overlap-Matrix (Vanderbilt PP)
 Gauss-broadening in eV      SIGMA  =   0.10


--------------------------------------------------------------------------------------------------------


  energy-cutoff  :      400.00
  volume of cell :       49.46
      direct lattice vectors                 reciprocal lattice vectors
     3.670765640  0.000000000  0.000000000     0.272422731  0.000000000  0.000000000
     0.000000000  3.670765640  0.000000000     0.000000000  0.272422731  0.000000000
     0.000000000  0.000000000  3.670765640     0.000000000  0.000000000  0.272422731

  length of vectors
     3.670765640  3.670765640  3.670765640     0.272422731  0.272422731  0.272422731


 
 k-points in units of 2pi/SCALE and weight: Num irrep kpoints: 35                   
   0.00000000  0.00000000  0.00000000       0.001
   0.03026919  0.00000000  0.00000000       0.008
   0.06053838  0.00000000  0.00000000       0.008
   0.09080758  0.00000000  0.00000000       0.008
   0.12107677  0.00000000  0.00000000       0.008
   0.03026919  0.03026919  0.00000000       0.016
   0.06053838  0.03026919  0.00000000       0.033
   0.09080758  0.03026919  0.00000000       0.033
   0.12107677  0.03026919  0.00000000       0.033
   0.06053838  0.06053838  0.00000000       0.016
   0.09080758  0.06053838  0.00000000       0.033
   0.12107677  0.06053838  0.00000000       0.033
   0.09080758  0.09080758  0.00000000       0.016
   0.12107677  0.09080758  0.00000000       0.033
   0.12107677  0.12107677  0.00000000       0.016
   0.03026919  0.03026919  0.03026919       0.011
   0.06053838  0.03026919  0.03026919       0.033
   0.09080758  0.03026919  0.03026919       0.033
   0.12107677  0.03026919  0.03026919       0.033
   0.06053838  0.06053838  0.03026919       0.033
   0.09080758  0.06053838  0.03026919       0.066
   0.12107677  0.06053838  0.03026919       0.066
   0.09080758  0.09080758  0.03026919       0.033
   0.12107677  0.09080758  0.03026919       0.066
   0.12107677  0.12107677  0.03026919       0.033
   0.06053838  0.06053838  0.06053838       0.011
   0.09080758  0.06053838  0.06053838       0.033
   0.12107677  0.06053838  0.06053838       0.033
   0.09080758  0.09080758  0.06053838       0.033
   0.12107677  0.09080758  0.06053838       0.066
   0.12107677  0.12107677  0.06053838       0.033
   0.09080758  0.09080758  0.09080758       0.011
   0.12107677  0.09080758  0.09080758       0.033
   0.12107677  0.12107677  0.09080758       0.033
   0.12107677  0.12107677  0.12107677       0.011
 
 k-points in reciprocal lattice and weights: Num irrep kpoints: 35                   
   0.00000000  0.00000000  0.00000000       0.001
   0.11111111  0.00000000  0.00000000       0.008
   0.22222222  0.00000000  0.00000000       0.008
   0.33333333  0.00000000  0.00000000       0.008
   0.44444444  0.00000000  0.00000000       0.008
   0.11111111  0.11111111  0.00000000       0.016
   0.22222222  0.11111111  0.00000000       0.033
   0.33333333  0.11111111  0.00000000       0.033
   0.44444444  0.11111111  0.00000000       0.033
   0.22222222  0.22222222  0.00000000       0.016
   0.33333333  0.22222222  0.00000000       0.033
   0.44444444  0.22222222  0.00000000       0.033
   0.33333333  0.33333333  0.00000000       0.016
   0.44444444  0.33333333  0.00000000       0.033
   0.44444444  0.44444444  0.00000000       0.016
   0.11111111  0.11111111  0.11111111       0.011
   0.22222222  0.11111111  0.11111111       0.033
   0.33333333  0.11111111  0.11111111       0.033
   0.44444444  0.11111111  0.11111111       0.033
   0.22222222  0.22222222  0.11111111       0.033
   0.33333333  0.22222222  0.11111111       0.066
   0.44444444  0.22222222  0.11111111       0.066
   0.33333333  0.33333333  0.11111111       0.033
   0.44444444  0.33333333  0.11111111       0.066
   0.44444444  0.44444444  0.11111111       0.033
   0.22222222  0.22222222  0.22222222       0.011
   0.33333333  0.22222222  0.22222222       0.033
   0.44444444  0.22222222  0.22222222       0.033
   0.33333333  0.33333333  0.22222222       0.033
   0.44444444  0.33333333  0.22222222       0.066
   0.44444444  0.44444444  0.22222222       0.033
   0.33333333  0.33333333  0.33333333       0.011
   0.44444444  0.33333333  0.33333333       0.033
   0.44444444  0.44444444  0.33333333       0.033
   0.44444444  0.44444444  0.44444444       0.011
 
 position of ions in fractional coordinates (direct lattice) 
   0.00000000  0.00000000  0.00000000
   0.50000000  0.50000000  0.50000000
 
 position of ions in cartesian coordinates  (Angst):
   0.00000000  0.00000000  0.00000000
   1.83538282  1.83538282  1.83538282
 


--------------------------------------------------------------------------------------------------------


 k-point     1 :   0.0000 0.0000 0.0000  plane waves:     895
 k-point     2 :   0.1111 0.0000 0.0000  plane waves:     904
 k-point     3 :   0.2222 0.0000 0.0000  plane waves:     904
 k-point     4 :   0.3333 0.0000 0.0000  plane waves:     884
 k-point     5 :   0.4444 0.0000 0.0000  plane waves:     880
 k-point     6 :   0.1111 0.1111 0.0000  plane waves:     897
 k-point     7 :   0.2222 0.1111 0.0000  plane waves:     896
 k-point     8 :   0.3333 0.1111 0.0000  plane waves:     892
 k-point     9 :   0.4444 0.1111 0.0000  plane waves:     888
 k-point    10 :   0.2222 0.2222 0.0000  plane waves:     885
 k-point    11 :   0.3333 0.2222 0.0000  plane waves:     894
 k-point    12 :   0.4444 0.2222 0.0000  plane waves:     894
 k-point    13 :   0.3333 0.3333 0.0000  plane waves:     886
 k-point    14 :   0.4444 0.3333 0.0000  plane waves:     895
 k-point    15 :   0.4444 0.4444 0.0000  plane waves:     894
 k-point    16 :   0.1111 0.1111 0.1111  plane waves:     907
 k-point    17 :   0.2222 0.1111 0.1111  plane waves:     897
[...]
     23      19.9434      0.00000
     24      19.9434      0.00000
     25      20.7933      0.00000
     26      24.0148      0.00000
     27      24.0148      0.00000
     28      25.2564      0.00000

 k-point    27 :       0.3333    0.2222    0.2222
  band No.  band energies     occupation 
      1     -39.3762      2.00000
      2     -18.9701      2.00000
      3     -18.7248      2.00000
      4     -18.6926      2.00000
      5      -6.9487      2.00000
      6      -6.9293      2.00000
      7      -6.9055      2.00000
      8      -6.8836      2.00000
      9      -6.8836      2.00000
     10      -1.9134      2.00000
     11       2.2345      2.00000
     12       2.7512      2.00000
     13       5.1876      0.00000
     14       5.2226      0.00000
     15       6.3535      0.00000
     16       9.7098      0.00000
     17      10.8737      0.00000
     18      12.8276      0.00000
     19      13.8104      0.00000
     20      15.2519      0.00000
     21      17.3270      0.00000
     22      18.7956      0.00000
     23      18.8831      0.00000
     24      20.5122      0.00000
     25      22.3626      0.00000
     26      23.6791      0.00000
     27      23.7570      0.00000
     28      25.7049      0.00000

 k-point    28 :       0.4444    0.2222    0.2222
  band No.  band energies     occupation 
      1     -39.3651      2.00000
      2     -19.1088      2.00000
      3     -18.7039      2.00000
      4     -18.6737      2.00000
      5      -6.9501      2.00000
      6      -6.9468      2.00000
      7      -6.9011      2.00000
      8      -6.8825      2.00000
      9      -6.8580      2.00000
     10      -1.3995      2.00000
     11       1.4180      2.00000
     12       2.5195      2.00000
     13       5.1320      0.00000
     14       6.0786      0.00000
     15       6.8600      0.00000
     16       9.1815      0.00000
     17      10.5327      0.00000
     18      13.4224      0.00000
     19      13.7975      0.00000
     20      15.3556      0.00000
     21      15.8104      0.00000
     22      17.7872      0.00000
     23      20.8849      0.00000
     24      21.2392      0.00000
     25      22.7397      0.00000
     26      23.3691      0.00000
     27      24.8866      0.00000
     28      25.0939      0.00000

 k-point    29 :       0.3333    0.3333    0.2222
  band No.  band energies     occupation 
      1     -39.3595      2.00000
      2     -18.9443      2.00000
      3     -18.9118      2.00000
      4     -18.6777      2.00000
      5      -6.9435      2.00000
      6      -6.9279      2.00000
      7      -6.9072      2.00000
      8      -6.8871      2.00000
      9      -6.8645      2.00000
     10      -1.5707      2.00000
     11       1.9967      2.00000
     12       2.3787      2.00000
     13       5.0938      0.00000
     14       6.0051      0.00000
     15       6.6824      0.00000
     16       8.6574      0.00000
     17      11.1242      0.00000
     18      12.8281      0.00000
     19      13.7987      0.00000
     20      16.1587      0.00000
     21      16.7070      0.00000
     22      18.4064      0.00000
     23      19.7178      0.00000
     24      20.9788      0.00000
     25      21.6716      0.00000
     26      23.0511      0.00000
     27      25.1478      0.00000
     28      25.8934      0.00000

 k-point    30 :       0.4444    0.3333    0.2222
  band No.  band energies     occupation 
      1     -39.3486      2.00000
      2     -19.0638      2.00000
      3     -18.9012      2.00000
      4     -18.6584      2.00000
      5      -6.9560      2.00000
      6      -6.9245      2.00000
      7      -6.9091      2.00000
      8      -6.8929      2.00000
      9      -6.8361      2.00000
     10      -1.3087      2.00000
     11       1.6948      2.00000
     12       2.0391      2.00000
     13       5.3113      0.00000
     14       6.5946      0.00000
     15       7.2202      0.00000
     16       8.0751      0.00000
     17      10.6896      0.00000
     18      13.1786      0.00000
     19      13.9766      0.00000
     20      15.6119      0.00000
     21      15.9400      0.00000
     22      18.8921      0.00000
     23      20.1847      0.00000
     24      21.4472      0.00000
     25      22.3713      0.00000
     26      22.9320      0.00000
     27      24.5490      0.00000
     28      26.0107      0.00000

 k-point    31 :       0.4444    0.4444    0.2222
  band No.  band energies     occupation 
      1     -39.3378      2.00000
      2     -19.0363      2.00000
      3     -19.0315      2.00000
      4     -18.6394      2.00000
      5      -6.9530      2.00000
      6      -6.9194      2.00000
      7      -6.9158      2.00000
      8      -6.9075      2.00000
      9      -6.8115      2.00000
     10      -1.2900      2.00000
     11       1.7657      2.00000
     12       1.9008      2.00000
     13       5.2162      0.00000
     14       6.5824      0.00000
     15       8.0450      0.00000
     16       8.0500      0.00000
     17      10.4732      0.00000
     18      12.7458      0.00000
     19      14.1216      0.00000
     20      15.4064      0.00000
     21      15.4956      0.00000
     22      19.6614      0.00000
     23      20.3523      0.00000
     24      22.2971      0.00000
     25      22.4799      0.00000
     26      22.7482      0.00000
     27      24.0021      0.00000
     28      26.8373      0.00000

 k-point    32 :       0.3333    0.3333    0.3333
  band No.  band energies     occupation 
      1     -39.3431      2.00000
      2     -18.9157      2.00000
      3     -18.8773      2.00000
      4     -18.8773      2.00000
      5      -6.9443      2.00000
      6      -6.8992      2.00000
      7      -6.8992      2.00000
      8      -6.8655      2.00000
      9      -6.8655      2.00000
     10      -1.2128      2.00000
     11       1.6716      2.00000
     12       1.6716      2.00000
     13       5.6577      0.00000
     14       6.7859      0.00000
     15       6.7859      0.00000
     16       7.5317      0.00000
     17      12.4780      0.00000
     18      12.4780      0.00000
     19      14.1037      0.00000
     20      15.8919      0.00000
     21      15.8919      0.00000
     22      20.0973      0.00000
     23      20.0973      0.00000
     24      20.2948      0.00000
     25      21.6612      0.00000
     26      23.8770      0.00000
     27      23.8770      0.00000
     28      25.5402      0.00000

 k-point    33 :       0.4444    0.3333    0.3333
  band No.  band energies     occupation 
      1     -39.3324      2.00000
      2     -19.0228      2.00000
      3     -18.8763      2.00000
      4     -18.8545      2.00000
      5      -6.9423      2.00000
      6      -6.9062      2.00000
      7      -6.8905      2.00000
      8      -6.8687      2.00000
      9      -6.8306      2.00000
     10      -0.9140      2.00000
     11       1.2676      2.00000
     12       1.3330      2.00000
     13       5.6841      0.00000
     14       6.8820      0.00000
     15       6.9525      0.00000
     16       8.4528      0.00000
     17      11.2293      0.00000
     18      13.6972      0.00000
     19      14.3655      0.00000
     20      14.8545      0.00000
     21      15.6402      0.00000
     22      19.3877      0.00000
     23      20.5516      0.00000
     24      21.7991      0.00000
     25      21.9016      0.00000
     26      24.2669      0.00000
     27      24.5580      0.00000
     28      24.8882      0.00000

 k-point    34 :       0.4444    0.4444    0.3333
  band No.  band energies     occupation 
      1     -39.3218      2.00000
      2     -18.9976      2.00000
      3     -18.9935      2.00000
      4     -18.8421      2.00000
      5      -6.9253      2.00000
      6      -6.9024      2.00000
      7      -6.8966      2.00000
      8      -6.8524      2.00000
      9      -6.8112      2.00000
     10      -0.6441      2.00000
     11       0.9829      2.00000
     12       1.0421      2.00000
     13       4.7276      0.00000
     14       7.0181      0.00000
     15       8.7629      0.00000
     16       8.8944      0.00000
     17      11.0455      0.00000
     18      12.7648      0.00000
     19      14.6364      0.00000
     20      15.0995      0.00000
     21      15.3381      0.00000
     22      18.0638      0.00000
     23      21.9906      0.00000
     24      22.7512      0.00000
     25      23.2094      0.00000
     26      23.3496      0.00000
     27      24.7442      0.00000
     28      26.2125      0.00000

 k-point    35 :       0.4444    0.4444    0.4444
  band No.  band energies     occupation 
      1     -39.3114      2.00000
      2     -18.9735      2.00000
      3     -18.9685      2.00000
      4     -18.9685      2.00000
      5      -6.9042      2.00000
      6      -6.8923      2.00000
      7      -6.8923      2.00000
      8      -6.8111      2.00000
      9      -6.8111      2.00000
     10       0.0078      2.00000
     11       0.5760      2.00000
     12       0.5760      2.00000
     13       3.4113      0.00002
     14       9.0918      0.00000
     15       9.0918      0.00000
     16       9.5102      0.00000
     17      11.5757      0.00000
     18      11.5757      0.00000
     19      14.9514      0.00000
     20      14.9572      0.00000
     21      14.9572      0.00000
     22      16.5217      0.00000
     23      23.8071      0.00000
     24      23.8071      0.00000
     25      24.5970      0.00000
     26      25.1579      0.00000
     27      25.1999      0.00000
     28      26.4219      0.00000


--------------------------------------------------------------------------------------------------------


 soft charge-density along one line, spin component           1
         0         1         2         3         4         5         6         7         8         9
 total charge-density along one line
 
 pseudopotential strength for first ion, spin component:           1
-15.481  -4.185  -0.000   0.000   0.000   0.000  -0.000  -0.000
 -4.185  -2.448  -0.000   0.000   0.000   0.000  -0.000  -0.000
 -0.000  -0.000 -14.166  -0.000  -0.000   3.782   0.000   0.000
  0.000   0.000  -0.000 -14.166   0.000   0.000   3.782  -0.000
  0.000   0.000  -0.000   0.000 -14.166   0.000  -0.000   3.782
  0.000   0.000   3.782   0.000   0.000   9.097  -0.000  -0.000
 -0.000  -0.000   0.000   3.782  -0.000  -0.000   9.097   0.000
 -0.000  -0.000   0.000  -0.000   3.782  -0.000   0.000   9.097
 -0.000  -0.000   0.000  -0.000  -0.000  -0.000   0.000   0.000
 -0.000  -0.000   0.000  -0.000  -0.000  -0.000   0.000   0.000
 -0.000   0.000   0.000   0.000  -0.000  -0.000  -0.000   0.000
  0.000   0.000  -0.000   0.000   0.000   0.000  -0.000  -0.000
 -0.000   0.000   0.000   0.000   0.000  -0.000  -0.000  -0.000
 -0.000  -0.000   0.000  -0.000  -0.000  -0.000   0.000   0.000
 -0.000  -0.000   0.000  -0.000  -0.000  -0.000   0.000   0.000
 -0.000   0.000   0.000   0.000  -0.000  -0.000  -0.000   0.000
  0.000   0.000  -0.000   0.000   0.000   0.000  -0.000  -0.000
 -0.000   0.000   0.000   0.000   0.000  -0.000  -0.000  -0.000
 total augmentation occupancy for first ion, spin component:           1
  2.004   0.001   0.000  -0.000  -0.000   0.000  -0.000  -0.000  -0.000  -0.000  -0.000   0.000   0.000   0.000   0.000  -0.000
  0.001   0.923   0.000  -0.000  -0.000  -0.000   0.000   0.000  -0.000  -0.000  -0.000  -0.000  -0.000   0.000   0.000   0.000
  0.000   0.000   1.999   0.000   0.000  -0.022   0.000   0.000  -0.000  -0.000  -0.000   0.000  -0.000   0.000   0.000   0.000
 -0.000  -0.000   0.000   1.999   0.000   0.000  -0.022   0.000  -0.000   0.000  -0.000  -0.000  -0.000   0.000  -0.000   0.000
 -0.000  -0.000   0.000   0.000   1.999   0.000   0.000  -0.022   0.000   0.000   0.000  -0.000  -0.000  -0.000  -0.000  -0.000
  0.000  -0.000  -0.022   0.000   0.000   0.039  -0.000  -0.000  -0.000  -0.000  -0.000   0.000  -0.000   0.000   0.000   0.000
 -0.000   0.000   0.000  -0.022   0.000  -0.000   0.039  -0.000   0.000  -0.000  -0.000  -0.000   0.000  -0.000   0.000   0.000
 -0.000   0.000   0.000   0.000  -0.022  -0.000  -0.000   0.039   0.000  -0.000   0.000  -0.000  -0.000  -0.000   0.000  -0.000
 -0.000  -0.000  -0.000  -0.000   0.000  -0.000   0.000   0.000   2.018   0.000  -0.000  -0.000   0.000  -0.967  -0.000   0.000
 -0.000  -0.000  -0.000   0.000   0.000  -0.000  -0.000  -0.000   0.000   2.018   0.000  -0.000  -0.000  -0.000  -0.967  -0.000
 -0.000  -0.000  -0.000  -0.000   0.000  -0.000  -0.000   0.000  -0.000   0.000   1.476   0.000  -0.000   0.000  -0.000  -0.639
  0.000  -0.000   0.000  -0.000  -0.000   0.000  -0.000  -0.000  -0.000  -0.000   0.000   2.018   0.000   0.000  -0.000  -0.000
  0.000  -0.000  -0.000  -0.000  -0.000  -0.000   0.000  -0.000   0.000  -0.000  -0.000   0.000   1.476  -0.000   0.000   0.000
  0.000   0.000   0.000   0.000  -0.000   0.000  -0.000  -0.000  -0.967  -0.000   0.000   0.000  -0.000   0.469   0.000  -0.000
  0.000   0.000   0.000  -0.000  -0.000   0.000   0.000   0.000  -0.000  -0.967  -0.000  -0.000   0.000   0.000   0.469   0.000
 -0.000   0.000   0.000   0.000  -0.000   0.000   0.000  -0.000   0.000  -0.000  -0.639  -0.000   0.000  -0.000   0.000   0.281
 -0.000   0.000  -0.000   0.000   0.000  -0.000   0.000   0.000   0.000   0.000   0.000  -0.967  -0.000  -0.000  -0.000   0.000
 -0.000   0.000   0.000   0.000   0.000   0.000  -0.000   0.000  -0.000   0.000  -0.000  -0.000  -0.639   0.000  -0.000  -0.000


------------------------ aborting loop because EDIFF is reached ----------------------------------------





 total charge

# of ion       s       p       d       tot
------------------------------------------
    1        2.124   5.836   0.918   8.878
    2        0.648   0.379   9.747  10.774
--------------------------------------------------
tot          2.772   6.216  10.665  19.653
 
    FORLOC:  cpu time      0.0004: real time      0.0004
    FORHF :  cpu time     26.3137: real time     26.4127
    FORNL :  cpu time      0.0059: real time      0.0064
    STRESS:  cpu time      0.0857: real time      0.0864
    FORCOR:  cpu time      0.0118: real time      0.0124
    OFIELD:  cpu time      0.0015: real time      0.0015

  FORCE on cell =-STRESS in cart. coord.  units (eV):
  Direction    XX          YY          ZZ          XY          YZ          ZX
  --------------------------------------------------------------------------------------
  Alpha Z   177.29128   177.29128   177.29128
  Ewald    -633.47355  -633.47355  -633.47355     0.00000    -0.00000    -0.00000
  Hartree   237.21655   237.21654   237.21655     0.00000    -0.00000     0.00000
  E(xc)     -73.76789   -73.76789   -73.76789     0.00000     0.00000    -0.00000
  Local     156.62573   156.62573   156.62573    -0.00000    -0.00000    -0.00000
  n-local    79.49518    73.00244    68.38713    -0.25478     2.75138     1.07610
  augment    25.23938    25.23938    25.23938    -0.00000     0.00000    -0.00000
  Kinetic   205.90456   208.49448   211.69805     0.05738    -4.94345    -2.30631
  Fock     -171.21191  -171.46610  -171.69914    -0.04233    -0.05075    -0.02826
  -------------------------------------------------------------------------------------
  Total      -0.00027    -0.00027    -0.00027    -0.00000    -0.00000    -0.00000
  in kB      -0.00900    -0.00900    -0.00900    -0.00000    -0.00000    -0.00000
  external pressure =       -0.01 kB  Pullay stress =        0.00 kB


 VOLUME and BASIS-vectors are now :
 -----------------------------------------------------------------------------
  energy-cutoff  :      400.00
  volume of cell :       48.65
      direct lattice vectors                 reciprocal lattice vectors
     3.650655137 -0.000000000  0.000000000     0.273923436  0.000000000 -0.000000000
    -0.000000000  3.650655137 -0.000000000     0.000000000  0.273923436  0.000000000
     0.000000000 -0.000000000  3.650655137    -0.000000000  0.000000000  0.273923436

  length of vectors
     3.650655137  3.650655137  3.650655137     0.273923436  0.273923436  0.273923436


 FORCES acting on ions:
    Electron-Ion                     Ewald-Force                    Non-Local-Force
 -----------------------------------------------------------------------------------------------
   0.494E-09 -.191E-07 0.153E-08   -.876E-15 -.124E-15 -.408E-14   -.114E-22 -.377E-23 -.243E-22
   0.373E-07 -.166E-07 0.482E-07   0.766E-15 -.141E-14 0.467E-14   -.832E-21 -.348E-20 0.363E-21
 -----------------------------------------------------------------------------------------------
   0.228E-06 -.738E-06 0.324E-06   -.109E-15 -.154E-14 0.594E-15   -.843E-21 -.348E-20 0.338E-21
 
 
 POSITION                                       TOTAL-FORCE (eV/Angst)
 -----------------------------------------------------------------------------------
     -0.00000      0.00000     -0.00000        -0.000000     -0.000000     -0.000000
      1.82533      1.82533      1.82533         0.000000      0.000000      0.000000
 -----------------------------------------------------------------------------------
    total drift:                                0.000000     -0.000001      0.000000


--------------------------------------------------------------------------------------------------------



  FREE ENERGIE OF THE ION-ELECTRON SYSTEM (eV)
  ---------------------------------------------------
  free  energy   TOTEN  =        -7.37471534 eV

  energy  without entropy=       -7.36398066  energy(sigma->0) =       -7.36934800
 d Force = 0.1399196E-47[ 0.797E-49, 0.272E-47]  d Energy = 0.9186696E-04-0.919E-04
 d Force =-0.5611592E-40[ 0.118E-40,-0.124E-39]  d Ewald  =-0.2115151E+01 0.212E+01
 


--------------------------------------------------------------------------------------------------------


    POTLOK:  cpu time      0.1801: real time      0.1806


--------------------------------------------------------------------------------------------------------




--------------------------------------------------------------------------------------------------------


  
 reached required accuracy - stopping structural energy minimisation
 writing wavefunctions
     LOOP+:  cpu time    174.9829: real time    175.8690
    4ORBIT:  cpu time      0.0002: real time      0.0002



 total charge

# of ion       s       p       d       tot
------------------------------------------
    1        2.124   5.836   0.918   8.878
    2        0.648   0.379   9.747  10.774
--------------------------------------------------
tot          2.772   6.216  10.665  19.653
 

 total amount of memory used by VASP MPI-rank0    46703. kBytes
=======================================================================

   base                                    :      30000. kBytes
   nonl-proj                               :       9343. kBytes
   fftplans                                :        109. kBytes
   grid                                    :        389. kBytes
   one-center                              :         31. kBytes
   HF                                      :        129. kBytes
   nonlr-proj                              :       1721. kBytes
   wavefun                                 :       1644. kBytes
   fock_wrk                                :       3337. kBytes
 
  
  
 General timing and accounting informations for this job:
 ========================================================
  
                  Total CPU time used (sec):      772.176
                            User time (sec):      768.612
                          System time (sec):        3.564
                         Elapsed time (sec):      776.846
  
                   Maximum memory used (kb):      393892.
                   Average memory used (kb):          N/A
  
                          Minor page faults:        35582
                          Major page faults:         2350
                 Voluntary context switches:         9265
