 running  112 mpi-ranks, on    1 nodes
 distrk:  each k-point on   28 cores,    4 groups
 distr:  one band on    1 cores,   28 groups
 vasp.6.5.1 10Mar25 (build May 05 2025 13:45:00) complex                        
  
 POSCAR found type information on POSCAR NdZn
 POSCAR found :  2 types and       2 ions
 scaLAPACK will be used
 -----------------------------------------------------------------------------
|                                                                             |
|           W    W    AA    RRRRR   N    N  II  N    N   GGGG   !!!           |
|           W    W   A  A   R    R  NN   N  II  NN   N  G    G  !!!           |
|           W    W  A    A  R    R  N N  N  II  N N  N  G       !!!           |
|           W WW W  AAAAAA  RRRRR   N  N N  II  N  N N  G  GGG   !            |
|           WW  WW  A    A  R   R   N   NN  II  N   NN  G    G                |
|           W    W  A    A  R    R  N    N  II  N    N   GGGG   !!!           |
|                                                                             |
|     For optimal performance we recommend to set                             |
|       NCORE = 2 up to number-of-cores-per-socket                            |
|     NCORE specifies how many cores store one orbital (NPAR=cpu/NCORE).      |
|     This setting can greatly improve the performance of VASP for DFT.       |
|     The default, NCORE=1 might be grossly inefficient on modern             |
|     multi-core architectures or massively parallel machines. Do your        |
|     own testing! More info at https://www.vasp.at/wiki/index.php/NCORE      |
|     Unfortunately you need to use the default for GW and RPA                |
|     calculations (for HF NCORE is supported but not extensively tested      |
|     yet).                                                                   |
|                                                                             |
 -----------------------------------------------------------------------------

 LDA part: xc-table for (Slater+PW92), standard interpolation
 POSCAR, INCAR and KPOINTS ok, starting setup
 FFT: planning ... GRIDC
 FFT: planning ... GRID_SOFT
 FFT: planning ... GRID
 WAVECAR not read
 entering main loop
       N       E                     dE             d eps       ncg     rms           ort
DAV:   1    -0.262149259936E+04   -0.26215E+04   -0.11804E+04   980   0.101E+03  
DAV:   2    -0.269387528141E+04   -0.72383E+02   -0.72139E+02   980   0.130E+02  
DAV:   3    -0.269640855531E+04   -0.25333E+01   -0.25243E+01   980   0.303E+01  
DAV:   4    -0.269645080423E+04   -0.42249E-01   -0.42239E-01   980   0.346E+00  
DAV:   5    -0.725477780487E+01    0.26892E+04   -0.16491E+01   980   0.255E+01  
SDA:   6    -0.719730571083E+01    0.57472E-01   -0.16449E+00   980   0.411E+00   0.000E+00
DMP:   7    -0.730341355128E+01   -0.10611E+00   -0.63107E-01   980   0.114E+00   0.114E+00
DMP:   8    -0.734574890111E+01   -0.42335E-01   -0.28399E-01   980   0.503E-01   0.542E-01
DMP:   9    -0.736317908700E+01   -0.17430E-01   -0.65697E-02   980   0.976E-02   0.175E-01
DMP:  10    -0.736718799374E+01   -0.40089E-02   -0.34218E-02   980   0.714E-02   0.370E-02
DMP:  11    -0.736969949469E+01   -0.25115E-02   -0.17550E-02   980   0.287E-02   0.398E-02
DMP:  12    -0.737099544061E+01   -0.12959E-02   -0.89255E-03   980   0.143E-02   0.209E-02
DMP:  13    -0.737169466841E+01   -0.69923E-03   -0.43861E-03   980   0.617E-03   0.126E-02
DMP:  14    -0.737204235659E+01   -0.34769E-03   -0.21480E-03   980   0.296E-03   0.631E-03
DMP:  15    -0.737222204209E+01   -0.17969E-03   -0.12081E-03   980   0.166E-03   0.356E-03
DMP:  16    -0.737232313394E+01   -0.10109E-03   -0.65140E-04   980   0.857E-04   0.202E-03
DMP:  17    -0.737237907758E+01   -0.55944E-04   -0.37270E-04   980   0.487E-04   0.116E-03
DMP:  18    -0.737241116496E+01   -0.32087E-04   -0.20446E-04   980   0.257E-04   0.666E-04
DMP:  19    -0.737242910423E+01   -0.17939E-04   -0.11526E-04   980   0.146E-04   0.373E-04
DMP:  20    -0.737243944810E+01   -0.10344E-04   -0.65677E-05   980   0.822E-05   0.215E-04
DMP:  21    -0.737244537342E+01   -0.59253E-05   -0.37969E-05   980   0.478E-05   0.123E-04
DMP:  22    -0.737244876490E+01   -0.33915E-05   -0.22402E-05   980   0.283E-05   0.726E-05
DMP:  23    -0.737245086583E+01   -0.21009E-05   -0.13369E-05   980   0.169E-05   0.432E-05
DMP:  24    -0.737245218356E+01   -0.13177E-05   -0.81679E-06   980   0.104E-05   0.261E-05
DMP:  25    -0.737245297197E+01   -0.78841E-06   -0.51360E-06   980   0.665E-06   0.162E-05
DMP:  26    -0.737245342582E+01   -0.45385E-06   -0.33444E-06   980   0.440E-06   0.104E-05
DMP:  27    -0.737245372172E+01   -0.29590E-06   -0.22646E-06   980   0.303E-06   0.689E-06
DMP:  28    -0.737245392905E+01   -0.20733E-06   -0.16107E-06   980   0.221E-06   0.477E-06
DMP:  29    -0.737245407648E+01   -0.14742E-06   -0.12025E-06   980   0.169E-06   0.344E-06
DMP:  30    -0.737245419094E+01   -0.11446E-06   -0.93040E-07   980   0.133E-06   0.262E-06
DMP:  31    -0.737245428361E+01   -0.92676E-07   -0.75561E-07   980   0.110E-06   0.208E-06
 final diagonalization occupied
   1 F= -.73724543E+01 E0= -.73668956E+01  d E =-.737245E+01
 curvature:   0.00 expect dE= 0.000E+00 dE for cont linesearch  0.000E+00
 trial: gam= 0.00000 g(F)=  0.801E-45 g(S)=  0.539E-02 ort = 0.000E+00 (trialstep = 0.100E+01)
 search vector abs. value=  0.539E-02
 bond charge predicted
 wavefunctions rotated
 writing wavefunctions
       N       E                     dE             d eps       ncg     rms           ort
SDA:   1    -0.731149946410E+01    0.60955E-01   -0.81705E-01   980   0.204E+00   0.000E+00
DMP:   2    -0.735529643145E+01   -0.43797E-01   -0.14544E-01   980   0.307E-01   0.148E-01
DMP:   3    -0.736339479297E+01   -0.80984E-02   -0.12909E-01   980   0.306E-01   0.431E-02
DMP:   4    -0.737194794352E+01   -0.85532E-02   -0.36722E-02   980   0.515E-02   0.106E-01
DMP:   5    -0.737383692945E+01   -0.18890E-02   -0.10607E-02   980   0.257E-02   0.226E-03
DMP:   6    -0.737439051260E+01   -0.55358E-03   -0.36756E-03   980   0.874E-03   0.119E-03
DMP:   7    -0.737453936091E+01   -0.14885E-03   -0.90648E-04   980   0.285E-03  -0.152E-03
DMP:   8    -0.737456806843E+01   -0.28708E-04   -0.45771E-04   980   0.143E-03  -0.747E-04
DMP:   9    -0.737459491621E+01   -0.26848E-04   -0.26965E-04   980   0.616E-04   0.153E-04
DMP:  10    -0.737461242917E+01   -0.17513E-04   -0.10654E-04   980   0.208E-04   0.153E-04
DMP:  11    -0.737461906048E+01   -0.66313E-05   -0.51773E-05   980   0.108E-04   0.555E-05
DMP:  12    -0.737462211717E+01   -0.30567E-05   -0.16471E-05   980   0.271E-05   0.369E-05
DMP:  13    -0.737462294181E+01   -0.82463E-06   -0.44628E-06   980   0.101E-05   0.289E-06
DMP:  14    -0.737462330144E+01   -0.35963E-06   -0.19567E-06   980   0.424E-06   0.172E-06
DMP:  15    -0.737462346537E+01   -0.16393E-06   -0.48398E-07   980   0.117E-06   0.100E-07
DMP:  16    -0.737462347779E+01   -0.12419E-07   -0.41159E-07   980   0.977E-07   0.135E-07
 final diagonalization occupied
   2 F= -.73746235E+01 E0= -.73693060E+01  d E =-.216919E-02
 trial-energy change:   -0.002169  1 .order   -0.002134   -0.005392    0.001123
 step:   0.8321(harm=  0.8276)  dis= 0.00000  next Energy=    -7.374718 (dE=-0.226E-02)
 bond charge predicted
 wavefunctions rotated
 writing wavefunctions
       N       E                     dE             d eps       ncg     rms           ort
SDA:   1    -0.737293232880E+01    0.16911E-02   -0.20478E-02   980   0.512E-02   0.000E+00
DMP:   2    -0.737417749563E+01   -0.12452E-02   -0.44755E-03   980   0.717E-03   0.105E-02
DMP:   3    -0.737442357851E+01   -0.24608E-03   -0.29058E-03   980   0.693E-03   0.864E-04
DMP:   4    -0.737462838318E+01   -0.20480E-03   -0.12169E-03   980   0.188E-03   0.303E-03
DMP:   5    -0.737469200000E+01   -0.63617E-04   -0.25222E-04   980   0.534E-04   0.252E-04
DMP:   6    -0.737470550739E+01   -0.13507E-04   -0.11241E-04   980   0.253E-04   0.728E-05
DMP:   7    -0.737471224368E+01   -0.67363E-05   -0.27957E-05   980   0.618E-05   0.212E-05
DMP:   8    -0.737471417458E+01   -0.19309E-05   -0.11228E-05   980   0.309E-05  -0.754E-06
DMP:   9    -0.737471477936E+01   -0.60478E-06   -0.59437E-06   980   0.154E-05  -0.133E-06
DMP:  10    -0.737471510454E+01   -0.32518E-06   -0.34490E-06   980   0.679E-06   0.479E-06
DMP:  11    -0.737471527121E+01   -0.16667E-06   -0.10981E-06   980   0.201E-06   0.192E-06
DMP:  12    -0.737471534475E+01   -0.73543E-07   -0.52817E-07   980   0.103E-06   0.754E-07
 final diagonalization occupied
   3 F= -.73747153E+01 E0= -.73693480E+01  d E =-.226106E-02
 curvature:  -0.41 expect dE=-0.224E-08 dE for cont linesearch -0.224E-08
 trial: gam=-0.00100 g(F)=  0.181E-48 g(S)=  0.541E-08 ort = 0.540E-05 (trialstep = 0.966E+00)
 search vector abs. value=  0.100E-09
 reached required accuracy - stopping structural energy minimisation
 writing wavefunctions
