<?xml version="1.0" encoding="ISO-8859-1"?>
<modeling>
 <generator>
  <i name="program" type="string">vasp </i>
  <i name="version" type="string">6.5.1  </i>
  <i name="subversion" type="string">10Mar25 (build May 05 2025 13:45:00) complex                          parallel </i>
  <i name="platform" type="string">LinuxIFC </i>
  <i name="date" type="string">2026 04 27 </i>
  <i name="time" type="string">11:23:48 </i>
 </generator>
 <incar>
  <i type="string" name="PREC">Normal</i>
  <i type="string" name="ALGO">Damped</i>
  <i type="int" name="NELM">   100</i>
  <i type="int" name="IBRION">     2</i>
  <i name="EDIFF">      0.00000010</i>
  <i name="EDIFFG">     -0.00500000</i>
  <i type="int" name="NSW">   300</i>
  <i type="int" name="ISIF">     3</i>
  <i name="ENCUT">    400.00000000</i>
  <i type="logical" name="LREAL"> F  </i>
  <i name="TIME">      0.40000000</i>
  <i type="int" name="ISMEAR">     0</i>
  <i name="SIGMA">      0.10000000</i>
  <i type="logical" name="LWAVE"> T  </i>
  <i type="logical" name="LCHARG"> F  </i>
  <i type="int" name="LORBIT">    10</i>
  <i type="logical" name="LASPH"> T  </i>
  <i name="HFSCREEN">      0.20000000</i>
  <i type="logical" name="LHFCALC"> T  </i>
  <i name="AEXX">      0.36000000</i>
  <i type="string" name="PRECFOCK">Fast</i>
 </incar>
 <primitive_cell>
  <structure name="primitive_cell" >
   <crystal>
    <varray name="basis" >
     <v>       3.67076564       0.00000000       0.00000000 </v>
     <v>       0.00000000       3.67076564       0.00000000 </v>
     <v>       0.00000000       0.00000000       3.67076564 </v>
    </varray>
    <i name="volume">     49.46180644 </i>
    <varray name="rec_basis" >
     <v>       0.27242273       0.00000000       0.00000000 </v>
     <v>       0.00000000       0.27242273       0.00000000 </v>
     <v>       0.00000000       0.00000000       0.27242273 </v>
    </varray>
   </crystal>
   <varray name="positions" >
    <v>       0.00000000       0.00000000       0.00000000 </v>
    <v>       0.50000000       0.50000000       0.50000000 </v>
   </varray>
  </structure>
  <varray name="primitive_index" >
   <v type="int" >        1 </v>
   <v type="int" >        2 </v>
  </varray>
 </primitive_cell>
 <kpoints>
  <generation param="Gamma">
   <v type="int" name="divisions">       9        9        9 </v>
   <v name="usershift">      0.00000000       0.00000000       0.00000000 </v>
   <v name="genvec1">      0.11111111       0.00000000       0.00000000 </v>
   <v name="genvec2">      0.00000000       0.11111111       0.00000000 </v>
   <v name="genvec3">      0.00000000       0.00000000       0.11111111 </v>
   <v name="shift">      0.00000000       0.00000000       0.00000000 </v>
  </generation>
  <varray name="kpointlist" >
   <v>       0.00000000       0.00000000       0.00000000 </v>
   <v>       0.11111111       0.00000000       0.00000000 </v>
   <v>       0.22222222       0.00000000       0.00000000 </v>
   <v>       0.33333333       0.00000000       0.00000000 </v>
   <v>       0.44444444       0.00000000       0.00000000 </v>
   <v>       0.11111111       0.11111111       0.00000000 </v>
   <v>       0.22222222       0.11111111       0.00000000 </v>
   <v>       0.33333333       0.11111111       0.00000000 </v>
   <v>       0.44444444       0.11111111       0.00000000 </v>
   <v>       0.22222222       0.22222222       0.00000000 </v>
   <v>       0.33333333       0.22222222       0.00000000 </v>
   <v>       0.44444444       0.22222222       0.00000000 </v>
   <v>       0.33333333       0.33333333       0.00000000 </v>
   <v>       0.44444444       0.33333333       0.00000000 </v>
   <v>       0.44444444       0.44444444       0.00000000 </v>
   <v>       0.11111111       0.11111111       0.11111111 </v>
   <v>       0.22222222       0.11111111       0.11111111 </v>
   <v>       0.33333333       0.11111111       0.11111111 </v>
   <v>       0.44444444       0.11111111       0.11111111 </v>
   <v>       0.22222222       0.22222222       0.11111111 </v>
   <v>       0.33333333       0.22222222       0.11111111 </v>
   <v>       0.44444444       0.22222222       0.11111111 </v>
   <v>       0.33333333       0.33333333       0.11111111 </v>
   <v>       0.44444444       0.33333333       0.11111111 </v>
   <v>       0.44444444       0.44444444       0.11111111 </v>
   <v>       0.22222222       0.22222222       0.22222222 </v>
   <v>       0.33333333       0.22222222       0.22222222 </v>
   <v>       0.44444444       0.22222222       0.22222222 </v>
   <v>       0.33333333       0.33333333       0.22222222 </v>
   <v>       0.44444444       0.33333333       0.22222222 </v>
   <v>       0.44444444       0.44444444       0.22222222 </v>
   <v>       0.33333333       0.33333333       0.33333333 </v>
   <v>       0.44444444       0.33333333       0.33333333 </v>
   <v>       0.44444444       0.44444444       0.33333333 </v>
   <v>       0.44444444       0.44444444       0.44444444 </v>
  </varray>
  <varray name="weights" >
   <v>       0.00137174 </v>
   <v>       0.00823045 </v>
   <v>       0.00823045 </v>
   <v>       0.00823045 </v>
   <v>       0.00823045 </v>
   <v>       0.01646091 </v>
   <v>       0.03292181 </v>
   <v>       0.03292181 </v>
   <v>       0.03292181 </v>
   <v>       0.01646091 </v>
   <v>       0.03292181 </v>
   <v>       0.03292181 </v>
   <v>       0.01646091 </v>
   <v>       0.03292181 </v>
   <v>       0.01646091 </v>
   <v>       0.01097394 </v>
   <v>       0.03292181 </v>
   <v>       0.03292181 </v>
   <v>       0.03292181 </v>
   <v>       0.03292181 </v>
   <v>       0.06584362 </v>
   <v>       0.06584362 </v>
   <v>       0.03292181 </v>
   <v>       0.06584362 </v>
   <v>       0.03292181 </v>
   <v>       0.01097394 </v>
   <v>       0.03292181 </v>
   <v>       0.03292181 </v>
   <v>       0.03292181 </v>
   <v>       0.06584362 </v>
   <v>       0.03292181 </v>
   <v>       0.01097394 </v>
   <v>       0.03292181 </v>
   <v>       0.03292181 </v>
   <v>       0.01097394 </v>
  </varray>
 </kpoints>
 <parameters>
  <separator name="general" >
   <i type="string" name="SYSTEM">unknown system</i>
   <i type="logical" name="LCOMPAT"> F  </i>
  </separator>
  <separator name="electronic" >
   <i type="string" name="PREC">normal</i>
   <i name="ENMAX">    400.00000000</i>
   <i name="ENAUG">    575.89200000</i>
   <i name="EDIFF">      0.00000010</i>
   <i type="int" name="IALGO">    53</i>
   <i type="int" name="IWAVPR">    11</i>
   <i type="int" name="NBANDS">    28</i>
   <i type="int" name="NBANDSLOW">    -1</i>
   <i type="int" name="NBANDSHIGH">    -1</i>
   <i name="NELECT">     23.00000000</i>
   <i type="int" name="TURBO">     0</i>
   <i type="int" name="IRESTART">     0</i>
   <i type="int" name="NREBOOT">     0</i>
   <i type="int" name="NMIN">     0</i>
   <i name="EREF">      0.00000000</i>
   <separator name="electronic smearing" >
    <i type="int" name="ISMEAR">     0</i>
    <i name="SIGMA">      0.10000000</i>
    <i name="KSPACING">      0.50000000</i>
    <i type="logical" name="KGAMMA"> T  </i>
    <i type="logical" name="KBLOWUP"> T  </i>
   </separator>
   <separator name="electronic projectors" >
    <i type="logical" name="LREAL"> F  </i>
    <v name="ROPT">      0.00000000      0.00000000</v>
    <i type="int" name="LMAXPAW">  -100</i>
    <i type="int" name="LMAXMIX">     2</i>
    <i type="logical" name="NLSPLINE"> F  </i>
   </separator>
   <separator name="electronic startup" >
    <i type="int" name="ISTART">     0</i>
    <i type="int" name="ICHARG">     2</i>
    <i type="int" name="INIWAV">     1</i>
   </separator>
   <separator name="electronic spin" >
    <i type="int" name="ISPIN">     1</i>
    <i type="logical" name="LNONCOLLINEAR"> F  </i>
    <v name="MAGMOM">      1.00000000      1.00000000</v>
    <i name="NUPDOWN">     -1.00000000</i>
    <i type="logical" name="LSORBIT"> F  </i>
    <v name="SAXIS">      0.00000000      0.00000000      1.00000000</v>
    <i type="logical" name="LSPIRAL"> F  </i>
    <v name="QSPIRAL">      0.00000000      0.00000000      0.00000000</v>
    <i type="logical" name="LZEROZ"> F  </i>
   </separator>
   <separator name="electronic exchange-correlation" >
    <i type="logical" name="LASPH"> T  </i>
   </separator>
   <separator name="electronic convergence" >
    <i type="int" name="NELM">   100</i>
    <i type="int" name="NELMDL">    -5</i>
    <i type="int" name="NELMIN">     2</i>
    <i name="ENINI">    400.00000000</i>
    <separator name="electronic convergence detail" >
     <i type="logical" name="LDIAG"> T  </i>
     <i type="logical" name="LSUBROT"> F  </i>
     <i type="logical" name="LROBUST"> F  </i>
     <i type="int" name="ISEARCH">     0</i>
     <i name="WEIMIN">      0.00100000</i>
     <i name="EBREAK">      0.00000000</i>
     <i name="DEPER">      0.30000000</i>
     <i type="int" name="NRMM">     4</i>
     <i name="TIME">      0.40000000</i>
    </separator>
   </separator>
   <separator name="electronic mixer" >
    <i name="AMIX">      0.40000000</i>
    <i name="BMIX">      1.00000000</i>
    <i name="AMIN">      0.10000000</i>
    <i name="AMIX_MAG">      1.60000000</i>
    <i name="BMIX_MAG">      1.00000000</i>
    <separator name="electronic mixer details" >
     <i type="int" name="IMIX">     4</i>
     <i type="logical" name="MIXFIRST"> F  </i>
     <i type="int" name="MAXMIX">   -45</i>
     <i name="WC">    100.00000000</i>
     <i type="int" name="INIMIX">     1</i>
     <i type="int" name="MIXPRE">     1</i>
     <i type="int" name="MREMOVE">     5</i>
    </separator>
   </separator>
   <separator name="electronic dipolcorrection" >
    <i type="logical" name="LDIPOL"> F  </i>
    <i type="logical" name="LMONO"> F  </i>
    <i type="int" name="IDIPOL">     0</i>
    <i name="EPSILON">      1.00000000</i>
    <v name="DIPOL">   -100.00000000   -100.00000000   -100.00000000</v>
    <i name="EFIELD">      0.00000000</i>
    <i type="logical" name="LVACPOTAV"> F  </i>
   </separator>
  </separator>
  <separator name="grids" >
   <i type="int" name="NGX">    18</i>
   <i type="int" name="NGY">    18</i>
   <i type="int" name="NGZ">    18</i>
   <i type="int" name="NGXF">    36</i>
   <i type="int" name="NGYF">    36</i>
   <i type="int" name="NGZF">    36</i>
   <i type="logical" name="ADDGRID"> F  </i>
  </separator>
  <separator name="ionic" >
   <i type="int" name="NSW">   300</i>
   <i type="int" name="IBRION">     2</i>
   <i type="int" name="MDALGO">     0</i>
   <i type="int" name="ISIF">     3</i>
   <i name="PSTRESS">      0.00000000</i>
   <i name="EDIFFG">     -0.00500000</i>
   <i type="int" name="NFREE">     1</i>
   <i name="POTIM">      0.50000000</i>
   <i name="SMASS">     -3.00000000</i>
   <i name="SCALEE">      1.00000000</i>
  </separator>
  <separator name="ionic md" >
   <i name="TEBEG">      0.00010000</i>
   <i name="TEEND">      0.00010000</i>
   <i type="int" name="NBLOCK">     1</i>
   <i type="int" name="KBLOCK">   300</i>
   <i type="int" name="NPACO">   256</i>
   <i name="APACO">     10.00000000</i>
  </separator>
  <separator name="symmetry" >
   <i type="int" name="ISYM">     3</i>
   <i name="SYMPREC">      0.00001000</i>
  </separator>
  <separator name="dos" >
   <i type="int" name="LORBIT">    10</i>
   <v name="RWIGS">     -1.00000000     -1.00000000</v>
   <i type="int" name="NEDOS">   301</i>
   <i name="EMIN">     10.00000000</i>
   <i name="EMAX">    -10.00000000</i>
   <i name="EFERMI">      0.00000000</i>
  </separator>
  <separator name="writing" >
   <i type="int" name="NWRITE">     2</i>
   <i type="logical" name="LWAVE"> T  </i>
   <i type="logical" name="LDOWNSAMPLE"> F  </i>
   <i type="logical" name="LCHARG"> F  </i>
   <i type="logical" name="LPARD"> F  </i>
   <i type="logical" name="LVTOT"> F  </i>
   <i type="logical" name="LVHAR"> F  </i>
   <i type="logical" name="LELF"> F  </i>
   <i type="logical" name="LOPTICS"> F  </i>
   <v name="STM">      0.00000000      0.00000000      0.00000000      0.00000000      0.00000000      0.00000000      0.00000000</v>
  </separator>
  <separator name="performance" >
   <i type="int" name="NPAR">    28</i>
   <i type="int" name="NSIM">     4</i>
   <i type="int" name="NBLK">    -1</i>
   <i type="logical" name="LPLANE"> T  </i>
   <i type="logical" name="LSCALAPACK"> T  </i>
   <i type="logical" name="LSCAAWARE"> F  </i>
   <i type="logical" name="LSCALU"> F  </i>
   <i type="logical" name="LASYNC"> F  </i>
   <i type="logical" name="LORBITALREAL"> F  </i>
  </separator>
  <separator name="miscellaneous" >
   <i type="int" name="IDIOT">     3</i>
   <i type="int" name="PHON_NSTRUCT">    -1</i>
   <i type="logical" name="LMUSIC"> F  </i>
   <v name="POMASS">    144.24000000     65.39000000</v>
   <v name="DARWINR">      0.00000000      0.00000000</v>
   <v name="DARWINV">      1.00000000      1.00000000</v>
   <i type="logical" name="LCORR"> T  </i>
  </separator>
  <i type="logical" name="GGA_COMPAT"> T  </i>
  <i type="logical" name="LBERRY"> F  </i>
  <i type="int" name="ICORELEVEL">     0</i>
  <i type="logical" name="LDAU"> F  </i>
  <i type="int" name="I_CONSTRAINED_M">     0</i>
  <separator name="electronic exchange-correlation" >
   <i type="string" name="GGA    ">PE</i>
   <i type="string" name="XC_C">1</i>
   <i type="int" name="VOSKOWN">     0</i>
   <i type="logical" name="LHFCALC"> T  </i>
   <i type="string" name="PRECFOCK">fast</i>
   <i type="logical" name="LSYMGRAD"> F  </i>
   <i type="logical" name="LHFONE"> F  </i>
   <i type="logical" name="LRHFCALC"> F  </i>
   <i type="logical" name="LTHOMAS"> F  </i>
   <i type="logical" name="LMODELHF"> F  </i>
   <i type="logical" name="LFOCKACE"> T  </i>
   <i name="ENCUT4O">     -1.00000000</i>
   <i type="int" name="EXXOEP">     0</i>
   <i type="int" name="FOURORBIT">     0</i>
   <i name="AEXX">      0.36000000</i>
   <i name="HFALPHA">     -1.00000000</i>
   <i name="MCALPHA">      0.00000000</i>
   <i name="ALDAX">      0.64000000</i>
   <i name="AGGAX">      0.64000000</i>
   <i name="AMGGAX">      0.64000000</i>
   <i name="ALDAC">      1.00000000</i>
   <i name="AGGAC">      1.00000000</i>
   <i name="AMGGAC">      1.00000000</i>
   <i type="int" name="NKREDX">     1</i>
   <i type="int" name="NKREDY">     1</i>
   <i type="int" name="NKREDZ">     1</i>
   <i type="logical" name="SHIFTRED"> F  </i>
   <i type="logical" name="ODDONLY"> F  </i>
   <i type="logical" name="EVENONLY"> F  </i>
   <i type="int" name="LMAXFOCK">     4</i>
   <i type="int" name="NMAXFOCKAE">     1</i>
   <i type="logical" name="LFOCKAEDFT"> F  </i>
   <i name="HFSCREEN">      0.20000000</i>
   <i name="HFSCREENC">      0.20000000</i>
   <i type="int" name="NBANDSGWLOW">     1</i>
  </separator>
  <separator name="vdW DFT" >
   <i type="logical" name="LUSE_VDW"> F  </i>
   <i type="int" name="IVDW_NL">    -1</i>
   <i type="logical" name="LSPIN_VDW"> F  </i>
   <i name="ZAB_VDW">     -0.84910000</i>
   <i name="GAMMA_VDW">      1.39626340</i>
   <i name="ALPHA_VDW">      0.00000000</i>
   <i name="PARAM1">      0.12340000</i>
   <i name="PARAM2">      1.00000000</i>
   <i name="BPARAM">      6.30000000</i>
   <i name="CPARAM">      0.00930000</i>
  </separator>
  <separator name="model GW" >
   <i type="int" name="MODEL_GW">     0</i>
   <i name="MODEL_EPS0">     14.83854193</i>
   <i name="MODEL_ALPHA">      1.00000000</i>
  </separator>
  <separator name="linear response parameters" >
   <i type="logical" name="LEPSILON"> F  </i>
   <i type="logical" name="LRPA"> F  </i>
   <i type="logical" name="LNABLA"> F  </i>
   <i type="logical" name="LVEL"> F  </i>
   <i name="CSHIFT">      0.10000000</i>
   <i name="OMEGAMAX">     -1.00000000</i>
   <i name="DEG_THRESHOLD">      0.00200000</i>
   <i name="RTIME">     -0.10000000</i>
   <i name="WPLASMAI">      0.00000000</i>
   <v name="DFIELD">      0.00000000      0.00000000      0.00000000</v>
   <v name="WPLASMA">      0.00000000      0.00000000      0.00000000      0.00000000      0.00000000      0.00000000      0.00000000      0.00000000      0.00000000</v>
  </separator>
  <separator name="orbital magnetization" >
   <i type="logical" name="NUCIND"> F  </i>
   <v name="MAGPOS">      0.00000000      0.00000000      0.00000000</v>
   <i type="logical" name="LNICSALL"> T  </i>
   <i type="logical" name="ORBITALMAG"> F  </i>
   <i type="logical" name="LMAGBLOCH"> F  </i>
   <i type="logical" name="LCHIMAG"> F  </i>
   <i type="logical" name="LGAUGE"> T  </i>
   <i type="int" name="MAGATOM">     0</i>
   <v name="MAGDIPOL">      0.00000000      0.00000000      0.00000000</v>
   <v name="AVECCONST">      0.00000000      0.00000000      0.00000000</v>
  </separator>
  <separator name="response functions" >
   <i type="logical" name="LALL_IN_ONE"> F  </i>
   <i type="int" name="IALL_IN_ONE">    -1</i>
   <i type="int" name="NBANDS_WAVE">    -1</i>
   <i type="logical" name="LFINITE_TEMPERATURE"> F  </i>
   <i type="logical" name="LADDER"> F  </i>
   <i type="logical" name="LRPAFORCE"> F  </i>
   <i type="logical" name="LFXC"> F  </i>
   <i type="logical" name="LHARTREE"> T  </i>
   <i type="int" name="IBSE">     2</i>
   <v type="int" name="KPOINT">    -1     0     0     0</v>
   <i type="logical" name="LTCTC"> F  </i>
   <i type="logical" name="LTCTE"> F  </i>
   <i type="logical" name="LTETE"> F  </i>
   <i type="logical" name="LTRIPLET"> F  </i>
   <i type="logical" name="LFXCEPS"> F  </i>
   <i type="logical" name="LFXHEG"> F  </i>
   <i type="int" name="NATURALO">     2</i>
   <i type="logical" name="LHOLEGF"> F  </i>
   <i type="logical" name="L2ORDER"> F  </i>
   <i type="logical" name="LDMP1"> F  </i>
   <i type="logical" name="LMP2LT"> F  </i>
   <i type="logical" name="LSMP2LT"> F  </i>
   <i type="logical" name="LGWLF"> F  </i>
   <i name="ENCUTGW">     -1.60000002</i>
   <i name="ENCUTGWSOFT">     -1.60000002</i>
   <i name="ENCUTLF">     -1.00000000</i>
   <i type="logical" name="ESF_SPLINES"> F  </i>
   <i name="ESF_CONV">      0.01000000</i>
   <i type="int" name="ESF_NINTER">    15</i>
   <i type="int" name="LMAXMP2">    -1</i>
   <i name="SCISSOR">      0.00000000</i>
   <i type="int" name="NOMEGA">     0</i>
   <i type="int" name="NOMEGAR">     0</i>
   <i type="int" name="NBANDSGW">    -1</i>
   <i type="int" name="NBANDSO">    -1</i>
   <i type="int" name="NBANDSV">    -1</i>
   <i type="int" name="NELMGW">     1</i>
   <i type="int" name="NELMHF">     1</i>
   <i type="int" name="DIM">     3</i>
   <i type="int" name="IESPILON">     4</i>
   <i type="int" name="ANTIRES">     0</i>
   <i name="OMEGAMAX">    -30.00000000</i>
   <i name="OMEGAMIN">    -30.00000000</i>
   <i name="OMEGATL">   -200.00000000</i>
   <i type="int" name="OMEGAGRID">     0</i>
   <i name="CSHIFT">     -0.10000000</i>
   <i type="logical" name="LSELFENERGY"> F  </i>
   <i type="logical" name="LSPECTRAL"> F  </i>
   <i type="logical" name="LSPECTRALGW"> F  </i>
   <i type="logical" name="LSINGLES"> F  </i>
   <i type="logical" name="LFERMIGW"> F  </i>
   <i type="logical" name="ODDONLYGW"> F  </i>
   <i type="logical" name="EVENONLYGW"> F  </i>
   <i type="int" name="NKREDLFX">     1</i>
   <i type="int" name="NKREDLFY">     1</i>
   <i type="int" name="NKREDLFZ">     1</i>
   <i type="int" name="MAXMEM">  2800</i>
   <i type="int" name="TELESCOPE">     0</i>
   <i type="int" name="NTAUPAR">    -1</i>
   <i type="int" name="NOMEGAPAR">    -1</i>
   <i name="DAMP_NEWTON">      0.80000001</i>
   <i name="LAMBDA">      1.00000000</i>
  </separator>
  <separator name="External order field" >
   <i name="OFIELD_KAPPA">      0.00000000</i>
   <v name="OFIELD_K">      0.00000000      0.00000000      0.00000000</v>
   <i name="OFIELD_Q6_NEAR">      0.00000000</i>
   <i name="OFIELD_Q6_FAR">      0.00000000</i>
   <i name="OFIELD_A">      0.00000000</i>
  </separator>
  <separator name="optional k-points parameters" >
   <i type="int" name="KPOINTS_OPT_MODE">     1</i>
   <i type="logical" name="LKPOINTS_OPT"> F  </i>
  </separator>
 </parameters>
 <atominfo>
  <atoms>       2 </atoms>
  <types>       2 </types>
  <array name="atoms" >
   <dimension dim="1">ion</dimension>
   <field type="string">element</field>
   <field type="int">atomtype</field>
   <set>
    <rc><c>Nd</c><c>   1</c></rc>
    <rc><c>Zn</c><c>   2</c></rc>
   </set>
  </array>
  <array name="atomtypes" >
   <dimension dim="1">type</dimension>
   <field type="int">atomspertype</field>
   <field type="string">element</field>
   <field>mass</field>
   <field>valence</field>
   <field type="string">pseudopotential</field>
   <set>
    <rc><c>   1</c><c>Nd</c><c>    144.24000000</c><c>     11.00000000</c><c>  PAW_PBE Nd_3 06Sep2000                </c></rc>
    <rc><c>   1</c><c>Zn</c><c>     65.39000000</c><c>     12.00000000</c><c>  PAW_PBE Zn 06Sep2000                  </c></rc>
   </set>
  </array>
 </atominfo>
 <structure name="initialpos" >
  <crystal>
   <varray name="basis" >
    <v>       3.67076564       0.00000000       0.00000000 </v>
    <v>       0.00000000       3.67076564       0.00000000 </v>
    <v>       0.00000000       0.00000000       3.67076564 </v>
   </varray>
   <i name="volume">     49.46180644 </i>
   <varray name="rec_basis" >
    <v>       0.27242273       0.00000000       0.00000000 </v>
    <v>       0.00000000       0.27242273       0.00000000 </v>
    <v>       0.00000000       0.00000000       0.27242273 </v>
   </varray>
  </crystal>
  <varray name="positions" >
   <v>       0.00000000       0.00000000       0.00000000 </v>
   <v>       0.50000000       0.50000000       0.50000000 </v>
  </varray>
 </structure>
 <calculation>
  <scstep>
   <time name="total">    0.20    0.29</time>
   <energy>
    <i name="alphaZ">    174.39331154 </i>
    <i name="ewald">  -1890.00924041 </i>
    <i name="hartreedc">   -731.89548910 </i>
    <i name="XCdc">     84.02833216 </i>
    <i name="pawpsdc">   2175.61858602 </i>
    <i name="pawaedc">  -4920.70135829 </i>
    <i name="eentropy">     -0.01012818 </i>
    <i name="bandstr">   -198.81471474 </i>
    <i name="atom">   2685.89810164 </i>
    <i name="e_fr_energy">  -2621.49259936 </i>
    <i name="e_wo_entrp">  -2621.48247119 </i>
    <i name="e_0_energy">  -2621.48753527 </i>
   </energy>
  </scstep>
  <scstep>
   <time name="total">    0.14    0.14</time>
   <energy>
    <i name="e_fr_energy">  -2693.87528141 </i>
    <i name="e_wo_entrp">  -2693.86531713 </i>
    <i name="e_0_energy">  -2693.87029927 </i>
   </energy>
  </scstep>
  <scstep>
   <time name="total">    0.13    0.13</time>
   <energy>
    <i name="e_fr_energy">  -2696.40855531 </i>
    <i name="e_wo_entrp">  -2696.40057680 </i>
    <i name="e_0_energy">  -2696.40456605 </i>
   </energy>
  </scstep>
  <scstep>
   <time name="total">    0.13    0.13</time>
   <energy>
    <i name="e_fr_energy">  -2696.45080423 </i>
    <i name="e_wo_entrp">  -2696.44288608 </i>
    <i name="e_0_energy">  -2696.44684515 </i>
   </energy>
  </scstep>
  <scstep>
   <time name="total">   11.51   11.57</time>
   <energy>
    <i name="e_fr_energy">     -7.25477780 </i>
    <i name="e_wo_entrp">     -7.24650817 </i>
    <i name="e_0_energy">     -7.25064299 </i>
   </energy>
  </scstep>
  <scstep>
   <time name="total">   11.42   11.53</time>
   <energy>
    <i name="e_fr_energy">     -7.19730571 </i>
    <i name="e_wo_entrp">     -7.18903608 </i>
    <i name="e_0_energy">     -7.19317089 </i>
   </energy>
  </scstep>
  <scstep>
   <time name="total">   11.36   11.41</time>
   <energy>
    <i name="e_fr_energy">     -7.30341355 </i>
    <i name="e_wo_entrp">     -7.29314933 </i>
    <i name="e_0_energy">     -7.29828144 </i>
   </energy>
  </scstep>
  <scstep>
   <time name="total">   11.35   11.40</time>
   <energy>
    <i name="e_fr_energy">     -7.34574890 </i>
    <i name="e_wo_entrp">     -7.33538270 </i>
    <i name="e_0_energy">     -7.34056580 </i>
   </energy>
  </scstep>
  <scstep>
   <time name="total">   11.36   11.41</time>
   <energy>
    <i name="e_fr_energy">     -7.36317909 </i>
    <i name="e_wo_entrp">     -7.35281308 </i>
    <i name="e_0_energy">     -7.35799608 </i>
   </energy>
  </scstep>
  <scstep>
   <time name="total">   11.35   11.44</time>
   <energy>
    <i name="e_fr_energy">     -7.36718799 </i>
    <i name="e_wo_entrp">     -7.35645101 </i>
    <i name="e_0_energy">     -7.36181950 </i>
   </energy>
  </scstep>
  <scstep>
   <time name="total">   11.36   11.42</time>
   <energy>
    <i name="e_fr_energy">     -7.36969949 </i>
    <i name="e_wo_entrp">     -7.35862568 </i>
    <i name="e_0_energy">     -7.36416259 </i>
   </energy>
  </scstep>
  <scstep>
   <time name="total">   11.37   11.43</time>
   <energy>
    <i name="e_fr_energy">     -7.37099544 </i>
    <i name="e_wo_entrp">     -7.35973730 </i>
    <i name="e_0_energy">     -7.36536637 </i>
   </energy>
  </scstep>
  <scstep>
   <time name="total">   11.35   11.41</time>
   <energy>
    <i name="e_fr_energy">     -7.37169467 </i>
    <i name="e_wo_entrp">     -7.36036110 </i>
    <i name="e_0_energy">     -7.36602789 </i>
   </energy>
  </scstep>
  <scstep>
   <time name="total">   11.35   11.40</time>
   <energy>
    <i name="e_fr_energy">     -7.37204236 </i>
    <i name="e_wo_entrp">     -7.36069426 </i>
    <i name="e_0_energy">     -7.36636831 </i>
   </energy>
  </scstep>
  <scstep>
   <time name="total">   11.37   11.42</time>
   <energy>
    <i name="e_fr_energy">     -7.37222204 </i>
    <i name="e_wo_entrp">     -7.36088984 </i>
    <i name="e_0_energy">     -7.36655594 </i>
   </energy>
  </scstep>
  <scstep>
   <time name="total">   11.35   11.39</time>
   <energy>
    <i name="e_fr_energy">     -7.37232313 </i>
    <i name="e_wo_entrp">     -7.36102006 </i>
    <i name="e_0_energy">     -7.36667160 </i>
   </energy>
  </scstep>
  <scstep>
   <time name="total">   11.35   11.42</time>
   <energy>
    <i name="e_fr_energy">     -7.37237908 </i>
    <i name="e_wo_entrp">     -7.36110889 </i>
    <i name="e_0_energy">     -7.36674398 </i>
   </energy>
  </scstep>
  <scstep>
   <time name="total">   11.34   11.41</time>
   <energy>
    <i name="e_fr_energy">     -7.37241116 </i>
    <i name="e_wo_entrp">     -7.36117233 </i>
    <i name="e_0_energy">     -7.36679175 </i>
   </energy>
  </scstep>
  <scstep>
   <time name="total">   11.36   11.41</time>
   <energy>
    <i name="e_fr_energy">     -7.37242910 </i>
    <i name="e_wo_entrp">     -7.36121746 </i>
    <i name="e_0_energy">     -7.36682328 </i>
   </energy>
  </scstep>
  <scstep>
   <time name="total">   11.58   11.64</time>
   <energy>
    <i name="e_fr_energy">     -7.37243945 </i>
    <i name="e_wo_entrp">     -7.36125005 </i>
    <i name="e_0_energy">     -7.36684475 </i>
   </energy>
  </scstep>
  <scstep>
   <time name="total">   11.39   11.46</time>
   <energy>
    <i name="e_fr_energy">     -7.37244537 </i>
    <i name="e_wo_entrp">     -7.36127358 </i>
    <i name="e_0_energy">     -7.36685948 </i>
   </energy>
  </scstep>
  <scstep>
   <time name="total">   11.36   11.41</time>
   <energy>
    <i name="e_fr_energy">     -7.37244876 </i>
    <i name="e_wo_entrp">     -7.36129065 </i>
    <i name="e_0_energy">     -7.36686971 </i>
   </energy>
  </scstep>
  <scstep>
   <time name="total">   11.37   11.42</time>
   <energy>
    <i name="e_fr_energy">     -7.37245087 </i>
    <i name="e_wo_entrp">     -7.36130323 </i>
    <i name="e_0_energy">     -7.36687705 </i>
   </energy>
  </scstep>
  <scstep>
   <time name="total">   11.35   11.40</time>
   <energy>
    <i name="e_fr_energy">     -7.37245218 </i>
    <i name="e_wo_entrp">     -7.36131253 </i>
    <i name="e_0_energy">     -7.36688236 </i>
   </energy>
  </scstep>
  <scstep>
   <time name="total">   11.37   11.42</time>
   <energy>
    <i name="e_fr_energy">     -7.37245297 </i>
    <i name="e_wo_entrp">     -7.36131937 </i>
    <i name="e_0_energy">     -7.36688617 </i>
   </energy>
  </scstep>
  <scstep>
   <time name="total">   11.35   11.41</time>
   <energy>
    <i name="e_fr_energy">     -7.37245343 </i>
    <i name="e_wo_entrp">     -7.36132441 </i>
    <i name="e_0_energy">     -7.36688892 </i>
   </energy>
  </scstep>
  <scstep>
   <time name="total">   11.36   11.42</time>
   <energy>
    <i name="e_fr_energy">     -7.37245372 </i>
    <i name="e_wo_entrp">     -7.36132817 </i>
    <i name="e_0_energy">     -7.36689095 </i>
   </energy>
  </scstep>
  <scstep>
   <time name="total">   11.38   11.51</time>
   <energy>
    <i name="e_fr_energy">     -7.37245393 </i>
    <i name="e_wo_entrp">     -7.36133100 </i>
    <i name="e_0_energy">     -7.36689246 </i>
   </energy>
  </scstep>
  <scstep>
   <time name="total">   11.36   11.42</time>
   <energy>
    <i name="e_fr_energy">     -7.37245408 </i>
    <i name="e_wo_entrp">     -7.36133313 </i>
    <i name="e_0_energy">     -7.36689360 </i>
   </energy>
  </scstep>
  <scstep>
   <time name="total">   11.66   11.84</time>
   <energy>
    <i name="e_fr_energy">     -7.37245419 </i>
    <i name="e_wo_entrp">     -7.36133474 </i>
    <i name="e_0_energy">     -7.36689447 </i>
   </energy>
  </scstep>
  <scstep>
   <time name="total">   22.65   22.77</time>
   <energy>
    <i name="alphaZ">    174.39331154 </i>
    <i name="ewald">  -1890.00924041 </i>
    <i name="hartreedc">   -717.04465599 </i>
    <i name="XCdc">     54.39695416 </i>
    <i name="pawpsdc">   2497.60546646 </i>
    <i name="pawaedc">  -2634.52526075 </i>
    <i name="eentropy">     -0.01111831 </i>
    <i name="bandstr">   -260.65320814 </i>
    <i name="atom">   2685.89810164 </i>
    <i name="e_fr_energy">     -7.37245428 </i>
    <i name="e_wo_entrp">     -7.36133597 </i>
    <i name="e_0_energy">     -7.36689513 </i>
   </energy>
  </scstep>
  <structure>
   <crystal>
    <varray name="basis" >
     <v>       3.67076564       0.00000000       0.00000000 </v>
     <v>       0.00000000       3.67076564       0.00000000 </v>
     <v>       0.00000000       0.00000000       3.67076564 </v>
    </varray>
    <i name="volume">     49.46180644 </i>
    <varray name="rec_basis" >
     <v>       0.27242273       0.00000000       0.00000000 </v>
     <v>       0.00000000       0.27242273       0.00000000 </v>
     <v>       0.00000000       0.00000000       0.27242273 </v>
    </varray>
   </crystal>
   <varray name="positions" >
    <v>       0.00000000       0.00000000       0.00000000 </v>
    <v>       0.50000000       0.50000000       0.50000000 </v>
   </varray>
  </structure>
  <varray name="forces" >
   <v>      -0.00000000       0.00000000      -0.00000000 </v>
   <v>       0.00000000      -0.00000000       0.00000000 </v>
  </varray>
  <varray name="stress" >
   <v>      -8.84186309      -0.00000000       0.00000000 </v>
   <v>      -0.00000000      -8.84186309      -0.00000000 </v>
   <v>       0.00000000      -0.00000000      -8.84186309 </v>
  </varray>
  <energy>
   <i name="e_fr_energy">     -7.37245428 </i>
   <i name="e_wo_entrp">     -7.36133683 </i>
   <i name="e_0_energy">     -7.36689556 </i>
  </energy>
  <time name="totalsc">  358.33  360.47</time>
 </calculation>
 <calculation>
  <scstep>
   <time name="total">   11.37   11.43</time>
   <energy>
    <i name="alphaZ">    177.88390815 </i>
    <i name="ewald">  -1902.53595688 </i>
    <i name="hartreedc">   -710.54098619 </i>
    <i name="XCdc">     54.46608297 </i>
    <i name="pawpsdc">   2499.66591505 </i>
    <i name="pawaedc">  -2637.25833596 </i>
    <i name="eentropy">     -0.01042350 </i>
    <i name="bandstr">   -257.53316905 </i>
    <i name="atom">   2685.89810164 </i>
    <i name="e_fr_energy">     -7.31149946 </i>
    <i name="e_wo_entrp">     -7.30107597 </i>
    <i name="e_0_energy">     -7.30628771 </i>
   </energy>
  </scstep>
  <scstep>
   <time name="total">   11.38   11.44</time>
   <energy>
    <i name="e_fr_energy">     -7.35529643 </i>
    <i name="e_wo_entrp">     -7.34484483 </i>
    <i name="e_0_energy">     -7.35007063 </i>
   </energy>
  </scstep>
  <scstep>
   <time name="total">   11.33   11.39</time>
   <energy>
    <i name="e_fr_energy">     -7.36339479 </i>
    <i name="e_wo_entrp">     -7.35288869 </i>
    <i name="e_0_energy">     -7.35814174 </i>
   </energy>
  </scstep>
  <scstep>
   <time name="total">   11.34   11.40</time>
   <energy>
    <i name="e_fr_energy">     -7.37194794 </i>
    <i name="e_wo_entrp">     -7.36138886 </i>
    <i name="e_0_energy">     -7.36666840 </i>
   </energy>
  </scstep>
  <scstep>
   <time name="total">   11.57   11.63</time>
   <energy>
    <i name="e_fr_energy">     -7.37383693 </i>
    <i name="e_wo_entrp">     -7.36324603 </i>
    <i name="e_0_energy">     -7.36854148 </i>
   </energy>
  </scstep>
  <scstep>
   <time name="total">   11.38   11.44</time>
   <energy>
    <i name="e_fr_energy">     -7.37439051 </i>
    <i name="e_wo_entrp">     -7.36378513 </i>
    <i name="e_0_energy">     -7.36908782 </i>
   </energy>
  </scstep>
  <scstep>
   <time name="total">   11.39   11.44</time>
   <energy>
    <i name="e_fr_energy">     -7.37453936 </i>
    <i name="e_wo_entrp">     -7.36392688 </i>
    <i name="e_0_energy">     -7.36923312 </i>
   </energy>
  </scstep>
  <scstep>
   <time name="total">   11.44   11.50</time>
   <energy>
    <i name="e_fr_energy">     -7.37456807 </i>
    <i name="e_wo_entrp">     -7.36395068 </i>
    <i name="e_0_energy">     -7.36925938 </i>
   </energy>
  </scstep>
  <scstep>
   <time name="total">   11.38   11.44</time>
   <energy>
    <i name="e_fr_energy">     -7.37459492 </i>
    <i name="e_wo_entrp">     -7.36397358 </i>
    <i name="e_0_energy">     -7.36928425 </i>
   </energy>
  </scstep>
  <scstep>
   <time name="total">   11.40   11.45</time>
   <energy>
    <i name="e_fr_energy">     -7.37461243 </i>
    <i name="e_wo_entrp">     -7.36398787 </i>
    <i name="e_0_energy">     -7.36930015 </i>
   </energy>
  </scstep>
  <scstep>
   <time name="total">   11.39   11.45</time>
   <energy>
    <i name="e_fr_energy">     -7.37461906 </i>
    <i name="e_wo_entrp">     -7.36399186 </i>
    <i name="e_0_energy">     -7.36930546 </i>
   </energy>
  </scstep>
  <scstep>
   <time name="total">   11.41   11.47</time>
   <energy>
    <i name="e_fr_energy">     -7.37462212 </i>
    <i name="e_wo_entrp">     -7.36399272 </i>
    <i name="e_0_energy">     -7.36930742 </i>
   </energy>
  </scstep>
  <scstep>
   <time name="total">   11.38   11.44</time>
   <energy>
    <i name="e_fr_energy">     -7.37462294 </i>
    <i name="e_wo_entrp">     -7.36399179 </i>
    <i name="e_0_energy">     -7.36930736 </i>
   </energy>
  </scstep>
  <scstep>
   <time name="total">   11.39   11.44</time>
   <energy>
    <i name="e_fr_energy">     -7.37462330 </i>
    <i name="e_wo_entrp">     -7.36399078 </i>
    <i name="e_0_energy">     -7.36930704 </i>
   </energy>
  </scstep>
  <scstep>
   <time name="total">   11.40   11.45</time>
   <energy>
    <i name="e_fr_energy">     -7.37462347 </i>
    <i name="e_wo_entrp">     -7.36398992 </i>
    <i name="e_0_energy">     -7.36930669 </i>
   </energy>
  </scstep>
  <scstep>
   <time name="total">   22.57   22.67</time>
   <energy>
    <i name="alphaZ">    177.88390815 </i>
    <i name="ewald">  -1902.53595688 </i>
    <i name="hartreedc">   -710.55438684 </i>
    <i name="XCdc">     54.46124247 </i>
    <i name="pawpsdc">   2516.82259312 </i>
    <i name="pawaedc">  -2653.75338849 </i>
    <i name="eentropy">     -0.01063431 </i>
    <i name="bandstr">   -258.24342566 </i>
    <i name="atom">   2685.89810164 </i>
    <i name="e_fr_energy">     -7.37462348 </i>
    <i name="e_wo_entrp">     -7.36398917 </i>
    <i name="e_0_energy">     -7.36930632 </i>
   </energy>
  </scstep>
  <structure>
   <crystal>
    <varray name="basis" >
     <v>       3.64659651      -0.00000000       0.00000000 </v>
     <v>      -0.00000000       3.64659651      -0.00000000 </v>
     <v>       0.00000000      -0.00000000       3.64659651 </v>
    </varray>
    <i name="volume">     48.49122278 </i>
    <varray name="rec_basis" >
     <v>       0.27422831       0.00000000      -0.00000000 </v>
     <v>       0.00000000       0.27422831       0.00000000 </v>
     <v>      -0.00000000       0.00000000       0.27422831 </v>
    </varray>
   </crystal>
   <varray name="positions" >
    <v>       1.00000000       0.00000000       1.00000000 </v>
    <v>       0.50000000       0.50000000       0.50000000 </v>
   </varray>
  </structure>
  <varray name="forces" >
   <v>       0.00000000      -0.00000000      -0.00000000 </v>
   <v>      -0.00000000       0.00000000       0.00000000 </v>
  </varray>
  <varray name="stress" >
   <v>       1.87923077       0.00000000      -0.00000000 </v>
   <v>       0.00000000       1.87923077       0.00000000 </v>
   <v>       0.00000000       0.00000000       1.87923077 </v>
  </varray>
  <energy>
   <i name="e_fr_energy">     -7.37462348 </i>
   <i name="e_wo_entrp">     -7.36398860 </i>
   <i name="e_0_energy">     -7.36930604 </i>
  </energy>
  <time name="totalsc">  232.14  233.28</time>
 </calculation>
 <calculation>
  <scstep>
   <time name="total">   11.47   11.54</time>
   <energy>
    <i name="alphaZ">    177.29127838 </i>
    <i name="ewald">  -1900.42080606 </i>
    <i name="hartreedc">   -711.56888442 </i>
    <i name="XCdc">     54.44732735 </i>
    <i name="pawpsdc">   2516.36809202 </i>
    <i name="pawaedc">  -2653.16772106 </i>
    <i name="eentropy">     -0.01073879 </i>
    <i name="bandstr">   -258.85010278 </i>
    <i name="atom">   2685.89810164 </i>
    <i name="e_fr_energy">     -7.37293233 </i>
    <i name="e_wo_entrp">     -7.36219354 </i>
    <i name="e_0_energy">     -7.36756293 </i>
   </energy>
  </scstep>
  <scstep>
   <time name="total">   11.41   11.47</time>
   <energy>
    <i name="e_fr_energy">     -7.37417750 </i>
    <i name="e_wo_entrp">     -7.36343728 </i>
    <i name="e_0_energy">     -7.36880739 </i>
   </energy>
  </scstep>
  <scstep>
   <time name="total">   11.37   11.43</time>
   <energy>
    <i name="e_fr_energy">     -7.37442358 </i>
    <i name="e_wo_entrp">     -7.36368266 </i>
    <i name="e_0_energy">     -7.36905312 </i>
   </energy>
  </scstep>
  <scstep>
   <time name="total">   11.39   11.44</time>
   <energy>
    <i name="e_fr_energy">     -7.37462838 </i>
    <i name="e_wo_entrp">     -7.36388783 </i>
    <i name="e_0_energy">     -7.36925810 </i>
   </energy>
  </scstep>
  <scstep>
   <time name="total">   11.37   11.44</time>
   <energy>
    <i name="e_fr_energy">     -7.37469200 </i>
    <i name="e_wo_entrp">     -7.36395233 </i>
    <i name="e_0_energy">     -7.36932217 </i>
   </energy>
  </scstep>
  <scstep>
   <time name="total">   11.58   11.64</time>
   <energy>
    <i name="e_fr_energy">     -7.37470551 </i>
    <i name="e_wo_entrp">     -7.36396676 </i>
    <i name="e_0_energy">     -7.36933613 </i>
   </energy>
  </scstep>
  <scstep>
   <time name="total">   11.40   11.50</time>
   <energy>
    <i name="e_fr_energy">     -7.37471224 </i>
    <i name="e_wo_entrp">     -7.36397432 </i>
    <i name="e_0_energy">     -7.36934328 </i>
   </energy>
  </scstep>
  <scstep>
   <time name="total">   11.37   11.43</time>
   <energy>
    <i name="e_fr_energy">     -7.37471417 </i>
    <i name="e_wo_entrp">     -7.36397701 </i>
    <i name="e_0_energy">     -7.36934559 </i>
   </energy>
  </scstep>
  <scstep>
   <time name="total">   11.38   11.43</time>
   <energy>
    <i name="e_fr_energy">     -7.37471478 </i>
    <i name="e_wo_entrp">     -7.36397829 </i>
    <i name="e_0_energy">     -7.36934654 </i>
   </energy>
  </scstep>
  <scstep>
   <time name="total">   11.41   11.46</time>
   <energy>
    <i name="e_fr_energy">     -7.37471510 </i>
    <i name="e_wo_entrp">     -7.36397921 </i>
    <i name="e_0_energy">     -7.36934716 </i>
   </energy>
  </scstep>
  <scstep>
   <time name="total">   11.38   11.44</time>
   <energy>
    <i name="e_fr_energy">     -7.37471527 </i>
    <i name="e_wo_entrp">     -7.36397987 </i>
    <i name="e_0_energy">     -7.36934757 </i>
   </energy>
  </scstep>
  <scstep>
   <time name="total">   22.57   22.68</time>
   <energy>
    <i name="alphaZ">    177.29127838 </i>
    <i name="ewald">  -1900.42080606 </i>
    <i name="hartreedc">   -711.64824965 </i>
    <i name="XCdc">     54.45041820 </i>
    <i name="pawpsdc">   2513.52553050 </i>
    <i name="pawaedc">  -2650.45688503 </i>
    <i name="eentropy">     -0.01073500 </i>
    <i name="bandstr">   -258.64699251 </i>
    <i name="atom">   2685.89810164 </i>
    <i name="e_fr_energy">     -7.37471534 </i>
    <i name="e_wo_entrp">     -7.36398034 </i>
    <i name="e_0_energy">     -7.36934784 </i>
   </energy>
  </scstep>
  <structure>
   <crystal>
    <varray name="basis" >
     <v>       3.65065514      -0.00000000       0.00000000 </v>
     <v>      -0.00000000       3.65065514      -0.00000000 </v>
     <v>       0.00000000      -0.00000000       3.65065514 </v>
    </varray>
    <i name="volume">     48.65331391 </i>
    <varray name="rec_basis" >
     <v>       0.27392344       0.00000000      -0.00000000 </v>
     <v>       0.00000000       0.27392344       0.00000000 </v>
     <v>      -0.00000000       0.00000000       0.27392344 </v>
    </varray>
   </crystal>
   <varray name="positions" >
    <v>       0.00000000       0.00000000       0.00000000 </v>
    <v>       0.50000000       0.50000000       0.50000000 </v>
   </varray>
  </structure>
  <varray name="forces" >
   <v>      -0.00000000      -0.00000000      -0.00000000 </v>
   <v>       0.00000000       0.00000000       0.00000000 </v>
  </varray>
  <varray name="stress" >
   <v>      -0.00900459      -0.00000000      -0.00000000 </v>
   <v>      -0.00000000      -0.00900459      -0.00000000 </v>
   <v>       0.00000000      -0.00000000      -0.00900459 </v>
  </varray>
  <energy>
   <i name="e_fr_energy">     -7.37471534 </i>
   <i name="e_wo_entrp">     -7.36398066 </i>
   <i name="e_0_energy">     -7.36934800 </i>
  </energy>
  <time name="totalsc">  174.98  175.87</time>
  <eigenvalues>
   <array>
    <dimension dim="1">band</dimension>
    <dimension dim="2">kpoint</dimension>
    <dimension dim="3">spin</dimension>
    <field>eigene</field>
    <field>occ</field>
    <set>
     <set comment="spin 1">
      <set comment="kpoint 1">
       <r>  -39.4574    1.0000 </r>
       <r>  -18.4981    1.0000 </r>
       <r>  -18.4981    1.0000 </r>
       <r>  -18.4981    1.0000 </r>
       <r>   -7.0684    1.0000 </r>
       <r>   -7.0684    1.0000 </r>
       <r>   -6.8595    1.0000 </r>
       <r>   -6.8595    1.0000 </r>
       <r>   -6.8595    1.0000 </r>
       <r>   -4.7086    1.0000 </r>
       <r>    2.5940    1.0000 </r>
       <r>    2.5940    1.0000 </r>
       <r>    8.4155    0.0000 </r>
       <r>    8.4155    0.0000 </r>
       <r>    8.4155    0.0000 </r>
       <r>    8.8397    0.0000 </r>
       <r>    8.8397    0.0000 </r>
       <r>    8.8397    0.0000 </r>
       <r>   13.6363    0.0000 </r>
       <r>   16.2739    0.0000 </r>
       <r>   16.2739    0.0000 </r>
       <r>   17.8233    0.0000 </r>
       <r>   17.8233    0.0000 </r>
       <r>   17.8233    0.0000 </r>
       <r>   24.7870    0.0000 </r>
       <r>   24.7930    0.0000 </r>
       <r>   24.8164    0.0000 </r>
       <r>   25.6463    0.0000 </r>
      </set>
      <set comment="kpoint 2">
       <r>  -39.4512    1.0000 </r>
       <r>  -18.5927    1.0000 </r>
       <r>  -18.4913    1.0000 </r>
       <r>  -18.4913    1.0000 </r>
       <r>   -7.0632    1.0000 </r>
       <r>   -7.0472    1.0000 </r>
       <r>   -6.8606    1.0000 </r>
       <r>   -6.8606    1.0000 </r>
       <r>   -6.8575    1.0000 </r>
       <r>   -4.4716    1.0000 </r>
       <r>    2.6480    1.0000 </r>
       <r>    2.6919    1.0000 </r>
       <r>    7.2506    0.0000 </r>
       <r>    7.2506    0.0000 </r>
       <r>    8.2205    0.0000 </r>
       <r>    8.4379    0.0000 </r>
       <r>   10.0883    0.0000 </r>
       <r>   10.0883    0.0000 </r>
       <r>   14.2776    0.0000 </r>
       <r>   14.8226    0.0000 </r>
       <r>   16.8048    0.0000 </r>
       <r>   18.1572    0.0000 </r>
       <r>   18.1572    0.0000 </r>
       <r>   19.5146    0.0000 </r>
       <r>   22.9324    0.0000 </r>
       <r>   22.9324    0.0000 </r>
       <r>   23.7473    0.0000 </r>
       <r>   24.1085    0.0000 </r>
      </set>
      <set comment="kpoint 3">
       <r>  -39.4355    1.0000 </r>
       <r>  -18.8228    1.0000 </r>
       <r>  -18.4740    1.0000 </r>
       <r>  -18.4740    1.0000 </r>
       <r>   -7.0500    1.0000 </r>
       <r>   -6.9941    1.0000 </r>
       <r>   -6.8632    1.0000 </r>
       <r>   -6.8632    1.0000 </r>
       <r>   -6.8522    1.0000 </r>
       <r>   -3.8067    1.0000 </r>
       <r>    2.4247    1.0000 </r>
       <r>    2.9559    0.9868 </r>
       <r>    6.1069    0.0000 </r>
       <r>    6.1069    0.0000 </r>
       <r>    7.6810    0.0000 </r>
       <r>    8.4962    0.0000 </r>
       <r>   11.5202    0.0000 </r>
       <r>   11.5202    0.0000 </r>
       <r>   13.1247    0.0000 </r>
       <r>   14.8986    0.0000 </r>
       <r>   18.6345    0.0000 </r>
       <r>   18.6345    0.0000 </r>
       <r>   18.6957    0.0000 </r>
       <r>   21.2737    0.0000 </r>
       <r>   21.5964    0.0000 </r>
       <r>   21.5964    0.0000 </r>
       <r>   21.8791    0.0000 </r>
       <r>   22.6394    0.0000 </r>
      </set>
      <set comment="kpoint 4">
       <r>  -39.4175    1.0000 </r>
       <r>  -19.0700    1.0000 </r>
       <r>  -18.4541    1.0000 </r>
       <r>  -18.4541    1.0000 </r>
       <r>   -7.0352    1.0000 </r>
       <r>   -6.9349    1.0000 </r>
       <r>   -6.8655    1.0000 </r>
       <r>   -6.8655    1.0000 </r>
       <r>   -6.8460    1.0000 </r>
       <r>   -2.8089    1.0000 </r>
       <r>    1.4039    1.0000 </r>
       <r>    3.2899    0.0062 </r>
       <r>    5.2782    0.0000 </r>
       <r>    5.2782    0.0000 </r>
       <r>    8.4228    0.0000 </r>
       <r>    8.5651    0.0000 </r>
       <r>   11.8254    0.0000 </r>
       <r>   12.9515    0.0000 </r>
       <r>   12.9515    0.0000 </r>
       <r>   14.9159    0.0000 </r>
       <r>   17.6566    0.0000 </r>
       <r>   17.6566    0.0000 </r>
       <r>   18.5527    0.0000 </r>
       <r>   21.4807    0.0000 </r>
       <r>   21.6062    0.0000 </r>
       <r>   22.6307    0.0000 </r>
       <r>   22.6475    0.0000 </r>
       <r>   23.8949    0.0000 </r>
      </set>
      <set comment="kpoint 5">
       <r>  -39.4058    1.0000 </r>
       <r>  -19.2241    1.0000 </r>
       <r>  -18.4410    1.0000 </r>
       <r>  -18.4410    1.0000 </r>
       <r>   -7.0257    1.0000 </r>
       <r>   -6.8970    1.0000 </r>
       <r>   -6.8669    1.0000 </r>
       <r>   -6.8669    1.0000 </r>
       <r>   -6.8420    1.0000 </r>
       <r>   -1.5867    1.0000 </r>
       <r>   -0.0068    1.0000 </r>
       <r>    3.5331    0.0000 </r>
       <r>    4.8443    0.0000 </r>
       <r>    4.8443    0.0000 </r>
       <r>    8.6116    0.0000 </r>
       <r>    9.8713    0.0000 </r>
       <r>   11.1031    0.0000 </r>
       <r>   14.0420    0.0000 </r>
       <r>   14.4283    0.0000 </r>
       <r>   14.4283    0.0000 </r>
       <r>   16.0558    0.0000 </r>
       <r>   16.0558    0.0000 </r>
       <r>   17.0727    0.0000 </r>
       <r>   21.0701    0.0000 </r>
       <r>   22.9145    0.0000 </r>
       <r>   24.9646    0.0000 </r>
       <r>   24.9701    0.0000 </r>
       <r>   25.1719    0.0000 </r>
      </set>
      <set comment="kpoint 6">
       <r>  -39.4450    1.0000 </r>
       <r>  -18.5956    1.0000 </r>
       <r>  -18.5731    1.0000 </r>
       <r>  -18.4844    1.0000 </r>
       <r>   -7.0510    1.0000 </r>
       <r>   -7.0344    1.0000 </r>
       <r>   -6.8676    1.0000 </r>
       <r>   -6.8645    1.0000 </r>
       <r>   -6.8515    1.0000 </r>
       <r>   -4.2416    1.0000 </r>
       <r>    2.7472    1.0000 </r>
       <r>    2.7655    1.0000 </r>
       <r>    6.2966    0.0000 </r>
       <r>    6.9450    0.0000 </r>
       <r>    8.0960    0.0000 </r>
       <r>    8.8154    0.0000 </r>
       <r>    9.7905    0.0000 </r>
       <r>   10.8507    0.0000 </r>
       <r>   14.5745    0.0000 </r>
       <r>   15.3606    0.0000 </r>
       <r>   15.9832    0.0000 </r>
       <r>   18.5007    0.0000 </r>
       <r>   19.1178    0.0000 </r>
       <r>   20.1183    0.0000 </r>
       <r>   21.3165    0.0000 </r>
       <r>   21.6596    0.0000 </r>
       <r>   24.1505    0.0000 </r>
       <r>   26.1305    0.0000 </r>
      </set>
      <set comment="kpoint 7">
       <r>  -39.4294    1.0000 </r>
       <r>  -18.8122    1.0000 </r>
       <r>  -18.5621    1.0000 </r>
       <r>  -18.4668    1.0000 </r>
       <r>   -7.0371    1.0000 </r>
       <r>   -6.9857    1.0000 </r>
       <r>   -6.8739    1.0000 </r>
       <r>   -6.8727    1.0000 </r>
       <r>   -6.8478    1.0000 </r>
       <r>   -3.6015    1.0000 </r>
       <r>    2.5346    1.0000 </r>
       <r>    3.0336    0.8693 </r>
       <r>    5.4072    0.0000 </r>
       <r>    6.1250    0.0000 </r>
       <r>    8.0227    0.0000 </r>
       <r>    8.3090    0.0000 </r>
       <r>   10.7110    0.0000 </r>
       <r>   12.0829    0.0000 </r>
       <r>   13.4770    0.0000 </r>
       <r>   15.8087    0.0000 </r>
       <r>   17.4833    0.0000 </r>
       <r>   18.8001    0.0000 </r>
       <r>   19.0994    0.0000 </r>
       <r>   20.2415    0.0000 </r>
       <r>   20.5988    0.0000 </r>
       <r>   22.0076    0.0000 </r>
       <r>   22.7768    0.0000 </r>
       <r>   24.4824    0.0000 </r>
      </set>
      <set comment="kpoint 8">
       <r>  -39.4116    1.0000 </r>
       <r>  -19.0553    1.0000 </r>
       <r>  -18.5387    1.0000 </r>
       <r>  -18.4467    1.0000 </r>
       <r>   -7.0244    1.0000 </r>
       <r>   -6.9286    1.0000 </r>
       <r>   -6.8800    1.0000 </r>
       <r>   -6.8761    1.0000 </r>
       <r>   -6.8487    1.0000 </r>
       <r>   -2.6549    1.0000 </r>
       <r>    1.4918    1.0000 </r>
       <r>    3.3938    0.0000 </r>
       <r>    4.9805    0.0000 </r>
       <r>    5.3832    0.0000 </r>
       <r>    8.1291    0.0000 </r>
       <r>    8.6544    0.0000 </r>
       <r>   11.7817    0.0000 </r>
       <r>   12.3460    0.0000 </r>
       <r>   13.2971    0.0000 </r>
       <r>   16.0725    0.0000 </r>
       <r>   16.5186    0.0000 </r>
       <r>   17.4417    0.0000 </r>
       <r>   19.6592    0.0000 </r>
       <r>   20.5901    0.0000 </r>
       <r>   21.2957    0.0000 </r>
       <r>   22.3736    0.0000 </r>
       <r>   23.8941    0.0000 </r>
       <r>   23.9940    0.0000 </r>
      </set>
      <set comment="kpoint 9">
       <r>  -39.3999    1.0000 </r>
       <r>  -19.2070    1.0000 </r>
       <r>  -18.5232    1.0000 </r>
       <r>  -18.4334    1.0000 </r>
       <r>   -7.0163    1.0000 </r>
       <r>   -6.8919    1.0000 </r>
       <r>   -6.8839    1.0000 </r>
       <r>   -6.8748    1.0000 </r>
       <r>   -6.8517    1.0000 </r>
       <r>   -1.5473    1.0000 </r>
       <r>    0.1757    1.0000 </r>
       <r>    3.7088    0.0000 </r>
       <r>    4.6185    0.0000 </r>
       <r>    4.9766    0.0000 </r>
       <r>    8.2212    0.0000 </r>
       <r>    9.8736    0.0000 </r>
       <r>   11.6014    0.0000 </r>
       <r>   12.8685    0.0000 </r>
       <r>   14.4033    0.0000 </r>
       <r>   14.4257    0.0000 </r>
       <r>   15.8517    0.0000 </r>
       <r>   16.1056    0.0000 </r>
       <r>   18.6049    0.0000 </r>
       <r>   21.6042    0.0000 </r>
       <r>   22.7802    0.0000 </r>
       <r>   23.7332    0.0000 </r>
       <r>   24.4346    0.0000 </r>
       <r>   25.3940    0.0000 </r>
      </set>
      <set comment="kpoint 10">
       <r>  -39.4141    1.0000 </r>
       <r>  -18.8063    1.0000 </r>
       <r>  -18.7561    1.0000 </r>
       <r>  -18.4487    1.0000 </r>
       <r>   -7.0168    1.0000 </r>
       <r>   -6.9526    1.0000 </r>
       <r>   -6.8935    1.0000 </r>
       <r>   -6.8885    1.0000 </r>
       <r>   -6.8501    1.0000 </r>
       <r>   -3.0490    1.0000 </r>
       <r>    2.4987    1.0000 </r>
       <r>    3.1587    0.2591 </r>
       <r>    4.7967    0.0000 </r>
       <r>    6.0351    0.0000 </r>
       <r>    7.4124    0.0000 </r>
       <r>    8.8299    0.0000 </r>
       <r>   10.0364    0.0000 </r>
       <r>   12.9534    0.0000 </r>
       <r>   13.6793    0.0000 </r>
       <r>   16.5284    0.0000 </r>
       <r>   17.6056    0.0000 </r>
       <r>   18.2228    0.0000 </r>
       <r>   18.3725    0.0000 </r>
       <r>   20.1580    0.0000 </r>
       <r>   20.3593    0.0000 </r>
       <r>   22.7427    0.0000 </r>
       <r>   23.7166    0.0000 </r>
       <r>   25.5847    0.0000 </r>
      </set>
      <set comment="kpoint 11">
       <r>  -39.3966    1.0000 </r>
       <r>  -19.0180    1.0000 </r>
       <r>  -18.7454    1.0000 </r>
       <r>  -18.4279    1.0000 </r>
       <r>   -7.0060    1.0000 </r>
       <r>   -6.9135    1.0000 </r>
       <r>   -6.9043    1.0000 </r>
       <r>   -6.8965    1.0000 </r>
       <r>   -6.8616    1.0000 </r>
       <r>   -2.2909    1.0000 </r>
       <r>    1.6729    1.0000 </r>
       <r>    3.4889    0.0000 </r>
       <r>    4.7381    0.0000 </r>
       <r>    5.6582    0.0000 </r>
       <r>    7.3272    0.0000 </r>
       <r>    8.9997    0.0000 </r>
       <r>   10.6054    0.0000 </r>
       <r>   13.0584    0.0000 </r>
       <r>   13.3700    0.0000 </r>
       <r>   15.5655    0.0000 </r>
       <r>   17.6607    0.0000 </r>
       <r>   17.7242    0.0000 </r>
       <r>   18.6991    0.0000 </r>
       <r>   20.5859    0.0000 </r>
       <r>   21.4256    0.0000 </r>
       <r>   22.8149    0.0000 </r>
       <r>   24.0433    0.0000 </r>
       <r>   26.0778    0.0000 </r>
      </set>
      <set comment="kpoint 12">
       <r>  -39.3852    1.0000 </r>
       <r>  -19.1633    1.0000 </r>
       <r>  -18.7247    1.0000 </r>
       <r>  -18.4142    1.0000 </r>
       <r>   -7.0010    1.0000 </r>
       <r>   -6.9246    1.0000 </r>
       <r>   -6.8949    1.0000 </r>
       <r>   -6.8758    1.0000 </r>
       <r>   -6.8716    1.0000 </r>
       <r>   -1.5698    1.0000 </r>
       <r>    0.7927    1.0000 </r>
       <r>    3.9292    0.0000 </r>
       <r>    4.4219    0.0000 </r>
       <r>    5.3491    0.0000 </r>
       <r>    7.4458    0.0000 </r>
       <r>    9.7797    0.0000 </r>
       <r>   11.6115    0.0000 </r>
       <r>   12.5197    0.0000 </r>
       <r>   13.3684    0.0000 </r>
       <r>   13.6210    0.0000 </r>
       <r>   16.7663    0.0000 </r>
       <r>   17.5490    0.0000 </r>
       <r>   19.6264    0.0000 </r>
       <r>   21.9540    0.0000 </r>
       <r>   22.4560    0.0000 </r>
       <r>   22.7431    0.0000 </r>
       <r>   24.5025    0.0000 </r>
       <r>   26.5373    0.0000 </r>
      </set>
      <set comment="kpoint 13">
       <r>  -39.3795    1.0000 </r>
       <r>  -18.9907    1.0000 </r>
       <r>  -18.9535    1.0000 </r>
       <r>  -18.4063    1.0000 </r>
       <r>   -6.9978    1.0000 </r>
       <r>   -6.9466    1.0000 </r>
       <r>   -6.9130    1.0000 </r>
       <r>   -6.8831    1.0000 </r>
       <r>   -6.8661    1.0000 </r>
       <r>   -1.9228    1.0000 </r>
       <r>    1.7711    1.0000 </r>
       <r>    3.4794    0.0000 </r>
       <r>    4.8442    0.0000 </r>
       <r>    5.9150    0.0000 </r>
       <r>    6.7766    0.0000 </r>
       <r>    9.2269    0.0000 </r>
       <r>   10.4266    0.0000 </r>
       <r>   12.6915    0.0000 </r>
       <r>   12.7225    0.0000 </r>
       <r>   15.8665    0.0000 </r>
       <r>   16.9685    0.0000 </r>
       <r>   18.8635    0.0000 </r>
       <r>   19.2248    0.0000 </r>
       <r>   19.3799    0.0000 </r>
       <r>   22.0699    0.0000 </r>
       <r>   23.9706    0.0000 </r>
       <r>   25.0977    0.0000 </r>
       <r>   26.2495    0.0000 </r>
      </set>
      <set comment="kpoint 14">
       <r>  -39.3683    1.0000 </r>
       <r>  -19.1133    1.0000 </r>
       <r>  -18.9429    1.0000 </r>
       <r>  -18.3921    1.0000 </r>
       <r>   -6.9966    1.0000 </r>
       <r>   -6.9668    1.0000 </r>
       <r>   -6.9170    1.0000 </r>
       <r>   -6.9042    1.0000 </r>
       <r>   -6.8379    1.0000 </r>
       <r>   -1.7114    1.0000 </r>
       <r>    1.7640    1.0000 </r>
       <r>    3.6954    0.0000 </r>
       <r>    4.6366    0.0000 </r>
       <r>    5.8671    0.0000 </r>
       <r>    6.7664    0.0000 </r>
       <r>    9.6828    0.0000 </r>
       <r>   11.0415    0.0000 </r>
       <r>   12.0856    0.0000 </r>
       <r>   12.1909    0.0000 </r>
       <r>   14.4390    0.0000 </r>
       <r>   17.3485    0.0000 </r>
       <r>   18.0404    0.0000 </r>
       <r>   19.7170    0.0000 </r>
       <r>   21.0995    0.0000 </r>
       <r>   23.0534    0.0000 </r>
       <r>   24.0764    0.0000 </r>
       <r>   24.8229    0.0000 </r>
       <r>   26.6095    0.0000 </r>
      </set>
      <set comment="kpoint 15">
       <r>  -39.3573    1.0000 </r>
       <r>  -19.0829    1.0000 </r>
       <r>  -19.0772    1.0000 </r>
       <r>  -18.3776    1.0000 </r>
       <r>   -6.9989    1.0000 </r>
       <r>   -6.9925    1.0000 </r>
       <r>   -6.9295    1.0000 </r>
       <r>   -6.9248    1.0000 </r>
       <r>   -6.8123    1.0000 </r>
       <r>   -1.8352    1.0000 </r>
       <r>    2.7678    1.0000 </r>
       <r>    3.5837    0.0000 </r>
       <r>    4.2638    0.0000 </r>
       <r>    6.2766    0.0000 </r>
       <r>    6.4159    0.0000 </r>
       <r>   10.0083    0.0000 </r>
       <r>   10.7604    0.0000 </r>
       <r>   11.2267    0.0000 </r>
       <r>   12.3198    0.0000 </r>
       <r>   15.2144    0.0000 </r>
       <r>   15.2455    0.0000 </r>
       <r>   18.1490    0.0000 </r>
       <r>   21.8468    0.0000 </r>
       <r>   21.9153    0.0000 </r>
       <r>   23.3889    0.0000 </r>
       <r>   23.4529    0.0000 </r>
       <r>   25.1784    0.0000 </r>
       <r>   26.5817    0.0000 </r>
      </set>
      <set comment="kpoint 16">
       <r>  -39.4389    1.0000 </r>
       <r>  -18.5975    1.0000 </r>
       <r>  -18.5653    1.0000 </r>
       <r>  -18.5653    1.0000 </r>
       <r>   -7.0308    1.0000 </r>
       <r>   -7.0308    1.0000 </r>
       <r>   -6.8684    1.0000 </r>
       <r>   -6.8684    1.0000 </r>
       <r>   -6.8545    1.0000 </r>
       <r>   -4.0211    1.0000 </r>
       <r>    2.8546    0.9999 </r>
       <r>    2.8546    0.9999 </r>
       <r>    5.8250    0.0000 </r>
       <r>    6.9509    0.0000 </r>
       <r>    6.9509    0.0000 </r>
       <r>   10.0541    0.0000 </r>
       <r>   10.0541    0.0000 </r>
       <r>   10.3928    0.0000 </r>
       <r>   15.2935    0.0000 </r>
       <r>   15.2935    0.0000 </r>
       <r>   15.9186    0.0000 </r>
       <r>   18.2521    0.0000 </r>
       <r>   19.4150    0.0000 </r>
       <r>   20.4335    0.0000 </r>
       <r>   20.4335    0.0000 </r>
       <r>   23.1936    0.0000 </r>
       <r>   23.1937    0.0000 </r>
       <r>   25.9656    0.0000 </r>
      </set>
      <set comment="kpoint 17">
       <r>  -39.4234    1.0000 </r>
       <r>  -18.8016    1.0000 </r>
       <r>  -18.5622    1.0000 </r>
       <r>  -18.5456    1.0000 </r>
       <r>   -7.0217    1.0000 </r>
       <r>   -6.9803    1.0000 </r>
       <r>   -6.8822    1.0000 </r>
       <r>   -6.8700    1.0000 </r>
       <r>   -6.8563    1.0000 </r>
       <r>   -3.4105    1.0000 </r>
       <r>    2.6804    1.0000 </r>
       <r>    3.0990    0.5783 </r>
       <r>    5.2694    0.0000 </r>
       <r>    5.7303    0.0000 </r>
       <r>    7.1816    0.0000 </r>
       <r>    9.1858    0.0000 </r>
       <r>   11.0974    0.0000 </r>
       <r>   11.5451    0.0000 </r>
       <r>   13.9959    0.0000 </r>
       <r>   15.8960    0.0000 </r>
       <r>   17.5678    0.0000 </r>
       <r>   18.0119    0.0000 </r>
       <r>   18.7913    0.0000 </r>
       <r>   20.7433    0.0000 </r>
       <r>   20.8630    0.0000 </r>
       <r>   22.5338    0.0000 </r>
       <r>   23.4142    0.0000 </r>
       <r>   24.0930    0.0000 </r>
      </set>
      <set comment="kpoint 18">
       <r>  -39.4057    1.0000 </r>
       <r>  -19.0408    1.0000 </r>
       <r>  -18.5379    1.0000 </r>
       <r>  -18.5230    1.0000 </r>
       <r>   -7.0115    1.0000 </r>
       <r>   -6.9244    1.0000 </r>
       <r>   -6.8962    1.0000 </r>
       <r>   -6.8715    1.0000 </r>
       <r>   -6.8583    1.0000 </r>
       <r>   -2.5177    1.0000 </r>
       <r>    1.6236    1.0000 </r>
       <r>    3.4335    0.0000 </r>
       <r>    4.8045    0.0000 </r>
       <r>    5.3880    0.0000 </r>
       <r>    7.5401    0.0000 </r>
       <r>    9.0635    0.0000 </r>
       <r>   11.7423    0.0000 </r>
       <r>   12.4394    0.0000 </r>
       <r>   13.4672    0.0000 </r>
       <r>   15.2026    0.0000 </r>
       <r>   16.9798    0.0000 </r>
       <r>   18.0079    0.0000 </r>
       <r>   19.3049    0.0000 </r>
       <r>   20.5953    0.0000 </r>
       <r>   21.5432    0.0000 </r>
       <r>   22.8570    0.0000 </r>
       <r>   23.2890    0.0000 </r>
       <r>   24.6321    0.0000 </r>
      </set>
      <set comment="kpoint 19">
       <r>  -39.3942    1.0000 </r>
       <r>  -19.1904    1.0000 </r>
       <r>  -18.5217    1.0000 </r>
       <r>  -18.5082    1.0000 </r>
       <r>   -7.0049    1.0000 </r>
       <r>   -6.9042    1.0000 </r>
       <r>   -6.8890    1.0000 </r>
       <r>   -6.8722    1.0000 </r>
       <r>   -6.8598    1.0000 </r>
       <r>   -1.5178    1.0000 </r>
       <r>    0.3860    1.0000 </r>
       <r>    3.7880    0.0000 </r>
       <r>    4.1930    0.0000 </r>
       <r>    5.4397    0.0000 </r>
       <r>    7.7387    0.0000 </r>
       <r>    9.9775    0.0000 </r>
       <r>   12.0115    0.0000 </r>
       <r>   12.2019    0.0000 </r>
       <r>   14.1872    0.0000 </r>
       <r>   14.7475    0.0000 </r>
       <r>   15.3861    0.0000 </r>
       <r>   16.4348    0.0000 </r>
       <r>   19.7714    0.0000 </r>
       <r>   21.6682    0.0000 </r>
       <r>   22.8481    0.0000 </r>
       <r>   23.1107    0.0000 </r>
       <r>   24.5072    0.0000 </r>
       <r>   25.3503    0.0000 </r>
      </set>
      <set comment="kpoint 20">
       <r>  -39.4082    1.0000 </r>
       <r>  -18.7956    1.0000 </r>
       <r>  -18.7463    1.0000 </r>
       <r>  -18.5324    1.0000 </r>
       <r>   -6.9980    1.0000 </r>
       <r>   -6.9523    1.0000 </r>
       <r>   -6.8927    1.0000 </r>
       <r>   -6.8877    1.0000 </r>
       <r>   -6.8623    1.0000 </r>
       <r>   -2.8951    1.0000 </r>
       <r>    2.7374    1.0000 </r>
       <r>    3.1381    0.3613 </r>
       <r>    4.8636    0.0000 </r>
       <r>    5.5391    0.0000 </r>
       <r>    6.5471    0.0000 </r>
       <r>    9.9157    0.0000 </r>
       <r>   10.3871    0.0000 </r>
       <r>   12.3146    0.0000 </r>
       <r>   14.1618    0.0000 </r>
       <r>   16.1983    0.0000 </r>
       <r>   16.4303    0.0000 </r>
       <r>   18.7328    0.0000 </r>
       <r>   19.4823    0.0000 </r>
       <r>   20.0847    0.0000 </r>
       <r>   20.4094    0.0000 </r>
       <r>   23.6758    0.0000 </r>
       <r>   24.0347    0.0000 </r>
       <r>   25.4327    0.0000 </r>
      </set>
      <set comment="kpoint 21">
       <r>  -39.3908    1.0000 </r>
       <r>  -19.0044    1.0000 </r>
       <r>  -18.7356    1.0000 </r>
       <r>  -18.5089    1.0000 </r>
       <r>   -6.9882    1.0000 </r>
       <r>   -6.9197    1.0000 </r>
       <r>   -6.9053    1.0000 </r>
       <r>   -6.8897    1.0000 </r>
       <r>   -6.8694    1.0000 </r>
       <r>   -2.1861    1.0000 </r>
       <r>    1.8765    1.0000 </r>
       <r>    3.3021    0.0037 </r>
       <r>    4.7874    0.0000 </r>
       <r>    5.5205    0.0000 </r>
       <r>    6.7719    0.0000 </r>
       <r>    9.6058    0.0000 </r>
       <r>   10.7584    0.0000 </r>
       <r>   12.8866    0.0000 </r>
       <r>   13.3462    0.0000 </r>
       <r>   15.5386    0.0000 </r>
       <r>   17.2065    0.0000 </r>
       <r>   18.3837    0.0000 </r>
       <r>   18.7371    0.0000 </r>
       <r>   20.7112    0.0000 </r>
       <r>   21.5228    0.0000 </r>
       <r>   23.2164    0.0000 </r>
       <r>   24.6457    0.0000 </r>
       <r>   25.4123    0.0000 </r>
      </set>
      <set comment="kpoint 22">
       <r>  -39.3795    1.0000 </r>
       <r>  -19.1480    1.0000 </r>
       <r>  -18.7151    1.0000 </r>
       <r>  -18.4933    1.0000 </r>
       <r>   -6.9841    1.0000 </r>
       <r>   -6.9358    1.0000 </r>
       <r>   -6.8907    1.0000 </r>
       <r>   -6.8823    1.0000 </r>
       <r>   -6.8662    1.0000 </r>
       <r>   -1.5173    1.0000 </r>
       <r>    0.9909    1.0000 </r>
       <r>    3.3761    0.0001 </r>
       <r>    4.5072    0.0000 </r>
       <r>    5.9517    0.0000 </r>
       <r>    6.9527    0.0000 </r>
       <r>   10.0564    0.0000 </r>
       <r>   10.8405    0.0000 </r>
       <r>   12.9166    0.0000 </r>
       <r>   12.9949    0.0000 </r>
       <r>   14.9989    0.0000 </r>
       <r>   16.2306    0.0000 </r>
       <r>   17.2334    0.0000 </r>
       <r>   20.3776    0.0000 </r>
       <r>   21.8535    0.0000 </r>
       <r>   22.5185    0.0000 </r>
       <r>   22.9023    0.0000 </r>
       <r>   24.8299    0.0000 </r>
       <r>   25.4672    0.0000 </r>
      </set>
      <set comment="kpoint 23">
       <r>  -39.3739    1.0000 </r>
       <r>  -18.9776    1.0000 </r>
       <r>  -18.9418    1.0000 </r>
       <r>  -18.4850    1.0000 </r>
       <r>   -6.9777    1.0000 </r>
       <r>   -6.9448    1.0000 </r>
       <r>   -6.9118    1.0000 </r>
       <r>   -6.8847    1.0000 </r>
       <r>   -6.8655    1.0000 </r>
       <r>   -1.8298    1.0000 </r>
       <r>    1.9177    1.0000 </r>
       <r>    3.1318    0.3950 </r>
       <r>    4.8204    0.0000 </r>
       <r>    5.8639    0.0000 </r>
       <r>    6.6928    0.0000 </r>
       <r>    9.8445    0.0000 </r>
       <r>   10.0086    0.0000 </r>
       <r>   12.1937    0.0000 </r>
       <r>   13.4861    0.0000 </r>
       <r>   16.6579    0.0000 </r>
       <r>   16.9760    0.0000 </r>
       <r>   17.4760    0.0000 </r>
       <r>   19.4657    0.0000 </r>
       <r>   20.5396    0.0000 </r>
       <r>   21.3876    0.0000 </r>
       <r>   24.1399    0.0000 </r>
       <r>   26.1119    0.0000 </r>
       <r>   26.2617    0.0000 </r>
      </set>
      <set comment="kpoint 24">
       <r>  -39.3628    1.0000 </r>
       <r>  -19.0994    1.0000 </r>
       <r>  -18.9311    1.0000 </r>
       <r>  -18.4692    1.0000 </r>
       <r>   -6.9757    1.0000 </r>
       <r>   -6.9640    1.0000 </r>
       <r>   -6.9133    1.0000 </r>
       <r>   -6.9020    1.0000 </r>
       <r>   -6.8374    1.0000 </r>
       <r>   -1.6057    1.0000 </r>
       <r>    1.8203    1.0000 </r>
       <r>    3.0600    0.7729 </r>
       <r>    4.6672    0.0000 </r>
       <r>    6.4207    0.0000 </r>
       <r>    6.7919    0.0000 </r>
       <r>    9.5941    0.0000 </r>
       <r>   10.0351    0.0000 </r>
       <r>   12.2863    0.0000 </r>
       <r>   13.3172    0.0000 </r>
       <r>   14.8847    0.0000 </r>
       <r>   17.1382    0.0000 </r>
       <r>   17.9907    0.0000 </r>
       <r>   19.7891    0.0000 </r>
       <r>   21.2666    0.0000 </r>
       <r>   22.5487    0.0000 </r>
       <r>   24.2372    0.0000 </r>
       <r>   24.8062    0.0000 </r>
       <r>   26.2808    0.0000 </r>
      </set>
      <set comment="kpoint 25">
       <r>  -39.3518    1.0000 </r>
       <r>  -19.0698    1.0000 </r>
       <r>  -19.0643    1.0000 </r>
       <r>  -18.4533    1.0000 </r>
       <r>   -6.9803    1.0000 </r>
       <r>   -6.9758    1.0000 </r>
       <r>   -6.9259    1.0000 </r>
       <r>   -6.9206    1.0000 </r>
       <r>   -6.8121    1.0000 </r>
       <r>   -1.6984    1.0000 </r>
       <r>    2.5674    1.0000 </r>
       <r>    2.9553    0.9871 </r>
       <r>    4.2479    0.0000 </r>
       <r>    6.8955    0.0000 </r>
       <r>    7.0404    0.0000 </r>
       <r>    8.8116    0.0000 </r>
       <r>   10.1209    0.0000 </r>
       <r>   12.4183    0.0000 </r>
       <r>   12.9652    0.0000 </r>
       <r>   15.3291    0.0000 </r>
       <r>   15.3379    0.0000 </r>
       <r>   18.5700    0.0000 </r>
       <r>   21.2780    0.0000 </r>
       <r>   22.0532    0.0000 </r>
       <r>   22.8894    0.0000 </r>
       <r>   23.5295    0.0000 </r>
       <r>   24.2072    0.0000 </r>
       <r>   26.5156    0.0000 </r>
      </set>
      <set comment="kpoint 26">
       <r>  -39.3933    1.0000 </r>
       <r>  -18.7839    1.0000 </r>
       <r>  -18.7213    1.0000 </r>
       <r>  -18.7213    1.0000 </r>
       <r>   -6.9510    1.0000 </r>
       <r>   -6.9510    1.0000 </r>
       <r>   -6.8987    1.0000 </r>
       <r>   -6.8857    1.0000 </r>
       <r>   -6.8857    1.0000 </r>
       <r>   -2.4804    1.0000 </r>
       <r>    3.0179    0.9105 </r>
       <r>    3.0179    0.9105 </r>
       <r>    4.5313    0.0000 </r>
       <r>    5.6381    0.0000 </r>
       <r>    5.6381    0.0000 </r>
       <r>   10.3811    0.0000 </r>
       <r>   11.4847    0.0000 </r>
       <r>   11.4847    0.0000 </r>
       <r>   14.4314    0.0000 </r>
       <r>   15.8772    0.0000 </r>
       <r>   15.8772    0.0000 </r>
       <r>   19.5350    0.0000 </r>
       <r>   19.9434    0.0000 </r>
       <r>   19.9434    0.0000 </r>
       <r>   20.7933    0.0000 </r>
       <r>   24.0148    0.0000 </r>
       <r>   24.0148    0.0000 </r>
       <r>   25.2564    0.0000 </r>
      </set>
      <set comment="kpoint 27">
       <r>  -39.3762    1.0000 </r>
       <r>  -18.9701    1.0000 </r>
       <r>  -18.7248    1.0000 </r>
       <r>  -18.6926    1.0000 </r>
       <r>   -6.9487    1.0000 </r>
       <r>   -6.9293    1.0000 </r>
       <r>   -6.9055    1.0000 </r>
       <r>   -6.8836    1.0000 </r>
       <r>   -6.8836    1.0000 </r>
       <r>   -1.9134    1.0000 </r>
       <r>    2.2345    1.0000 </r>
       <r>    2.7512    1.0000 </r>
       <r>    5.1876    0.0000 </r>
       <r>    5.2226    0.0000 </r>
       <r>    6.3535    0.0000 </r>
       <r>    9.7098    0.0000 </r>
       <r>   10.8737    0.0000 </r>
       <r>   12.8276    0.0000 </r>
       <r>   13.8104    0.0000 </r>
       <r>   15.2519    0.0000 </r>
       <r>   17.3270    0.0000 </r>
       <r>   18.7956    0.0000 </r>
       <r>   18.8831    0.0000 </r>
       <r>   20.5122    0.0000 </r>
       <r>   22.3626    0.0000 </r>
       <r>   23.6791    0.0000 </r>
       <r>   23.7570    0.0000 </r>
       <r>   25.7049    0.0000 </r>
      </set>
      <set comment="kpoint 28">
       <r>  -39.3651    1.0000 </r>
       <r>  -19.1088    1.0000 </r>
       <r>  -18.7039    1.0000 </r>
       <r>  -18.6737    1.0000 </r>
       <r>   -6.9501    1.0000 </r>
       <r>   -6.9468    1.0000 </r>
       <r>   -6.9011    1.0000 </r>
       <r>   -6.8825    1.0000 </r>
       <r>   -6.8580    1.0000 </r>
       <r>   -1.3995    1.0000 </r>
       <r>    1.4180    1.0000 </r>
       <r>    2.5195    1.0000 </r>
       <r>    5.1320    0.0000 </r>
       <r>    6.0786    0.0000 </r>
       <r>    6.8600    0.0000 </r>
       <r>    9.1815    0.0000 </r>
       <r>   10.5327    0.0000 </r>
       <r>   13.4224    0.0000 </r>
       <r>   13.7975    0.0000 </r>
       <r>   15.3556    0.0000 </r>
       <r>   15.8104    0.0000 </r>
       <r>   17.7872    0.0000 </r>
       <r>   20.8849    0.0000 </r>
       <r>   21.2392    0.0000 </r>
       <r>   22.7397    0.0000 </r>
       <r>   23.3691    0.0000 </r>
       <r>   24.8866    0.0000 </r>
       <r>   25.0939    0.0000 </r>
      </set>
      <set comment="kpoint 29">
       <r>  -39.3595    1.0000 </r>
       <r>  -18.9443    1.0000 </r>
       <r>  -18.9118    1.0000 </r>
       <r>  -18.6777    1.0000 </r>
       <r>   -6.9435    1.0000 </r>
       <r>   -6.9279    1.0000 </r>
       <r>   -6.9072    1.0000 </r>
       <r>   -6.8871    1.0000 </r>
       <r>   -6.8645    1.0000 </r>
       <r>   -1.5707    1.0000 </r>
       <r>    1.9967    1.0000 </r>
       <r>    2.3787    1.0000 </r>
       <r>    5.0938    0.0000 </r>
       <r>    6.0051    0.0000 </r>
       <r>    6.6824    0.0000 </r>
       <r>    8.6574    0.0000 </r>
       <r>   11.1242    0.0000 </r>
       <r>   12.8281    0.0000 </r>
       <r>   13.7987    0.0000 </r>
       <r>   16.1587    0.0000 </r>
       <r>   16.7070    0.0000 </r>
       <r>   18.4064    0.0000 </r>
       <r>   19.7178    0.0000 </r>
       <r>   20.9788    0.0000 </r>
       <r>   21.6716    0.0000 </r>
       <r>   23.0511    0.0000 </r>
       <r>   25.1478    0.0000 </r>
       <r>   25.8934    0.0000 </r>
      </set>
      <set comment="kpoint 30">
       <r>  -39.3486    1.0000 </r>
       <r>  -19.0638    1.0000 </r>
       <r>  -18.9012    1.0000 </r>
       <r>  -18.6584    1.0000 </r>
       <r>   -6.9560    1.0000 </r>
       <r>   -6.9245    1.0000 </r>
       <r>   -6.9091    1.0000 </r>
       <r>   -6.8929    1.0000 </r>
       <r>   -6.8361    1.0000 </r>
       <r>   -1.3087    1.0000 </r>
       <r>    1.6948    1.0000 </r>
       <r>    2.0391    1.0000 </r>
       <r>    5.3113    0.0000 </r>
       <r>    6.5946    0.0000 </r>
       <r>    7.2202    0.0000 </r>
       <r>    8.0751    0.0000 </r>
       <r>   10.6896    0.0000 </r>
       <r>   13.1786    0.0000 </r>
       <r>   13.9766    0.0000 </r>
       <r>   15.6119    0.0000 </r>
       <r>   15.9400    0.0000 </r>
       <r>   18.8921    0.0000 </r>
       <r>   20.1847    0.0000 </r>
       <r>   21.4472    0.0000 </r>
       <r>   22.3713    0.0000 </r>
       <r>   22.9320    0.0000 </r>
       <r>   24.5490    0.0000 </r>
       <r>   26.0107    0.0000 </r>
      </set>
      <set comment="kpoint 31">
       <r>  -39.3378    1.0000 </r>
       <r>  -19.0363    1.0000 </r>
       <r>  -19.0315    1.0000 </r>
       <r>  -18.6394    1.0000 </r>
       <r>   -6.9530    1.0000 </r>
       <r>   -6.9194    1.0000 </r>
       <r>   -6.9158    1.0000 </r>
       <r>   -6.9075    1.0000 </r>
       <r>   -6.8115    1.0000 </r>
       <r>   -1.2900    1.0000 </r>
       <r>    1.7657    1.0000 </r>
       <r>    1.9008    1.0000 </r>
       <r>    5.2162    0.0000 </r>
       <r>    6.5824    0.0000 </r>
       <r>    8.0450    0.0000 </r>
       <r>    8.0500    0.0000 </r>
       <r>   10.4732    0.0000 </r>
       <r>   12.7458    0.0000 </r>
       <r>   14.1216    0.0000 </r>
       <r>   15.4064    0.0000 </r>
       <r>   15.4956    0.0000 </r>
       <r>   19.6614    0.0000 </r>
       <r>   20.3523    0.0000 </r>
       <r>   22.2971    0.0000 </r>
       <r>   22.4799    0.0000 </r>
       <r>   22.7482    0.0000 </r>
       <r>   24.0021    0.0000 </r>
       <r>   26.8373    0.0000 </r>
      </set>
      <set comment="kpoint 32">
       <r>  -39.3431    1.0000 </r>
       <r>  -18.9157    1.0000 </r>
       <r>  -18.8773    1.0000 </r>
       <r>  -18.8773    1.0000 </r>
       <r>   -6.9443    1.0000 </r>
       <r>   -6.8992    1.0000 </r>
       <r>   -6.8992    1.0000 </r>
       <r>   -6.8655    1.0000 </r>
       <r>   -6.8655    1.0000 </r>
       <r>   -1.2128    1.0000 </r>
       <r>    1.6716    1.0000 </r>
       <r>    1.6716    1.0000 </r>
       <r>    5.6577    0.0000 </r>
       <r>    6.7859    0.0000 </r>
       <r>    6.7859    0.0000 </r>
       <r>    7.5317    0.0000 </r>
       <r>   12.4780    0.0000 </r>
       <r>   12.4780    0.0000 </r>
       <r>   14.1037    0.0000 </r>
       <r>   15.8919    0.0000 </r>
       <r>   15.8919    0.0000 </r>
       <r>   20.0973    0.0000 </r>
       <r>   20.0973    0.0000 </r>
       <r>   20.2948    0.0000 </r>
       <r>   21.6612    0.0000 </r>
       <r>   23.8770    0.0000 </r>
       <r>   23.8770    0.0000 </r>
       <r>   25.5402    0.0000 </r>
      </set>
      <set comment="kpoint 33">
       <r>  -39.3324    1.0000 </r>
       <r>  -19.0228    1.0000 </r>
       <r>  -18.8763    1.0000 </r>
       <r>  -18.8545    1.0000 </r>
       <r>   -6.9423    1.0000 </r>
       <r>   -6.9062    1.0000 </r>
       <r>   -6.8905    1.0000 </r>
       <r>   -6.8687    1.0000 </r>
       <r>   -6.8306    1.0000 </r>
       <r>   -0.9140    1.0000 </r>
       <r>    1.2676    1.0000 </r>
       <r>    1.3330    1.0000 </r>
       <r>    5.6841    0.0000 </r>
       <r>    6.8820    0.0000 </r>
       <r>    6.9525    0.0000 </r>
       <r>    8.4528    0.0000 </r>
       <r>   11.2293    0.0000 </r>
       <r>   13.6972    0.0000 </r>
       <r>   14.3655    0.0000 </r>
       <r>   14.8545    0.0000 </r>
       <r>   15.6402    0.0000 </r>
       <r>   19.3877    0.0000 </r>
       <r>   20.5516    0.0000 </r>
       <r>   21.7991    0.0000 </r>
       <r>   21.9016    0.0000 </r>
       <r>   24.2669    0.0000 </r>
       <r>   24.5580    0.0000 </r>
       <r>   24.8882    0.0000 </r>
      </set>
      <set comment="kpoint 34">
       <r>  -39.3218    1.0000 </r>
       <r>  -18.9976    1.0000 </r>
       <r>  -18.9935    1.0000 </r>
       <r>  -18.8421    1.0000 </r>
       <r>   -6.9253    1.0000 </r>
       <r>   -6.9024    1.0000 </r>
       <r>   -6.8966    1.0000 </r>
       <r>   -6.8524    1.0000 </r>
       <r>   -6.8112    1.0000 </r>
       <r>   -0.6441    1.0000 </r>
       <r>    0.9829    1.0000 </r>
       <r>    1.0421    1.0000 </r>
       <r>    4.7276    0.0000 </r>
       <r>    7.0181    0.0000 </r>
       <r>    8.7629    0.0000 </r>
       <r>    8.8944    0.0000 </r>
       <r>   11.0455    0.0000 </r>
       <r>   12.7648    0.0000 </r>
       <r>   14.6364    0.0000 </r>
       <r>   15.0995    0.0000 </r>
       <r>   15.3381    0.0000 </r>
       <r>   18.0638    0.0000 </r>
       <r>   21.9906    0.0000 </r>
       <r>   22.7512    0.0000 </r>
       <r>   23.2094    0.0000 </r>
       <r>   23.3496    0.0000 </r>
       <r>   24.7442    0.0000 </r>
       <r>   26.2125    0.0000 </r>
      </set>
      <set comment="kpoint 35">
       <r>  -39.3114    1.0000 </r>
       <r>  -18.9735    1.0000 </r>
       <r>  -18.9685    1.0000 </r>
       <r>  -18.9685    1.0000 </r>
       <r>   -6.9042    1.0000 </r>
       <r>   -6.8923    1.0000 </r>
       <r>   -6.8923    1.0000 </r>
       <r>   -6.8111    1.0000 </r>
       <r>   -6.8111    1.0000 </r>
       <r>    0.0078    1.0000 </r>
       <r>    0.5760    1.0000 </r>
       <r>    0.5760    1.0000 </r>
       <r>    3.4113    0.0000 </r>
       <r>    9.0918    0.0000 </r>
       <r>    9.0918    0.0000 </r>
       <r>    9.5102    0.0000 </r>
       <r>   11.5757    0.0000 </r>
       <r>   11.5757    0.0000 </r>
       <r>   14.9514    0.0000 </r>
       <r>   14.9572    0.0000 </r>
       <r>   14.9572    0.0000 </r>
       <r>   16.5217    0.0000 </r>
       <r>   23.8071    0.0000 </r>
       <r>   23.8071    0.0000 </r>
       <r>   24.5970    0.0000 </r>
       <r>   25.1579    0.0000 </r>
       <r>   25.1999    0.0000 </r>
       <r>   26.4219    0.0000 </r>
      </set>
     </set>
    </set>
   </array>
  </eigenvalues>
  <separator name="orbital magnetization" >
   <v name="MAGDIPOLOUT">      0.00000000      0.00000000      0.00000000</v>
  </separator>
  <dos>
   <i name="efermi">      3.11295616 </i>
   <total>
    <array>
     <dimension dim="1">gridpoints</dimension>
     <dimension dim="2">spin</dimension>
     <field>energy</field>
     <field>total</field>
     <field>integrated</field>
     <set>
      <set comment="spin 1">
       <r>   -42.7721     0.0000     0.0000 </r>
       <r>   -42.5290     0.0000     0.0000 </r>
       <r>   -42.2860     0.0000     0.0000 </r>
       <r>   -42.0429     0.0000     0.0000 </r>
       <r>   -41.7998     0.0000     0.0000 </r>
       <r>   -41.5567     0.0000     0.0000 </r>
       <r>   -41.3136     0.0000     0.0000 </r>
       <r>   -41.0706     0.0000     0.0000 </r>
       <r>   -40.8275     0.0000     0.0000 </r>
[...]
        <r>  0.0059  0.1390  0.0135 </r>
       </set>
       <set comment="band 20">
        <r>  0.0014  0.0829  0.1671 </r>
        <r>  0.0298  0.1042  0.0233 </r>
       </set>
       <set comment="band 21">
        <r>  0.0112  0.1177  0.2600 </r>
        <r>  0.0002  0.0366  0.0530 </r>
       </set>
       <set comment="band 22">
        <r>  0.0257  0.0183  0.0549 </r>
        <r>  0.0055  0.1612  0.0943 </r>
       </set>
       <set comment="band 23">
        <r>  0.1143  0.0904  0.0124 </r>
        <r>  0.0000  0.0343  0.0400 </r>
       </set>
       <set comment="band 24">
        <r>  0.0001  0.0052  0.1068 </r>
        <r>  0.0006  0.0143  0.1060 </r>
       </set>
       <set comment="band 25">
        <r>  0.0726  0.0897  0.0732 </r>
        <r>  0.0053  0.0465  0.0419 </r>
       </set>
       <set comment="band 26">
        <r>  0.0284  0.0417  0.0929 </r>
        <r>  0.0378  0.0198  0.0792 </r>
       </set>
       <set comment="band 27">
        <r>  0.0002  0.0005  0.0649 </r>
        <r>  0.0144  0.1094  0.0184 </r>
       </set>
       <set comment="band 28">
        <r>  0.0126  0.0016  0.0264 </r>
        <r>  0.0205  0.0605  0.0734 </r>
       </set>
      </set>
      <set comment="kpoint 31">
       <set comment="band 1">
        <r>  0.9913  0.0000  0.0000 </r>
        <r>  0.0000  0.0000  0.0000 </r>
       </set>
       <set comment="band 2">
        <r>  0.0000  0.9331  0.0001 </r>
        <r>  0.0002  0.0012  0.0009 </r>
       </set>
       <set comment="band 3">
        <r>  0.0000  0.9337  0.0001 </r>
        <r>  0.0000  0.0013  0.0009 </r>
       </set>
       <set comment="band 4">
        <r>  0.0001  0.9556  0.0003 </r>
        <r>  0.0000  0.0001  0.0010 </r>
       </set>
       <set comment="band 5">
        <r>  0.0015  0.0022  0.0016 </r>
        <r>  0.0000  0.0000  0.9617 </r>
       </set>
       <set comment="band 6">
        <r>  0.0000  0.0003  0.0022 </r>
        <r>  0.0009  0.0003  0.9656 </r>
       </set>
       <set comment="band 7">
        <r>  0.0000  0.0022  0.0031 </r>
        <r>  0.0000  0.0000  0.9664 </r>
       </set>
       <set comment="band 8">
        <r>  0.0001  0.0027  0.0020 </r>
        <r>  0.0000  0.0001  0.9673 </r>
       </set>
       <set comment="band 9">
        <r>  0.0000  0.0001  0.0000 </r>
        <r>  0.0000  0.0000  0.9819 </r>
       </set>
       <set comment="band 10">
        <r>  0.0002  0.0057  0.1882 </r>
        <r>  0.2799  0.0234  0.0139 </r>
       </set>
       <set comment="band 11">
        <r>  0.0057  0.0301  0.2425 </r>
        <r>  0.0009  0.1485  0.0049 </r>
       </set>
       <set comment="band 12">
        <r>  0.0000  0.0345  0.2413 </r>
        <r>  0.0000  0.1513  0.0050 </r>
       </set>
       <set comment="band 13">
        <r>  0.0632  0.0283  0.4106 </r>
        <r>  0.0025  0.0019  0.0374 </r>
       </set>
       <set comment="band 14">
        <r>  0.0002  0.0103  0.1144 </r>
        <r>  0.2691  0.1498  0.0039 </r>
       </set>
       <set comment="band 15">
        <r>  0.0000  0.0879  0.3938 </r>
        <r>  0.0000  0.0278  0.0421 </r>
       </set>
       <set comment="band 16">
        <r>  0.0136  0.0834  0.3631 </r>
        <r>  0.0173  0.0268  0.0460 </r>
       </set>
       <set comment="band 17">
        <r>  0.0000  0.0124  0.7926 </r>
        <r>  0.0000  0.0239  0.0069 </r>
       </set>
       <set comment="band 18">
        <r>  0.2418  0.0189  0.3608 </r>
        <r>  0.0017  0.0175  0.0447 </r>
       </set>
       <set comment="band 19">
        <r>  0.0019  0.0001  0.4892 </r>
        <r>  0.0381  0.2117  0.0020 </r>
       </set>
       <set comment="band 20">
        <r>  0.0002  0.0824  0.2137 </r>
        <r>  0.0105  0.0809  0.0168 </r>
       </set>
       <set comment="band 21">
        <r>  0.0000  0.0733  0.2067 </r>
        <r>  0.0000  0.0718  0.0068 </r>
       </set>
       <set comment="band 22">
        <r>  0.1344  0.0910  0.0471 </r>
        <r>  0.0106  0.0478  0.0863 </r>
       </set>
       <set comment="band 23">
        <r>  0.1252  0.0963  0.0387 </r>
        <r>  0.0154  0.0476  0.0927 </r>
       </set>
       <set comment="band 24">
        <r>  0.0000  0.0057  0.1409 </r>
        <r>  0.0000  0.0410  0.0810 </r>
       </set>
       <set comment="band 25">
        <r>  0.0000  0.0005  0.0075 </r>
        <r>  0.0000  0.0753  0.0704 </r>
       </set>
       <set comment="band 26">
        <r>  0.0326  0.0381  0.1466 </r>
        <r>  0.0091  0.0352  0.0775 </r>
       </set>
       <set comment="band 27">
        <r>  0.0004  0.0013  0.0276 </r>
        <r>  0.0057  0.0919  0.0213 </r>
       </set>
       <set comment="band 28">
        <r>  0.0001  0.0002  0.0027 </r>
        <r>  0.0000  0.0281  0.1499 </r>
       </set>
      </set>
      <set comment="kpoint 32">
       <set comment="band 1">
        <r>  0.9911  0.0000  0.0000 </r>
        <r>  0.0000  0.0000  0.0000 </r>
       </set>
       <set comment="band 2">
        <r>  0.0003  0.9379  0.0001 </r>
        <r>  0.0008  0.0010  0.0003 </r>
       </set>
       <set comment="band 3">
        <r>  0.0000  0.9422  0.0004 </r>
        <r>  0.0000  0.0005  0.0015 </r>
       </set>
       <set comment="band 4">
        <r>  0.0000  0.9422  0.0004 </r>
        <r>  0.0000  0.0005  0.0015 </r>
       </set>
       <set comment="band 5">
        <r>  0.0011  0.0009  0.0024 </r>
        <r>  0.0001  0.0000  0.9639 </r>
       </set>
       <set comment="band 6">
        <r>  0.0000  0.0031  0.0017 </r>
        <r>  0.0000  0.0001  0.9680 </r>
       </set>
       <set comment="band 7">
        <r>  0.0000  0.0031  0.0017 </r>
        <r>  0.0000  0.0001  0.9680 </r>
       </set>
       <set comment="band 8">
        <r>  0.0000  0.0010  0.0003 </r>
        <r>  0.0000  0.0002  0.9751 </r>
       </set>
       <set comment="band 9">
        <r>  0.0000  0.0010  0.0003 </r>
        <r>  0.0000  0.0002  0.9751 </r>
       </set>
       <set comment="band 10">
        <r>  0.0082  0.0300  0.1270 </r>
        <r>  0.2858  0.0322  0.0008 </r>
       </set>
       <set comment="band 11">
        <r>  0.0000  0.0128  0.3006 </r>
        <r>  0.0000  0.1359  0.0104 </r>
       </set>
       <set comment="band 12">
        <r>  0.0000  0.0128  0.3006 </r>
        <r>  0.0000  0.1359  0.0104 </r>
       </set>
       <set comment="band 13">
        <r>  0.0803  0.0465  0.0151 </r>
        <r>  0.1292  0.1444  0.0163 </r>
       </set>
       <set comment="band 14">
        <r>  0.0000  0.0524  0.5241 </r>
        <r>  0.0000  0.0006  0.0228 </r>
       </set>
       <set comment="band 15">
        <r>  0.0000  0.0524  0.5241 </r>
        <r>  0.0000  0.0006  0.0228 </r>
       </set>
       <set comment="band 16">
        <r>  0.0328  0.0087  0.3701 </r>
        <r>  0.1630  0.0211  0.0377 </r>
       </set>
       <set comment="band 17">
        <r>  0.0000  0.0563  0.5255 </r>
        <r>  0.0000  0.0958  0.0302 </r>
       </set>
       <set comment="band 18">
        <r>  0.0000  0.0563  0.5255 </r>
        <r>  0.0000  0.0958  0.0302 </r>
       </set>
       <set comment="band 19">
        <r>  0.2075  0.0003  0.2624 </r>
        <r>  0.0193  0.1255  0.0147 </r>
       </set>
       <set comment="band 20">
        <r>  0.0000  0.0852  0.3218 </r>
        <r>  0.0000  0.0549  0.0415 </r>
       </set>
       <set comment="band 21">
        <r>  0.0000  0.0852  0.3218 </r>
        <r>  0.0000  0.0549  0.0415 </r>
       </set>
       <set comment="band 22">
        <r>  0.0000  0.0030  0.0620 </r>
        <r>  0.0000  0.1082  0.0889 </r>
       </set>
       <set comment="band 23">
        <r>  0.0000  0.0030  0.0620 </r>
        <r>  0.0000  0.1082  0.0889 </r>
       </set>
       <set comment="band 24">
        <r>  0.2817  0.1860  0.0221 </r>
        <r>  0.0191  0.0378  0.0014 </r>
       </set>
       <set comment="band 25">
        <r>  0.0000  0.0000  0.0000 </r>
        <r>  0.0000  0.0000  0.0000 </r>
       </set>
       <set comment="band 26">
        <r>  0.0000  0.0009  0.0245 </r>
        <r>  0.0000  0.1049  0.1264 </r>
       </set>
       <set comment="band 27">
        <r>  0.0000  0.0009  0.0245 </r>
        <r>  0.0000  0.1049  0.1264 </r>
       </set>
       <set comment="band 28">
        <r>  0.0201  0.0021  0.0777 </r>
        <r>  0.1081  0.0617  0.0003 </r>
       </set>
      </set>
      <set comment="kpoint 33">
       <set comment="band 1">
        <r>  0.9916  0.0000  0.0000 </r>
        <r>  0.0000  0.0000  0.0000 </r>
       </set>
       <set comment="band 2">
        <r>  0.0000  0.9339  0.0001 </r>
        <r>  0.0004  0.0008  0.0012 </r>
       </set>
       <set comment="band 3">
        <r>  0.0002  0.9418  0.0002 </r>
        <r>  0.0001  0.0009  0.0008 </r>
       </set>
       <set comment="band 4">
        <r>  0.0000  0.9439  0.0003 </r>
        <r>  0.0000  0.0001  0.0019 </r>
       </set>
       <set comment="band 5">
        <r>  0.0010  0.0021  0.0022 </r>
        <r>  0.0000  0.0000  0.9634 </r>
       </set>
       <set comment="band 6">
        <r>  0.0000  0.0030  0.0023 </r>
        <r>  0.0001  0.0000  0.9667 </r>
       </set>
       <set comment="band 7">
        <r>  0.0000  0.0048  0.0006 </r>
        <r>  0.0000  0.0000  0.9682 </r>
       </set>
       <set comment="band 8">
        <r>  0.0000  0.0003  0.0006 </r>
        <r>  0.0000  0.0003  0.9747 </r>
       </set>
       <set comment="band 9">
        <r>  0.0000  0.0004  0.0001 </r>
        <r>  0.0001  0.0001  0.9792 </r>
       </set>
       <set comment="band 10">
        <r>  0.0014  0.0190  0.1638 </r>
        <r>  0.2680  0.0382  0.0044 </r>
       </set>
       <set comment="band 11">
        <r>  0.0000  0.0014  0.3219 </r>
        <r>  0.0000  0.1329  0.0096 </r>
       </set>
       <set comment="band 12">
        <r>  0.0058  0.0225  0.2590 </r>
        <r>  0.0001  0.1456  0.0028 </r>
       </set>
       <set comment="band 13">
        <r>  0.0108  0.0183  0.0636 </r>
        <r>  0.2817  0.1412  0.0025 </r>
       </set>
       <set comment="band 14">
        <r>  0.0000  0.0577  0.5156 </r>
        <r>  0.0000  0.0001  0.0217 </r>
       </set>
       <set comment="band 15">
        <r>  0.0720  0.0480  0.3501 </r>
        <r>  0.0177  0.0046  0.0482 </r>
       </set>
       <set comment="band 16">
        <r>  0.0124  0.0979  0.3449 </r>
        <r>  0.0147  0.0197  0.0443 </r>
       </set>
       <set comment="band 17">
        <r>  0.0283  0.0353  0.6523 </r>
        <r>  0.0009  0.0406  0.0202 </r>
       </set>
       <set comment="band 18">
        <r>  0.0000  0.0879  0.4459 </r>
        <r>  0.0000  0.0697  0.0450 </r>
       </set>
       <set comment="band 19">
        <r>  0.1866  0.0003  0.3309 </r>
        <r>  0.0054  0.1169  0.0076 </r>
       </set>
       <set comment="band 20">
        <r>  0.0000  0.0619  0.4189 </r>
        <r>  0.0000  0.0925  0.0345 </r>
       </set>
       <set comment="band 21">
        <r>  0.0006  0.0626  0.3119 </r>
        <r>  0.0166  0.1279  0.0138 </r>
       </set>
       <set comment="band 22">
        <r>  0.3320  0.1566  0.0431 </r>
        <r>  0.0029  0.0170  0.0066 </r>
       </set>
       <set comment="band 23">
        <r>  0.0000  0.0007  0.0267 </r>
        <r>  0.0000  0.1570  0.0935 </r>
       </set>
       <set comment="band 24">
        <r>  0.0000  0.0001  0.0345 </r>
        <r>  0.0000  0.0129  0.0357 </r>
       </set>
       <set comment="band 25">
        <r>  0.0065  0.0068  0.0597 </r>
        <r>  0.0001  0.0358  0.1083 </r>
       </set>
       <set comment="band 26">
        <r>  0.0004  0.0016  0.0046 </r>
        <r>  0.0478  0.0892  0.1129 </r>
       </set>
       <set comment="band 27">
        <r>  0.0000  0.0003  0.0142 </r>
        <r>  0.0000  0.0410  0.0709 </r>
       </set>
       <set comment="band 28">
        <r>  0.0001  0.0005  0.0491 </r>
        <r>  0.0313  0.0973  0.0164 </r>
       </set>
      </set>
      <set comment="kpoint 34">
       <set comment="band 1">
        <r>  0.9921  0.0000  0.0000 </r>
        <r>  0.0000  0.0000  0.0000 </r>
       </set>
       <set comment="band 2">
        <r>  0.0000  0.9360  0.0000 </r>
        <r>  0.0001  0.0006  0.0015 </r>
       </set>
       <set comment="band 3">
        <r>  0.0000  0.9365  0.0001 </r>
        <r>  0.0000  0.0005  0.0017 </r>
       </set>
       <set comment="band 4">
        <r>  0.0001  0.9446  0.0002 </r>
        <r>  0.0000  0.0001  0.0017 </r>
       </set>
       <set comment="band 5">
        <r>  0.0007  0.0037  0.0014 </r>
        <r>  0.0000  0.0000  0.9646 </r>
       </set>
       <set comment="band 6">
        <r>  0.0000  0.0043  0.0015 </r>
        <r>  0.0000  0.0000  0.9669 </r>
       </set>
       <set comment="band 7">
        <r>  0.0000  0.0050  0.0008 </r>
        <r>  0.0000  0.0000  0.9673 </r>
       </set>
       <set comment="band 8">
        <r>  0.0000  0.0001  0.0007 </r>
        <r>  0.0001  0.0002  0.9761 </r>
       </set>
       <set comment="band 9">
        <r>  0.0000  0.0001  0.0001 </r>
        <r>  0.0000  0.0000  0.9819 </r>
       </set>
       <set comment="band 10">
        <r>  0.0002  0.0062  0.2058 </r>
        <r>  0.2227  0.0541  0.0053 </r>
       </set>
       <set comment="band 11">
        <r>  0.0010  0.0089  0.2961 </r>
        <r>  0.0007  0.1395  0.0036 </r>
       </set>
       <set comment="band 12">
        <r>  0.0000  0.0123  0.2902 </r>
        <r>  0.0000  0.1414  0.0033 </r>
       </set>
       <set comment="band 13">
        <r>  0.0006  0.0036  0.0907 </r>
        <r>  0.3597  0.0998  0.0013 </r>
       </set>
       <set comment="band 14">
        <r>  0.0436  0.0617  0.4083 </r>
        <r>  0.0004  0.0006  0.0359 </r>
       </set>
       <set comment="band 15">
        <r>  0.0000  0.0997  0.4002 </r>
        <r>  0.0000  0.0118  0.0383 </r>
       </set>
       <set comment="band 16">
        <r>  0.0328  0.1240  0.2190 </r>
        <r>  0.0028  0.0236  0.0550 </r>
       </set>
       <set comment="band 17">
        <r>  0.0000  0.0546  0.6481 </r>
        <r>  0.0000  0.0251  0.0225 </r>
       </set>
       <set comment="band 18">
        <r>  0.1126  0.0774  0.4148 </r>
        <r>  0.0008  0.0092  0.0470 </r>
       </set>
       <set comment="band 19">
        <r>  0.0207  0.0003  0.5281 </r>
        <r>  0.0046  0.1797  0.0026 </r>
       </set>
       <set comment="band 20">
        <r>  0.0435  0.0392  0.3811 </r>
        <r>  0.0126  0.1439  0.0104 </r>
       </set>
       <set comment="band 21">
        <r>  0.0000  0.0446  0.3948 </r>
        <r>  0.0000  0.1320  0.0093 </r>
       </set>
       <set comment="band 22">
        <r>  0.4302  0.1229  0.0391 </r>
        <r>  0.0009  0.0107  0.0090 </r>
       </set>
       <set comment="band 23">
        <r>  0.0018  0.0020  0.0342 </r>
        <r>  0.0062  0.1037  0.1037 </r>
       </set>
       <set comment="band 24">
        <r>  0.0000  0.0023  0.0401 </r>
        <r>  0.0000  0.0004  0.0767 </r>
       </set>
       <set comment="band 25">
        <r>  0.0000  0.0000  0.0042 </r>
        <r>  0.0000  0.0853  0.0436 </r>
       </set>
       <set comment="band 26">
        <r>  0.0005  0.0017  0.0207 </r>
        <r>  0.0183  0.0501  0.1135 </r>
       </set>
       <set comment="band 27">
        <r>  0.0000  0.0010  0.0228 </r>
        <r>  0.0156  0.0835  0.0263 </r>
       </set>
       <set comment="band 28">
        <r>  0.0012  0.0022  0.0256 </r>
        <r>  0.0025  0.0287  0.0891 </r>
       </set>
      </set>
      <set comment="kpoint 35">
       <set comment="band 1">
        <r>  0.9926  0.0000  0.0000 </r>
        <r>  0.0000  0.0000  0.0000 </r>
       </set>
       <set comment="band 2">
        <r>  0.0000  0.9378  0.0000 </r>
        <r>  0.0000  0.0003  0.0019 </r>
       </set>
       <set comment="band 3">
        <r>  0.0000  0.9383  0.0001 </r>
        <r>  0.0000  0.0001  0.0022 </r>
       </set>
       <set comment="band 4">
        <r>  0.0000  0.9383  0.0001 </r>
        <r>  0.0000  0.0001  0.0022 </r>
       </set>
       <set comment="band 5">
        <r>  0.0002  0.0052  0.0007 </r>
        <r>  0.0000  0.0000  0.9664 </r>
       </set>
       <set comment="band 6">
        <r>  0.0000  0.0058  0.0002 </r>
        <r>  0.0000  0.0000  0.9676 </r>
       </set>
       <set comment="band 7">
        <r>  0.0000  0.0058  0.0002 </r>
        <r>  0.0000  0.0000  0.9676 </r>
       </set>
       <set comment="band 8">
        <r>  0.0000  0.0000  0.0001 </r>
        <r>  0.0000  0.0001  0.9818 </r>
       </set>
       <set comment="band 9">
        <r>  0.0000  0.0000  0.0001 </r>
        <r>  0.0000  0.0001  0.9818 </r>
       </set>
       <set comment="band 10">
        <r>  0.0001  0.0046  0.2466 </r>
        <r>  0.1263  0.0947  0.0008 </r>
       </set>
       <set comment="band 11">
        <r>  0.0000  0.0014  0.3108 </r>
        <r>  0.0000  0.1376  0.0016 </r>
       </set>
       <set comment="band 12">
        <r>  0.0000  0.0014  0.3108 </r>
        <r>  0.0000  0.1376  0.0016 </r>
       </set>
       <set comment="band 13">
        <r>  0.0001  0.0010  0.0549 </r>
        <r>  0.4676  0.0488  0.0001 </r>
       </set>
       <set comment="band 14">
        <r>  0.0000  0.0938  0.4513 </r>
        <r>  0.0000  0.0013  0.0339 </r>
       </set>
       <set comment="band 15">
        <r>  0.0000  0.0938  0.4513 </r>
        <r>  0.0000  0.0013  0.0339 </r>
       </set>
       <set comment="band 16">
        <r>  0.0531  0.1595  0.0659 </r>
        <r>  0.0005  0.0123  0.0688 </r>
       </set>
       <set comment="band 17">
        <r>  0.0000  0.1078  0.4695 </r>
        <r>  0.0000  0.0057  0.0413 </r>
       </set>
       <set comment="band 18">
        <r>  0.0000  0.1078  0.4695 </r>
        <r>  0.0000  0.0057  0.0413 </r>
       </set>
       <set comment="band 19">
        <r>  0.1006  0.0028  0.4630 </r>
        <r>  0.0045  0.1643  0.0022 </r>
       </set>
       <set comment="band 20">
        <r>  0.0000  0.0077  0.5487 </r>
        <r>  0.0000  0.1859  0.0025 </r>
       </set>
       <set comment="band 21">
        <r>  0.0000  0.0077  0.5487 </r>
        <r>  0.0000  0.1859  0.0025 </r>
       </set>
       <set comment="band 22">
        <r>  0.5613  0.0493  0.0477 </r>
        <r>  0.0006  0.0184  0.0036 </r>
       </set>
       <set comment="band 23">
        <r>  0.0000  0.0015  0.0046 </r>
        <r>  0.0000  0.0265  0.0814 </r>
       </set>
       <set comment="band 24">
        <r>  0.0000  0.0015  0.0046 </r>
        <r>  0.0000  0.0267  0.0813 </r>
       </set>
       <set comment="band 25">
        <r>  0.0000  0.0000  0.0000 </r>
        <r>  0.0000  0.0000  0.0000 </r>
       </set>
       <set comment="band 26">
        <r>  0.0000  0.0014  0.0025 </r>
        <r>  0.0000  0.1081  0.0873 </r>
       </set>
       <set comment="band 27">
        <r>  0.0001  0.0028  0.0103 </r>
        <r>  0.0009  0.0584  0.0994 </r>
       </set>
       <set comment="band 28">
        <r>  0.0001  0.0014  0.0058 </r>
        <r>  0.0151  0.0696  0.0849 </r>
       </set>
      </set>
     </set>
    </set>
   </array>
  </projected>
 </calculation>
 <structure name="finalpos" >
  <crystal>
   <varray name="basis" >
    <v>       3.65065514      -0.00000000       0.00000000 </v>
    <v>      -0.00000000       3.65065514      -0.00000000 </v>
    <v>       0.00000000      -0.00000000       3.65065514 </v>
   </varray>
   <i name="volume">     48.65331391 </i>
   <varray name="rec_basis" >
    <v>       0.27392344       0.00000000      -0.00000000 </v>
    <v>       0.00000000       0.27392344       0.00000000 </v>
    <v>      -0.00000000       0.00000000       0.27392344 </v>
   </varray>
  </crystal>
  <varray name="positions" >
   <v>       0.00000000       0.00000000       0.00000000 </v>
   <v>       0.50000000       0.50000000       0.50000000 </v>
  </varray>
 </structure>
</modeling>
