 vasp.6.5.1 10Mar25 (build May 13 2025 11:33:44) complex                         
 executed on              LinuxNV date 2026.05.16  18:47:57
 running    2 mpi-ranks, on    1 nodes
 distrk:  each k-point on    1 cores,    2 groups
 distr:  one band on NCORE=   1 cores,    1 groups
 Offloading initialized ...    2 GPUs detected


--------------------------------------------------------------------------------------------------------


 INCAR:
   ALGO = Normal
   PREC = Normal
   LREAL = False
   EDIFF = 1e-07
   ENCUT = 400.0
   LASPH = True
   NELM = 100
   ISIF = 3
   IBRION = 2
   EDIFFG = -0.005
   NSW = 300
   ISMEAR = 0
   SIGMA = 0.1
   LWAVE = False
   LCHARG = False
   LORBIT = 10
   GGA = Ps
   KPAR = 4

 POTCAR:    PAW_PBE Zn 06Sep2000                  
 POTCAR:    PAW_PBE Zn 06Sep2000                  
   SHA256 =  501fddbd8274dd8e9725d4f3de27861d7f1e553a7e18441bc79fed8f346e7f23 Zn/POTCAR             
   COPYR  = (c) Copyright 06Sep2000 Georg Kresse                                                    
   COPYR  = This file is part of the software VASP. Any use, copying, and all other rights are regul
   COPYR  = If you do not have a valid VASP license, you may not use, copy or distribute this file. 
   VRHFIN =Zn: d10 p2                                                                               
   LEXCH  = PE                                                                                      
   EATOM  =  1748.8345 eV,  128.5357 Ry                                                             
                                                                                                    
   TITEL  = PAW_PBE Zn 06Sep2000                                                                    
   LULTRA =        F    use ultrasoft PP ?                                                          
   IUNSCR =        1    unscreen: 0-lin 1-nonlin 2-no                                               
   RPACOR =    2.000    partial core radius                                                         
   POMASS =   65.390; ZVAL   =   12.000    mass and valenz                                          
   RCORE  =    2.300    outmost cutoff radius                                                       
   RWIGS  =    2.400; RWIGS  =    1.270    wigner-seitz radius (au A)                               
   ENMAX  =  276.723; ENMIN  =  207.542 eV                                                          
   RCLOC  =    1.828    cutoff for local pot                                                        
   LCOR   =        T    correct aug charges                                                         
   LPAW   =        T    paw PP                                                                      
   EAUG   =  575.892                                                                                
   DEXC   =    0.000                                                                                
   RMAX   =    2.347    core radius for proj-oper                                                   
   RAUG   =    1.300    factor for augmentation sphere                                              
   RDEP   =    2.324    radius for radial grids                                                     
   RDEPT  =    1.788    core radius for aug-charge                                                  
                                                                                                    
   Atomic configuration                                                                             
    9 entries                                                                                       
     n  l   j            E        occ.                                                              
     1  0  0.50     -9524.6913   2.0000                                                             
     2  0  0.50     -1158.1882   2.0000                                                             
     2  1  1.50     -1003.8506   6.0000                                                             
     3  0  0.50      -129.2194   2.0000                                                             
     3  1  1.50       -83.3890   6.0000                                                             
     3  2  2.50       -10.1410  10.0000                                                             
     4  0  0.50        -5.9785   2.0000                                                             
     4  1  0.50        -4.0817   0.0000                                                             
     4  3  2.50        -1.3606   0.0000                                                             
   Description                                                                                      
     l       E           TYP  RCUT    TYP  RCUT                                                     
     2    -10.1410010     23  2.300                                                                 
     2    -11.5015836     23  2.300                                                                 
     0     -5.9785163     23  2.300                                                                 
     0      1.1858015     23  2.300                                                                 
     1     -2.7211652     23  2.300                                                                 
     1     13.2444212     23  2.300                                                                 
  local pseudopotential read in
  partial core-charges read in
  partial kinetic energy density read in
  atomic valenz-charges read in
  non local Contribution for L=            2  read in
    real space projection operators read in
  non local Contribution for L=            2  read in
    real space projection operators read in
  non local Contribution for L=            0  read in
    real space projection operators read in
  non local Contribution for L=            0  read in
    real space projection operators read in
  non local Contribution for L=            1  read in
    real space projection operators read in
  non local Contribution for L=            1  read in
    real space projection operators read in
    PAW grid and wavefunctions read in
 
   number of l-projection  operators is LMAX  =            6
   number of lm-projection operators is LMMAX =           18
 
 -----------------------------------------------------------------------------
|                                                                             |
|               ----> ADVICE to this user running VASP <----                  |
|                                                                             |
|     You enforced a specific xc type in the INCAR file but a different       |
|     type was found in the POTCAR file.                                      |
|     I HOPE YOU KNOW WHAT YOU ARE DOING!                                     |
|                                                                             |
 -----------------------------------------------------------------------------

  PAW_PBE Zn 06Sep2000                  :
 energy of atom  1       EATOM=-1748.8345
 kinetic energy error for atom=    0.0107 (will be added to EATOM!!)
 
 
 POSCAR: Zn2
  positions in direct lattice
  No initial velocities read in


 exchange-correlation table for PS
   RHO(1)=    0.500       N(1)  =     2000
   RHO(2)=  100.500       N(2)  =     4000
 


--------------------------------------------------------------------------------------------------------


 ion  position               nearest neighbor table
   1  0.333  0.667  0.250-   2 2.87   2 2.87   2 2.87   2 2.87   2 2.87   2 2.87
   2  0.667  0.333  0.750-   1 2.87   1 2.87   1 2.87   1 2.87   1 2.87   1 2.87
 
  LATTYP: Found a hexagonal cell.
 ALAT       =     2.6143598013
 C/A-ratio  =     1.8639978390
  
  Lattice vectors:
  
 A1 = (   2.6143598013,   0.0000000000,   0.0000000000)
 A2 = (  -1.3071799007,   2.2641020026,   0.0000000000)
 A3 = (   0.0000000000,   0.0000000000,   4.8731610200)


Analysis of symmetry for initial positions (statically):
=====================================================================
 Subroutine PRICEL returns:
 Original cell was already a primitive cell.
 

 Routine SETGRP: Setting up the symmetry group for a 
 hexagonal supercell.


 Subroutine GETGRP returns: Found 24 space group operations
 (whereof 12 operations were pure point group operations)
 out of a pool of 24 trial point group operations.


The static configuration has the point symmetry D_3d.
 The point group associated with its full space group is D_6h.


Analysis of symmetry for dynamics (positions and initial velocities):
=====================================================================
 Subroutine PRICEL returns:
 Original cell was already a primitive cell.
 

 Routine SETGRP: Setting up the symmetry group for a 
 hexagonal supercell.


 Subroutine GETGRP returns: Found 24 space group operations
 (whereof 12 operations were pure point group operations)
 out of a pool of 24 trial point group operations.


The dynamic configuration has the point symmetry D_3d.
 The point group associated with its full space group is D_6h.


 Subroutine INISYM returns: Found 24 space group operations
 (whereof 12 operations are pure point group operations),
 and found     1 'primitive' translations


----------------------------------------------------------------------------------------

                                     Primitive cell                                     

  volume of cell :      28.8451

  direct lattice vectors                    reciprocal lattice vectors
     2.614359801  0.000000000  0.000000000     0.382502821  0.220838107 -0.000000000
    -1.307179901  2.264102003  0.000000000     0.000000000  0.441676214  0.000000000
     0.000000000  0.000000000  4.873161020     0.000000000 -0.000000000  0.205205614

  length of vectors
     2.614359801  2.614359801  4.873161020     0.441676214  0.441676214  0.205205614

  position of ions in fractional coordinates (direct lattice)
     0.333333333  0.666666667  0.250000000
     0.666666667  0.333333333  0.750000000

  ion indices of the primitive-cell ions
   primitive index   ion index
                 1           1
                 2           2

----------------------------------------------------------------------------------------

 
 
 KPOINTS: Num irrep kpoints: 96                   

Automatic generation of k-mesh.
 Grid dimensions read from file:
 generate k-points for:   14   14    7

 Generating k-lattice:

  Cartesian coordinates                     Fractional coordinates (reciprocal lattice)
     0.027321630  0.015774150 -0.000000000     0.071428571  0.000000000  0.000000000
     0.000000000  0.031548301  0.000000000     0.000000000  0.071428571  0.000000000
     0.000000000 -0.000000000  0.029315088     0.000000000  0.000000000  0.142857143

  Length of vectors
     0.031548301  0.031548301  0.029315088

  Shift w.r.t. Gamma in fractional coordinates (k-lattice)
     0.000000000  0.000000000  0.000000000

 
 Subroutine IBZKPT returns following result:
 ===========================================
 
 Found     96 irreducible k-points:
 
 Following reciprocal coordinates:
            Coordinates               Weight
  0.000000  0.000000  0.000000      1.000000
  0.071429  0.000000  0.000000      6.000000
  0.142857  0.000000  0.000000      6.000000
  0.214286  0.000000  0.000000      6.000000
  0.285714  0.000000  0.000000      6.000000
  0.357143  0.000000  0.000000      6.000000
  0.428571  0.000000  0.000000      6.000000
  0.500000  0.000000  0.000000      3.000000
  0.071429  0.071429  0.000000      6.000000
  0.142857  0.071429  0.000000     12.000000
  0.214286  0.071429  0.000000     12.000000
  0.285714  0.071429  0.000000     12.000000
  0.357143  0.071429  0.000000     12.000000
  0.428571  0.071429  0.000000     12.000000
  0.142857  0.142857  0.000000      6.000000
  0.214286  0.142857  0.000000     12.000000
  0.285714  0.142857  0.000000     12.000000
  0.357143  0.142857  0.000000     12.000000
  0.428571  0.142857  0.000000      6.000000
  0.214286  0.214286  0.000000      6.000000
  0.285714  0.214286  0.000000     12.000000
  0.357143  0.214286  0.000000     12.000000
  0.285714  0.285714  0.000000      6.000000
  0.357143  0.285714  0.000000      6.000000
  0.000000  0.000000  0.142857      2.000000
  0.071429  0.000000  0.142857     12.000000
  0.142857  0.000000  0.142857     12.000000
  0.214286  0.000000  0.142857     12.000000
  0.285714  0.000000  0.142857     12.000000
  0.357143  0.000000  0.142857     12.000000
  0.428571  0.000000  0.142857     12.000000
  0.500000  0.000000  0.142857      6.000000
  0.071429  0.071429  0.142857     12.000000
  0.142857  0.071429  0.142857     24.000000
  0.214286  0.071429  0.142857     24.000000
  0.285714  0.071429  0.142857     24.000000
  0.357143  0.071429  0.142857     24.000000
  0.428571  0.071429  0.142857     24.000000
  0.142857  0.142857  0.142857     12.000000
  0.214286  0.142857  0.142857     24.000000
  0.285714  0.142857  0.142857     24.000000
  0.357143  0.142857  0.142857     24.000000
  0.428571  0.142857  0.142857     12.000000
  0.214286  0.214286  0.142857     12.000000
  0.285714  0.214286  0.142857     24.000000
  0.357143  0.214286  0.142857     24.000000
  0.285714  0.285714  0.142857     12.000000
  0.357143  0.285714  0.142857     12.000000
  0.000000  0.000000  0.285714      2.000000
  0.071429  0.000000  0.285714     12.000000
  0.142857  0.000000  0.285714     12.000000
  0.214286  0.000000  0.285714     12.000000
  0.285714  0.000000  0.285714     12.000000
  0.357143  0.000000  0.285714     12.000000
  0.428571  0.000000  0.285714     12.000000
  0.500000  0.000000  0.285714      6.000000
  0.071429  0.071429  0.285714     12.000000
  0.142857  0.071429  0.285714     24.000000
  0.214286  0.071429  0.285714     24.000000
  0.285714  0.071429  0.285714     24.000000
  0.357143  0.071429  0.285714     24.000000
  0.428571  0.071429  0.285714     24.000000
  0.142857  0.142857  0.285714     12.000000
  0.214286  0.142857  0.285714     24.000000
  0.285714  0.142857  0.285714     24.000000
  0.357143  0.142857  0.285714     24.000000
  0.428571  0.142857  0.285714     12.000000
  0.214286  0.214286  0.285714     12.000000
  0.285714  0.214286  0.285714     24.000000
  0.357143  0.214286  0.285714     24.000000
  0.285714  0.285714  0.285714     12.000000
  0.357143  0.285714  0.285714     12.000000
  0.000000  0.000000  0.428571      2.000000
  0.071429  0.000000  0.428571     12.000000
  0.142857  0.000000  0.428571     12.000000
  0.214286  0.000000  0.428571     12.000000
  0.285714  0.000000  0.428571     12.000000
  0.357143  0.000000  0.428571     12.000000
  0.428571  0.000000  0.428571     12.000000
  0.500000  0.000000  0.428571      6.000000
  0.071429  0.071429  0.428571     12.000000
  0.142857  0.071429  0.428571     24.000000
  0.214286  0.071429  0.428571     24.000000
  0.285714  0.071429  0.428571     24.000000
  0.357143  0.071429  0.428571     24.000000
  0.428571  0.071429  0.428571     24.000000
  0.142857  0.142857  0.428571     12.000000
  0.214286  0.142857  0.428571     24.000000
  0.285714  0.142857  0.428571     24.000000
  0.357143  0.142857  0.428571     24.000000
  0.428571  0.142857  0.428571     12.000000
  0.214286  0.214286  0.428571     12.000000
  0.285714  0.214286  0.428571     24.000000
  0.357143  0.214286  0.428571     24.000000
  0.285714  0.285714  0.428571     12.000000
  0.357143  0.285714  0.428571     12.000000
 
 Following cartesian coordinates:
            Coordinates               Weight
  0.000000  0.000000  0.000000      1.000000
  0.027322  0.015774  0.000000      6.000000
  0.054643  0.031548  0.000000      6.000000
  0.081965  0.047322  0.000000      6.000000
  0.109287  0.063097  0.000000      6.000000
  0.136608  0.078871  0.000000      6.000000
  0.163930  0.094645  0.000000      6.000000
  0.191251  0.110419  0.000000      3.000000
  0.027322  0.047322  0.000000      6.000000
  0.054643  0.063097  0.000000     12.000000
  0.081965  0.078871  0.000000     12.000000
  0.109287  0.094645  0.000000     12.000000
  0.136608  0.110419  0.000000     12.000000
  0.163930  0.126193  0.000000     12.000000
  0.054643  0.094645  0.000000      6.000000
  0.081965  0.110419  0.000000     12.000000
  0.109287  0.126193  0.000000     12.000000
  0.136608  0.141967  0.000000     12.000000
  0.163930  0.157742  0.000000      6.000000
  0.081965  0.141967  0.000000      6.000000
  0.109287  0.157742  0.000000     12.000000
  0.136608  0.173516  0.000000     12.000000
  0.109287  0.189290  0.000000      6.000000
  0.136608  0.205064  0.000000      6.000000
  0.000000  0.000000  0.029315      2.000000
  0.027322  0.015774  0.029315     12.000000
  0.054643  0.031548  0.029315     12.000000
  0.081965  0.047322  0.029315     12.000000
  0.109287  0.063097  0.029315     12.000000
  0.136608  0.078871  0.029315     12.000000
  0.163930  0.094645  0.029315     12.000000
  0.191251  0.110419  0.029315      6.000000
  0.027322  0.047322  0.029315     12.000000
  0.054643  0.063097  0.029315     24.000000
  0.081965  0.078871  0.029315     24.000000
  0.109287  0.094645  0.029315     24.000000
  0.136608  0.110419  0.029315     24.000000
  0.163930  0.126193  0.029315     24.000000
  0.054643  0.094645  0.029315     12.000000
  0.081965  0.110419  0.029315     24.000000
  0.109287  0.126193  0.029315     24.000000
  0.136608  0.141967  0.029315     24.000000
  0.163930  0.157742  0.029315     12.000000
  0.081965  0.141967  0.029315     12.000000
  0.109287  0.157742  0.029315     24.000000
  0.136608  0.173516  0.029315     24.000000
  0.109287  0.189290  0.029315     12.000000
  0.136608  0.205064  0.029315     12.000000
  0.000000  0.000000  0.058630      2.000000
  0.027322  0.015774  0.058630     12.000000
  0.054643  0.031548  0.058630     12.000000
  0.081965  0.047322  0.058630     12.000000
  0.109287  0.063097  0.058630     12.000000
  0.136608  0.078871  0.058630     12.000000
  0.163930  0.094645  0.058630     12.000000
  0.191251  0.110419  0.058630      6.000000
  0.027322  0.047322  0.058630     12.000000
  0.054643  0.063097  0.058630     24.000000
  0.081965  0.078871  0.058630     24.000000
  0.109287  0.094645  0.058630     24.000000
  0.136608  0.110419  0.058630     24.000000
  0.163930  0.126193  0.058630     24.000000
  0.054643  0.094645  0.058630     12.000000
  0.081965  0.110419  0.058630     24.000000
  0.109287  0.126193  0.058630     24.000000
  0.136608  0.141967  0.058630     24.000000
  0.163930  0.157742  0.058630     12.000000
  0.081965  0.141967  0.058630     12.000000
  0.109287  0.157742  0.058630     24.000000
  0.136608  0.173516  0.058630     24.000000
  0.109287  0.189290  0.058630     12.000000
  0.136608  0.205064  0.058630     12.000000
  0.000000  0.000000  0.087945      2.000000
  0.027322  0.015774  0.087945     12.000000
  0.054643  0.031548  0.087945     12.000000
  0.081965  0.047322  0.087945     12.000000
  0.109287  0.063097  0.087945     12.000000
  0.136608  0.078871  0.087945     12.000000
  0.163930  0.094645  0.087945     12.000000
  0.191251  0.110419  0.087945      6.000000
  0.027322  0.047322  0.087945     12.000000
  0.054643  0.063097  0.087945     24.000000
  0.081965  0.078871  0.087945     24.000000
  0.109287  0.094645  0.087945     24.000000
  0.136608  0.110419  0.087945     24.000000
  0.163930  0.126193  0.087945     24.000000
  0.054643  0.094645  0.087945     12.000000
  0.081965  0.110419  0.087945     24.000000
  0.109287  0.126193  0.087945     24.000000
  0.136608  0.141967  0.087945     24.000000
  0.163930  0.157742  0.087945     12.000000
  0.081965  0.141967  0.087945     12.000000
  0.109287  0.157742  0.087945     24.000000
  0.136608  0.173516  0.087945     24.000000
  0.109287  0.189290  0.087945     12.000000
  0.136608  0.205064  0.087945     12.000000
 


--------------------------------------------------------------------------------------------------------




 Dimension of arrays:
   k-points           NKPTS =     96   k-points in BZ     NKDIM =     96   number of bands    NBANDS=     16
   number of dos      NEDOS =    301   number of ions     NIONS =      2
   non local maximal  LDIM  =      6   non local SUM 2l+1 LMDIM =     18
   total plane-waves  NPLWV =   4704
   max r-space proj   IRMAX =      1   max aug-charges    IRDMAX=   5060
   dimension x,y,z NGX =    14 NGY =   14 NGZ =   24
   dimension x,y,z NGXF=    28 NGYF=   28 NGZF=   48
   support grid    NGXF=    28 NGYF=   28 NGZF=   48
   ions per type =               2
   NGX,Y,Z   is equivalent  to a cutoff of   8.90,  8.90,  8.19 a.u.
   NGXF,Y,Z  is equivalent  to a cutoff of  17.81, 17.81, 16.38 a.u.

 SYSTEM =  unknown system                          
 POSCAR =  Zn2                                     

 Startparameter for this run:
   NWRITE =      2    write-flag & timer
   PREC   = normal    normal or accurate (medium, high low for compatibility)
   ISTART =      0    job   : 0-new  1-cont  2-samecut
   ICHARG =      2    charge: 1-file 2-atom 10-const
   ISPIN  =      1    spin polarized calculation?
   LNONCOLLINEAR =      F non collinear calculations
   LSORBIT =      F    spin-orbit coupling
   INIWAV =      1    electr: 0-lowe 1-rand  2-diag
   LASPH  =      T    aspherical Exc in radial PAW
 Electronic Relaxation 1
   ENCUT  =  400.0 eV  29.40 Ry    5.42 a.u.   4.26  4.26  7.95*2*pi/ulx,y,z
   ENINI  =  400.0     initial cutoff
   ENAUG  =  575.9 eV  augmentation charge cutoff
   NELM   =    100;   NELMIN=  2; NELMDL= -5     # of ELM steps 
   EDIFF  = 0.1E-06   stopping-criterion for ELM
   LREAL  =      F    real-space projection
   NLSPLINE    = F    spline interpolate recip. space projectors
   LCOMPAT=      F    compatible to vasp.4.4
   GGA_COMPAT  = T    GGA compatible to vasp.4.4-vasp.4.6
   LMAXPAW     = -100 max onsite density
   LMAXMIX     =    2 max onsite mixed and CHGCAR
   VOSKOWN=      0    Vosko Wilk Nusair interpolation
   ROPT   =    0.00000
 Ionic relaxation
   EDIFFG = -.5E-02   stopping-criterion for IOM
   NSW    =    300    number of steps for IOM
   NBLOCK =      1;   KBLOCK =    300    inner block; outer block 
   IBRION =      2    ionic relax: 0-MD 1-quasi-New 2-CG
   NFREE  =      1    steps in history (QN), initial steepest desc. (CG)
   ISIF   =      3    stress and relaxation
   IWAVPR =     11    prediction:  0-non 1-charg 2-wave 3-comb
   ISYM   =      2    0-nonsym 1-usesym 2-fastsym
   LCORR  =      T    Harris-Foulkes like correction to forces

   POTIM  = 0.5000    time-step for ionic-motion
   TEIN   =    0.0    initial temperature
   TEBEG  =    0.0;   TEEND  =   0.0 temperature during run
   SMASS  =  -3.00    Nose mass-parameter (am)
   estimated Nose-frequenzy (Omega)   =  0.10E-29 period in steps = 0.13E+47 mass=  -0.156E-27a.u.
   SCALEE = 1.0000    scale energy and forces
   NPACO  =    256;   APACO  = 10.0  distance and # of slots for P.C.
   PSTRESS=    0.0 pullay stress

  Mass of Ions in am
   POMASS =  65.39
  Ionic Valenz
   ZVAL   =  12.00
  Atomic Wigner-Seitz radii
   RWIGS  =  -1.00
  virtual crystal weights 
   VCA    =   1.00
   NELECT =      24.0000    total number of electrons
   NUPDOWN=      -1.0000    fix difference up-down

 DOS related values:
   EMIN   =  10.00;   EMAX   =-10.00  energy-range for DOS
   EFERMI =   0.00;   METHOD = LEGACY      
   ISMEAR =     0;   SIGMA  =   0.10  broadening in eV -4-tet -1-fermi 0-gaus
   EFERMI_NEDOS =   21; number of points for ismear=-14 and -15

 Electronic relaxation 2 (details)
   IALGO  =     38    algorithm
   LDIAG  =      T    sub-space diagonalisation (order eigenvalues)
   LSUBROT=      F    optimize rotation matrix (better conditioning)
   LROBUST=      F    robust break criterion during scf (extrapolated energy error)
   ISEARCH=      0    line search for conjugate gradient (0, 1=use gradient)
   TURBO    =      0    0=normal 1=particle mesh
   IRESTART =      0    0=no restart 2=restart with 2 vectors
   NREBOOT  =      0    no. of reboots
   NMIN     =      0    reboot dimension
   EREF     =   0.00    reference energy to select bands
   IMIX   =      4    mixing-type and parameters
     AMIX     =   0.40;   BMIX     =  1.00
     AMIX_MAG =   1.60;   BMIX_MAG =  1.00
     AMIN     =   0.10
     WC   =   100.;   INIMIX=   1;  MIXPRE=   1;  MAXMIX= -45

 Intra band minimization:
   WEIMIN = 0.0010     energy-eigenvalue tresh-hold
   EBREAK =  0.16E-08  absolut break condition
   DEPER  =   0.30     relativ break condition  

   TIME   =   0.40     timestep for ELM

  volume/ion in A,a.u.               =      14.42        97.33
  Fermi-wavevector in a.u.,A,eV,Ry     =   1.539765  2.909735 32.257744  2.370877
  Thomas-Fermi vector in A             =   2.645947
 
 Write flags
   LWAVE        =      F    write WAVECAR
   LDOWNSAMPLE  =      F    k-point downsampling of WAVECAR
   LCHARG       =      F    write CHGCAR
   LVTOT        =      F    write LOCPOT, total local potential
   LVHAR        =      F    write LOCPOT, Hartree potential only
   WRT_POTENTIAL= false  ! write potential to hdf5 file
   LELF         =      F    write electronic localiz. function (ELF)
   LORBIT       =     10    0 simple, 1 ext, 2 COOP (PROOUT), +10 PAW based schemes


 Python interface
   PLUGINS active      =      F    recompile with -DPLUGINS to activate
 
 Dipole corrections
   LMONO      =      F    monopole corrections only (constant potential shift)
   LDIPOL     =      F    correct potential (dipole corrections)
   IDIPOL     =      0    1-x, 2-y, 3-z, 4-all directions 
   EPSILON    =  1.0000000 bulk dielectric constant
   LVACPOTAV  =      F  vacuum potentials using an averaging scheme for the charge density
   VACPOTFLAT =  0.1000000 required flatness to determine vacuum potential
 
Coulomb truncation method
  LTRUNCATE          =      F  Coulomb kernel truncation to be used

 
 Exchange correlation treatment:
   GGA     = PS    functional components
   XC_C    = 1    coefficients multiplying the functional components
   LIBXC   =     F    Libxc                    
   VOSKOWN =     0    Vosko Wilk Nusair interpolation
   LHFCALC =     F    Hartree Fock is set to
   LHFONE  =     F    Hartree Fock one center treatment
   AEXX    =    0.0000 exact exchange contribution

 Parameters of functionals:
   PS:
     No parameter
 
 Van der Waals corrections
   IVDW    =     0    specifies the selected vdW correction

 Linear response parameters
   LEPSILON=     F    determine dielectric tensor
   LRPA    =     F    only Hartree local field effects (RPA)
   LNABLA  =     F    use nabla operator in PAW spheres
   LVEL    =     F    velocity operator in full k-point grid
   CSHIFT  =0.1000    complex shift for real part using Kramers Kronig
   OMEGAMAX=  -1.0    maximum frequency
   DEG_THRESHOLD= 0.2000000E-02 threshold for treating states as degnerate
   RTIME   =   -0.100 relaxation time in fs
  (WPLASMAI=    0.000 imaginary part of plasma frequency in eV, 0.658/RTIME)
   DFIELD  = 0.0000000 0.0000000 0.0000000 field for delta impulse in time
 
  Optional k-point grid parameters
   LKPOINTS_OPT  =     F    use optional k-point grid
   KPOINTS_OPT_MODE=     1    mode for optional k-point grid
 
 Orbital magnetization related:
   ORBITALMAG=     F  switch on orbital magnetization
   LCHIMAG   =     F  perturbation theory with respect to B field
   DQ        =  0.001000  dq finite difference perturbation B field
   LLRAUG    =     F  two centre corrections for induced B field
   LBONE     =     F  B-component reconstruction in AE one-centre
   LVGVCALC  =     T  calculate vGv susceptibility
   LVGVAPPL  =     F  apply vGv susceptibility instead of pGv for G=0

 Random number generation:
   RANDOM_GENERATOR = DEFAULT
   PCG_SEED         = not used


--------------------------------------------------------------------------------------------------------


 conjugate gradient relaxation of ions
 charge density and potential will be updated during run
 non-spin polarized calculation
 Variant of blocked Davidson
 Davidson routine will perform the subspace rotation
 perform sub-space diagonalisation
    after iterative eigenvector-optimisation
 modified Broyden-mixing scheme, WC =      100.0
 initial mixing is a Kerker type mixing with AMIX =  0.4000 and BMIX =      1.0000
 Hartree-type preconditioning will be used
 using additional bands             4
 reciprocal scheme for non local part
 use partial core corrections
 calculate Harris-corrections to forces 
   (improved forces if not selfconsistent)
 use gradient corrections 
 use of overlap-Matrix (Vanderbilt PP)
 Gauss-broadening in eV      SIGMA  =   0.10


--------------------------------------------------------------------------------------------------------


  energy-cutoff  :      400.00
  volume of cell :       28.85
      direct lattice vectors                 reciprocal lattice vectors
     2.614359801  0.000000000  0.000000000     0.382502821  0.220838107 -0.000000000
    -1.307179901  2.264102003  0.000000000     0.000000000  0.441676214  0.000000000
     0.000000000  0.000000000  4.873161020     0.000000000 -0.000000000  0.205205614

  length of vectors
     2.614359801  2.614359801  4.873161020     0.441676214  0.441676214  0.205205614


 
 k-points in units of 2pi/SCALE and weight: Num irrep kpoints: 96                   
   0.00000000  0.00000000  0.00000000       0.001
   0.02732163  0.01577415  0.00000000       0.004
   0.05464326  0.03154830  0.00000000       0.004
   0.08196489  0.04732245  0.00000000       0.004
   0.10928652  0.06309660  0.00000000       0.004
   0.13660815  0.07887075  0.00000000       0.004
   0.16392978  0.09464490  0.00000000       0.004
   0.19125141  0.11041905  0.00000000       0.002
   0.02732163  0.04732245  0.00000000       0.004
   0.05464326  0.06309660  0.00000000       0.009
   0.08196489  0.07887075  0.00000000       0.009
   0.10928652  0.09464490  0.00000000       0.009
   0.13660815  0.11041905  0.00000000       0.009
   0.16392978  0.12619320  0.00000000       0.009
   0.05464326  0.09464490  0.00000000       0.004
   0.08196489  0.11041905  0.00000000       0.009
   0.10928652  0.12619320  0.00000000       0.009
   0.13660815  0.14196735  0.00000000       0.009
   0.16392978  0.15774150  0.00000000       0.004
   0.08196489  0.14196735  0.00000000       0.004
   0.10928652  0.15774150  0.00000000       0.009
   0.13660815  0.17351566  0.00000000       0.009
   0.10928652  0.18928981  0.00000000       0.004
   0.13660815  0.20506396  0.00000000       0.004
   0.00000000  0.00000000  0.02931509       0.001
   0.02732163  0.01577415  0.02931509       0.009
   0.05464326  0.03154830  0.02931509       0.009
   0.08196489  0.04732245  0.02931509       0.009
   0.10928652  0.06309660  0.02931509       0.009
   0.13660815  0.07887075  0.02931509       0.009
   0.16392978  0.09464490  0.02931509       0.009
   0.19125141  0.11041905  0.02931509       0.004
   0.02732163  0.04732245  0.02931509       0.009
   0.05464326  0.06309660  0.02931509       0.017
   0.08196489  0.07887075  0.02931509       0.017
   0.10928652  0.09464490  0.02931509       0.017
   0.13660815  0.11041905  0.02931509       0.017
   0.16392978  0.12619320  0.02931509       0.017
   0.05464326  0.09464490  0.02931509       0.009
   0.08196489  0.11041905  0.02931509       0.017
   0.10928652  0.12619320  0.02931509       0.017
   0.13660815  0.14196735  0.02931509       0.017
   0.16392978  0.15774150  0.02931509       0.009
   0.08196489  0.14196735  0.02931509       0.009
   0.10928652  0.15774150  0.02931509       0.017
   0.13660815  0.17351566  0.02931509       0.017
   0.10928652  0.18928981  0.02931509       0.009
   0.13660815  0.20506396  0.02931509       0.009
   0.00000000  0.00000000  0.05863018       0.001
   0.02732163  0.01577415  0.05863018       0.009
   0.05464326  0.03154830  0.05863018       0.009
   0.08196489  0.04732245  0.05863018       0.009
   0.10928652  0.06309660  0.05863018       0.009
   0.13660815  0.07887075  0.05863018       0.009
   0.16392978  0.09464490  0.05863018       0.009
   0.19125141  0.11041905  0.05863018       0.004
   0.02732163  0.04732245  0.05863018       0.009
   0.05464326  0.06309660  0.05863018       0.017
   0.08196489  0.07887075  0.05863018       0.017
   0.10928652  0.09464490  0.05863018       0.017
   0.13660815  0.11041905  0.05863018       0.017
   0.16392978  0.12619320  0.05863018       0.017
   0.05464326  0.09464490  0.05863018       0.009
   0.08196489  0.11041905  0.05863018       0.017
   0.10928652  0.12619320  0.05863018       0.017
   0.13660815  0.14196735  0.05863018       0.017
   0.16392978  0.15774150  0.05863018       0.009
   0.08196489  0.14196735  0.05863018       0.009
   0.10928652  0.15774150  0.05863018       0.017
   0.13660815  0.17351566  0.05863018       0.017
   0.10928652  0.18928981  0.05863018       0.009
   0.13660815  0.20506396  0.05863018       0.009
   0.00000000  0.00000000  0.08794526       0.001
   0.02732163  0.01577415  0.08794526       0.009
   0.05464326  0.03154830  0.08794526       0.009
   0.08196489  0.04732245  0.08794526       0.009
   0.10928652  0.06309660  0.08794526       0.009
   0.13660815  0.07887075  0.08794526       0.009
   0.16392978  0.09464490  0.08794526       0.009
   0.19125141  0.11041905  0.08794526       0.004
   0.02732163  0.04732245  0.08794526       0.009
   0.05464326  0.06309660  0.08794526       0.017
   0.08196489  0.07887075  0.08794526       0.017
   0.10928652  0.09464490  0.08794526       0.017
   0.13660815  0.11041905  0.08794526       0.017
   0.16392978  0.12619320  0.08794526       0.017
   0.05464326  0.09464490  0.08794526       0.009
   0.08196489  0.11041905  0.08794526       0.017
   0.10928652  0.12619320  0.08794526       0.017
   0.13660815  0.14196735  0.08794526       0.017
   0.16392978  0.15774150  0.08794526       0.009
   0.08196489  0.14196735  0.08794526       0.009
   0.10928652  0.15774150  0.08794526       0.017
   0.13660815  0.17351566  0.08794526       0.017
   0.10928652  0.18928981  0.08794526       0.009
   0.13660815  0.20506396  0.08794526       0.009
 
 k-points in reciprocal lattice and weights: Num irrep kpoints: 96                   
   0.00000000  0.00000000  0.00000000       0.001
   0.07142857  0.00000000  0.00000000       0.004
   0.14285714  0.00000000  0.00000000       0.004
   0.21428571  0.00000000  0.00000000       0.004
   0.28571429  0.00000000  0.00000000       0.004
   0.35714286  0.00000000  0.00000000       0.004
   0.42857143  0.00000000  0.00000000       0.004
   0.50000000  0.00000000  0.00000000       0.002
   0.07142857  0.07142857  0.00000000       0.004
   0.14285714  0.07142857  0.00000000       0.009
   0.21428571  0.07142857  0.00000000       0.009
   0.28571429  0.07142857  0.00000000       0.009
   0.35714286  0.07142857  0.00000000       0.009
   0.42857143  0.07142857  0.00000000       0.009
   0.14285714  0.14285714  0.00000000       0.004
   0.21428571  0.14285714  0.00000000       0.009
   0.28571429  0.14285714  0.00000000       0.009
   0.35714286  0.14285714  0.00000000       0.009
   0.42857143  0.14285714  0.00000000       0.004
   0.21428571  0.21428571  0.00000000       0.004
   0.28571429  0.21428571  0.00000000       0.009
   0.35714286  0.21428571  0.00000000       0.009
   0.28571429  0.28571429  0.00000000       0.004
   0.35714286  0.28571429  0.00000000       0.004
   0.00000000  0.00000000  0.14285714       0.001
   0.07142857  0.00000000  0.14285714       0.009
   0.14285714  0.00000000  0.14285714       0.009
   0.21428571  0.00000000  0.14285714       0.009
   0.28571429  0.00000000  0.14285714       0.009
   0.35714286  0.00000000  0.14285714       0.009
   0.42857143  0.00000000  0.14285714       0.009
   0.50000000  0.00000000  0.14285714       0.004
   0.07142857  0.07142857  0.14285714       0.009
   0.14285714  0.07142857  0.14285714       0.017
   0.21428571  0.07142857  0.14285714       0.017
   0.28571429  0.07142857  0.14285714       0.017
   0.35714286  0.07142857  0.14285714       0.017
   0.42857143  0.07142857  0.14285714       0.017
   0.14285714  0.14285714  0.14285714       0.009
   0.21428571  0.14285714  0.14285714       0.017
   0.28571429  0.14285714  0.14285714       0.017
   0.35714286  0.14285714  0.14285714       0.017
   0.42857143  0.14285714  0.14285714       0.009
   0.21428571  0.21428571  0.14285714       0.009
   0.28571429  0.21428571  0.14285714       0.017
   0.35714286  0.21428571  0.14285714       0.017
   0.28571429  0.28571429  0.14285714       0.009
   0.35714286  0.28571429  0.14285714       0.009
   0.00000000  0.00000000  0.28571429       0.001
   0.07142857  0.00000000  0.28571429       0.009
   0.14285714  0.00000000  0.28571429       0.009
   0.21428571  0.00000000  0.28571429       0.009
   0.28571429  0.00000000  0.28571429       0.009
   0.35714286  0.00000000  0.28571429       0.009
   0.42857143  0.00000000  0.28571429       0.009
   0.50000000  0.00000000  0.28571429       0.004
   0.07142857  0.07142857  0.28571429       0.009
   0.14285714  0.07142857  0.28571429       0.017
   0.21428571  0.07142857  0.28571429       0.017
   0.28571429  0.07142857  0.28571429       0.017
   0.35714286  0.07142857  0.28571429       0.017
   0.42857143  0.07142857  0.28571429       0.017
   0.14285714  0.14285714  0.28571429       0.009
   0.21428571  0.14285714  0.28571429       0.017
   0.28571429  0.14285714  0.28571429       0.017
   0.35714286  0.14285714  0.28571429       0.017
   0.42857143  0.14285714  0.28571429       0.009
   0.21428571  0.21428571  0.28571429       0.009
   0.28571429  0.21428571  0.28571429       0.017
   0.35714286  0.21428571  0.28571429       0.017
   0.28571429  0.28571429  0.28571429       0.009
   0.35714286  0.28571429  0.28571429       0.009
   0.00000000  0.00000000  0.42857143       0.001
   0.07142857  0.00000000  0.42857143       0.009
   0.14285714  0.00000000  0.42857143       0.009
   0.21428571  0.00000000  0.42857143       0.009
   0.28571429  0.00000000  0.42857143       0.009
   0.35714286  0.00000000  0.42857143       0.009
   0.42857143  0.00000000  0.42857143       0.009
   0.50000000  0.00000000  0.42857143       0.004
   0.07142857  0.07142857  0.42857143       0.009
   0.14285714  0.07142857  0.42857143       0.017
   0.21428571  0.07142857  0.42857143       0.017
   0.28571429  0.07142857  0.42857143       0.017
   0.35714286  0.07142857  0.42857143       0.017
   0.42857143  0.07142857  0.42857143       0.017
   0.14285714  0.14285714  0.42857143       0.009
   0.21428571  0.14285714  0.42857143       0.017
   0.28571429  0.14285714  0.42857143       0.017
   0.35714286  0.14285714  0.42857143       0.017
   0.42857143  0.14285714  0.42857143       0.009
   0.21428571  0.21428571  0.42857143       0.009
   0.28571429  0.21428571  0.42857143       0.017
   0.35714286  0.21428571  0.42857143       0.017
   0.28571429  0.28571429  0.42857143       0.009
   0.35714286  0.28571429  0.42857143       0.009
 
 position of ions in fractional coordinates (direct lattice) 
   0.33333333  0.66666667  0.25000000
   0.66666667  0.33333333  0.75000000
 
 position of ions in cartesian coordinates  (Angst):
  -0.00000000  1.50940134  1.21829026
   1.30717990  0.75470067  3.65487077
 


--------------------------------------------------------------------------------------------------------


 k-point     1 :   0.0000 0.0000 0.0000  plane waves:     525
 k-point     2 :   0.0714 0.0000 0.0000  plane waves:     529
 k-point     3 :   0.1429 0.0000 0.0000  plane waves:     523
 k-point     4 :   0.2143 0.0000 0.0000  plane waves:     521
 k-point     5 :   0.2857 0.0000 0.0000  plane waves:     519
 k-point     6 :   0.3571 0.0000 0.0000  plane waves:     522
 k-point     7 :   0.4286 0.0000 0.0000  plane waves:     520
 k-point     8 :   0.5000 0.0000 0.0000  plane waves:     524
 k-point     9 :   0.0714 0.0714 0.0000  plane waves:     519
 k-point    10 :   0.1429 0.0714 0.0000  plane waves:     523
 k-point    11 :   0.2143 0.0714 0.0000  plane waves:     521
 k-point    12 :   0.2857 0.0714 0.0000  plane waves:     521
 k-point    13 :   0.3571 0.0714 0.0000  plane waves:     523
 k-point    14 :   0.4286 0.0714 0.0000  plane waves:     526
 k-point    15 :   0.1429 0.1429 0.0000  plane waves:     516
 k-point    16 :   0.2143 0.1429 0.0000  plane waves:     521
 k-point    17 :   0.2857 0.1429 0.0000  plane waves:     525
 k-point    18 :   0.3571 0.1429 0.0000  plane waves:     522
 k-point    19 :   0.4286 0.1429 0.0000  plane waves:     534
 k-point    20 :   0.2143 0.2143 0.0000  plane waves:     522
 k-point    21 :   0.2857 0.2143 0.0000  plane waves:     527
 k-point    22 :   0.3571 0.2143 0.0000  plane waves:     526
 k-point    23 :   0.2857 0.2857 0.0000  plane waves:     520
 k-point    24 :   0.3571 0.2857 0.0000  plane waves:     522
 k-point    25 :   0.0000 0.0000 0.1429  plane waves:     520
 k-point    26 :   0.0714 0.0000 0.1429  plane waves:     524
 k-point    27 :   0.1429 0.0000 0.1429  plane waves:     524
 k-point    28 :   0.2143 0.0000 0.1429  plane waves:     524
 k-point    29 :   0.2857 0.0000 0.1429  plane waves:     517
 k-point    30 :   0.3571 0.0000 0.1429  plane waves:     521
 k-point    31 :   0.4286 0.0000 0.1429  plane waves:     528
 k-point    32 :   0.5000 0.0000 0.1429  plane waves:     530
 k-point    33 :   0.0714 0.0714 0.1429  plane waves:     524
 k-point    34 :   0.1429 0.0714 0.1429  plane waves:     523
 k-point    35 :   0.2143 0.0714 0.1429  plane waves:     521
 k-point    36 :   0.2857 0.0714 0.1429  plane waves:     522
 k-point    37 :   0.3571 0.0714 0.1429  plane waves:     524
 k-point    38 :   0.4286 0.0714 0.1429  plane waves:     527
 k-point    39 :   0.1429 0.1429 0.1429  plane waves:     524
 k-point    40 :   0.2143 0.1429 0.1429  plane waves:     519
 k-point    41 :   0.2857 0.1429 0.1429  plane waves:     520
 k-point    42 :   0.3571 0.1429 0.1429  plane waves:     529
 k-point    43 :   0.4286 0.1429 0.1429  plane waves:     529
 k-point    44 :   0.2143 0.2143 0.1429  plane waves:     523
 k-point    45 :   0.2857 0.2143 0.1429  plane waves:     520
 k-point    46 :   0.3571 0.2143 0.1429  plane waves:     525
 k-point    47 :   0.2857 0.2857 0.1429  plane waves:     523
 k-point    48 :   0.3571 0.2857 0.1429  plane waves:     524
 k-point    49 :   0.0000 0.0000 0.2857  plane waves:     526
 k-point    50 :   0.0714 0.0000 0.2857  plane waves:     532
 k-point    51 :   0.1429 0.0000 0.2857  plane waves:     530
 k-point    52 :   0.2143 0.0000 0.2857  plane waves:     522
 k-point    53 :   0.2857 0.0000 0.2857  plane waves:     515
 k-point    54 :   0.3571 0.0000 0.2857  plane waves:     524
 k-point    55 :   0.4286 0.0000 0.2857  plane waves:     526
 k-point    56 :   0.5000 0.0000 0.2857  plane waves:     520
 k-point    57 :   0.0714 0.0714 0.2857  plane waves:     525
 k-point    58 :   0.1429 0.0714 0.2857  plane waves:     529
 k-point    59 :   0.2143 0.0714 0.2857  plane waves:     524
 k-point    60 :   0.2857 0.0714 0.2857  plane waves:     523
 k-point    61 :   0.3571 0.0714 0.2857  plane waves:     524
 k-point    62 :   0.4286 0.0714 0.2857  plane waves:     528
 k-point    63 :   0.1429 0.1429 0.2857  plane waves:     523
 k-point    64 :   0.2143 0.1429 0.2857  plane waves:     523
 k-point    65 :   0.2857 0.1429 0.2857  plane waves:     523
 k-point    66 :   0.3571 0.1429 0.2857  plane waves:     527
 k-point    67 :   0.4286 0.1429 0.2857  plane waves:     526
 k-point    68 :   0.2143 0.2143 0.2857  plane waves:     523
 k-point    69 :   0.2857 0.2143 0.2857  plane waves:     522
 k-point    70 :   0.3571 0.2143 0.2857  plane waves:     524
 k-point    71 :   0.2857 0.2857 0.2857  plane waves:     522
 k-point    72 :   0.3571 0.2857 0.2857  plane waves:     523
 k-point    73 :   0.0000 0.0000 0.4286  plane waves:     556
 k-point    74 :   0.0714 0.0000 0.4286  plane waves:     538
 k-point    75 :   0.1429 0.0000 0.4286  plane waves:     532
 k-point    76 :   0.2143 0.0000 0.4286  plane waves:     529
 k-point    77 :   0.2857 0.0000 0.4286  plane waves:     521
 k-point    78 :   0.3571 0.0000 0.4286  plane waves:     521
 k-point    79 :   0.4286 0.0000 0.4286  plane waves:     524
 k-point    80 :   0.5000 0.0000 0.4286  plane waves:     518
 k-point    81 :   0.0714 0.0714 0.4286  plane waves:     530
 k-point    82 :   0.1429 0.0714 0.4286  plane waves:     527
 k-point    83 :   0.2143 0.0714 0.4286  plane waves:     524
 k-point    84 :   0.2857 0.0714 0.4286  plane waves:     524
 k-point    85 :   0.3571 0.0714 0.4286  plane waves:     526
 k-point    86 :   0.4286 0.0714 0.4286  plane waves:     517
 k-point    87 :   0.1429 0.1429 0.4286  plane waves:     526
 k-point    88 :   0.2143 0.1429 0.4286  plane waves:     526
 k-point    89 :   0.2857 0.1429 0.4286  plane waves:     524
 k-point    90 :   0.3571 0.1429 0.4286  plane waves:     521
 k-point    91 :   0.4286 0.1429 0.4286  plane waves:     520
 k-point    92 :   0.2143 0.2143 0.4286  plane waves:     523
 k-point    93 :   0.2857 0.2143 0.4286  plane waves:     523
 k-point    94 :   0.3571 0.2143 0.4286  plane waves:     525
 k-point    95 :   0.2857 0.2857 0.4286  plane waves:     529
 k-point    96 :   0.3571 0.2857 0.4286  plane waves:     528

 maximum and minimum number of plane-waves per node :       556      515

 maximum number of plane-waves:       556
 maximum index in each direction: 
   IXMAX=    4   IYMAX=    4   IZMAX=    7
   IXMIN=   -4   IYMIN=   -4   IZMIN=   -8


 serial   3D FFT for wavefunctions
 parallel 3D FFT for charge:
    minimum data exchange during FFTs selected (reduces bandwidth)


 total amount of memory used by VASP MPI-rank0    55657. kBytes
=======================================================================

   base                                    :      30000. kBytes
   nonl-proj                               :       7703. kBytes
   fftplans                                :       1328. kBytes
   grid                                    :       2047. kBytes
   one-center                              :         31. kBytes
   wavefun                                 :      14548. kBytes
 
     INWAV:  cpu time      0.0000: real time      0.0000
 Broyden mixing: mesh for mixing (old mesh)
   NGX =  9   NGY =  9   NGZ = 15
  (NGX  = 28   NGY  = 28   NGZ  = 48)
  gives a total of   1215 points

 initial charge density was supplied:
 charge density of overlapping atoms calculated
 number of electron      24.0000000 magnetization 
 keeping initial charge density in first step


--------------------------------------------------------------------------------------------------------


 Maximum index for augmentation-charges          4728 (set IRDMAX)


--------------------------------------------------------------------------------------------------------


 First call to EWALD:  gamma=   0.578
 Maximum number of real-space cells   4x   4x   2
 Maximum number of reciprocal cells   2x   2x   4

    FEWALD:  cpu time      0.0008: real time      0.0008


--------------------------------------- Ionic step        1  -------------------------------------------




--------------------------------------- Iteration      1(   1)  ---------------------------------------


    POTLOK:  cpu time      0.0200: real time      0.0202
    SETDIJ:  cpu time      0.0564: real time      0.0565
     EDDAV:  cpu time      0.8347: real time      1.0884
       DOS:  cpu time      0.0008: real time      0.0008
    --------------------------------------------
      LOOP:  cpu time      0.9119: real time      1.1660

 eigenvalue-minimisations  :  3152
 total energy-change (2. order) : 0.8445099E+02  (-0.1106594E+04)
 number of electron      24.0000000 magnetization 
 augmentation part       24.0000000 magnetization 

 Free energy of the ion-electron system (eV)
  ---------------------------------------------------
  alpha Z        PSCENC =       219.48591142
  Ewald energy   TEWEN  =     -2453.45788843
  -Hartree energ DENC   =      -960.28995941
  -exchange      EXHF   =         0.00000000
  -V(xc)+E(xc)   XCENC  =       116.22012859
  PAW double counting   =      2908.83873918    -3264.32013482
  entropy T*S    EENTRO =        -0.00591439
  eigenvalues    EBANDS =        21.87956495
  atomic energy  EATOM  =      3496.10054737
  Solvation  Ediel_sol  =         0.00000000
  ---------------------------------------------------
  free energy    TOTEN  =        84.45099446 eV

  energy without entropy =       84.45690885  energy(sigma->0) =       84.45395165


--------------------------------------------------------------------------------------------------------




--------------------------------------- Iteration      1(   2)  ---------------------------------------


     EDDAV:  cpu time      0.6274: real time      0.6291
       DOS:  cpu time      0.0007: real time      0.0007
    --------------------------------------------
      LOOP:  cpu time      0.6281: real time      0.6298

 eigenvalue-minimisations  :  3168
 total energy-change (2. order) :-0.8571137E+02  (-0.8454303E+02)
 number of electron      24.0000000 magnetization 
 augmentation part       24.0000000 magnetization 

 Free energy of the ion-electron system (eV)
  ---------------------------------------------------
  alpha Z        PSCENC =       219.48591142
  Ewald energy   TEWEN  =     -2453.45788843
  -Hartree energ DENC   =      -960.28995941
  -exchange      EXHF   =         0.00000000
  -V(xc)+E(xc)   XCENC  =       116.22012859
  PAW double counting   =      2908.83873918    -3264.32013482
  entropy T*S    EENTRO =        -0.00199622
  eigenvalues    EBANDS =       -63.83572569
  atomic energy  EATOM  =      3496.10054737
  Solvation  Ediel_sol  =         0.00000000
  ---------------------------------------------------
  free energy    TOTEN  =        -1.26037801 eV

  energy without entropy =       -1.25838179  energy(sigma->0) =       -1.25937990


--------------------------------------------------------------------------------------------------------




--------------------------------------- Iteration      1(   3)  ---------------------------------------


     EDDAV:  cpu time      0.7197: real time      0.7216
       DOS:  cpu time      0.0007: real time      0.0007
    --------------------------------------------
      LOOP:  cpu time      0.7204: real time      0.7224

 eigenvalue-minimisations  :  3792
 total energy-change (2. order) :-0.2216526E+01  (-0.2213613E+01)
 number of electron      24.0000000 magnetization 
 augmentation part       24.0000000 magnetization 

 Free energy of the ion-electron system (eV)
  ---------------------------------------------------
  alpha Z        PSCENC =       219.48591142
  Ewald energy   TEWEN  =     -2453.45788843
  -Hartree energ DENC   =      -960.28995941
  -exchange      EXHF   =         0.00000000
  -V(xc)+E(xc)   XCENC  =       116.22012859
  PAW double counting   =      2908.83873918    -3264.32013482
  entropy T*S    EENTRO =        -0.00234117
  eigenvalues    EBANDS =       -66.05190707
  atomic energy  EATOM  =      3496.10054737
  Solvation  Ediel_sol  =         0.00000000
  ---------------------------------------------------
  free energy    TOTEN  =        -3.47690434 eV

  energy without entropy =       -3.47456317  energy(sigma->0) =       -3.47573375


--------------------------------------------------------------------------------------------------------




--------------------------------------- Iteration      1(   4)  ---------------------------------------


     EDDAV:  cpu time      0.7233: real time      0.7254
       DOS:  cpu time      0.0007: real time      0.0007
    --------------------------------------------
      LOOP:  cpu time      0.7241: real time      0.7261

 eigenvalue-minimisations  :  3656
 total energy-change (2. order) :-0.5398021E-02  (-0.5397844E-02)
 number of electron      24.0000000 magnetization 
 augmentation part       24.0000000 magnetization 

 Free energy of the ion-electron system (eV)
  ---------------------------------------------------
  alpha Z        PSCENC =       219.48591142
  Ewald energy   TEWEN  =     -2453.45788843
  -Hartree energ DENC   =      -960.28995941
  -exchange      EXHF   =         0.00000000
  -V(xc)+E(xc)   XCENC  =       116.22012859
  PAW double counting   =      2908.83873918    -3264.32013482
  entropy T*S    EENTRO =        -0.00234172
  eigenvalues    EBANDS =       -66.05730454
  atomic energy  EATOM  =      3496.10054737
  Solvation  Ediel_sol  =         0.00000000
  ---------------------------------------------------
  free energy    TOTEN  =        -3.48230236 eV

  energy without entropy =       -3.47996064  energy(sigma->0) =       -3.48113150


--------------------------------------------------------------------------------------------------------




--------------------------------------- Iteration      1(   5)  ---------------------------------------


     EDDAV:  cpu time      0.7148: real time      0.7169
       DOS:  cpu time      0.0007: real time      0.0007
    CHARGE:  cpu time      0.2606: real time      0.2868
    MIXING:  cpu time      0.0009: real time      0.0009
    --------------------------------------------
      LOOP:  cpu time      0.9771: real time      1.0054

 eigenvalue-minimisations  :  3744
 total energy-change (2. order) :-0.7611734E-05  (-0.7611413E-05)
 number of electron      24.0000178 magnetization 
 augmentation part       15.6795246 magnetization 

 Broyden mixing:
  rms(total) = 0.46596E+00    rms(broyden)= 0.46595E+00
  rms(prec ) = 0.73438E+00
  weight for this iteration     100.00

 Free energy of the ion-electron system (eV)
  ---------------------------------------------------
  alpha Z        PSCENC =       219.48591142
  Ewald energy   TEWEN  =     -2453.45788843
  -Hartree energ DENC   =      -960.28995941
  -exchange      EXHF   =         0.00000000
  -V(xc)+E(xc)   XCENC  =       116.22012859
  PAW double counting   =      2908.83873918    -3264.32013482
  entropy T*S    EENTRO =        -0.00234172
  eigenvalues    EBANDS =       -66.05731215
  atomic energy  EATOM  =      3496.10054737
  Solvation  Ediel_sol  =         0.00000000
  ---------------------------------------------------
  free energy    TOTEN  =        -3.48230997 eV

  energy without entropy =       -3.47996825  energy(sigma->0) =       -3.48113911


--------------------------------------------------------------------------------------------------------




--------------------------------------- Iteration      1(   6)  ---------------------------------------


    POTLOK:  cpu time      0.0033: real time      0.0037
    SETDIJ:  cpu time      0.0556: real time      0.0558
     EDDAV:  cpu time      0.6219: real time      0.6234
       DOS:  cpu time      0.0007: real time      0.0007
    CHARGE:  cpu time      0.0811: real time      0.0813
    MIXING:  cpu time      0.0007: real time      0.0007
    --------------------------------------------
      LOOP:  cpu time      0.7633: real time      0.7655

 eigenvalue-minimisations  :  3112
 total energy-change (2. order) : 0.3008375E+00  (-0.1484813E+00)
 number of electron      24.0000181 magnetization 
 augmentation part       15.9475787 magnetization 

 Broyden mixing:
  rms(total) = 0.33203E+00    rms(broyden)= 0.33202E+00
  rms(prec ) = 0.35066E+00
  weight for this iteration     100.00

 eigenvalues of (default mixing * dielectric matrix)
  average eigenvalue GAMMA=   0.9364
  0.9364

 Free energy of the ion-electron system (eV)
  ---------------------------------------------------
  alpha Z        PSCENC =       219.48591142
  Ewald energy   TEWEN  =     -2453.45788843
  -Hartree energ DENC   =      -939.61468897
  -exchange      EXHF   =         0.00000000
  -V(xc)+E(xc)   XCENC  =       115.25916187
  PAW double counting   =      2969.88346778    -3319.07384776
  entropy T*S    EENTRO =        -0.00265284
  eigenvalues    EBANDS =       -91.76148289
  atomic energy  EATOM  =      3496.10054737
  Solvation  Ediel_sol  =         0.00000000
  ---------------------------------------------------
  free energy    TOTEN  =        -3.18147245 eV

  energy without entropy =       -3.17881962  energy(sigma->0) =       -3.18014603


--------------------------------------------------------------------------------------------------------




--------------------------------------- Iteration      1(   7)  ---------------------------------------


    POTLOK:  cpu time      0.0033: real time      0.0036
    SETDIJ:  cpu time      0.0554: real time      0.0555
     EDDAV:  cpu time      0.7371: real time      0.7388
       DOS:  cpu time      0.0007: real time      0.0007
    CHARGE:  cpu time      0.0812: real time      0.0814
    MIXING:  cpu time      0.0007: real time      0.0007
    --------------------------------------------
      LOOP:  cpu time      0.8784: real time      0.8807

 eigenvalue-minimisations  :  3928
 total energy-change (2. order) : 0.1496204E-01  (-0.4822700E-02)
 number of electron      24.0000181 magnetization 
 augmentation part       15.9186483 magnetization 

 Broyden mixing:
  rms(total) = 0.17314E+00    rms(broyden)= 0.17314E+00
  rms(prec ) = 0.19106E+00
  weight for this iteration     100.00

 eigenvalues of (default mixing * dielectric matrix)
  average eigenvalue GAMMA=   1.6460
  0.8953  2.3968

 Free energy of the ion-electron system (eV)
  ---------------------------------------------------
  alpha Z        PSCENC =       219.48591142
  Ewald energy   TEWEN  =     -2453.45788843
  -Hartree energ DENC   =      -938.57943740
  -exchange      EXHF   =         0.00000000
  -V(xc)+E(xc)   XCENC  =       115.23839895
  PAW double counting   =      3014.93596440    -3367.36677015
  entropy T*S    EENTRO =        -0.00261651
  eigenvalues    EBANDS =       -89.52062007
  atomic energy  EATOM  =      3496.10054737
  Solvation  Ediel_sol  =         0.00000000
  ---------------------------------------------------
  free energy    TOTEN  =        -3.16651041 eV

  energy without entropy =       -3.16389391  energy(sigma->0) =       -3.16520216


--------------------------------------------------------------------------------------------------------




--------------------------------------- Iteration      1(   8)  ---------------------------------------


    POTLOK:  cpu time      0.0033: real time      0.0035
    SETDIJ:  cpu time      0.0553: real time      0.0554
     EDDAV:  cpu time      0.7808: real time      0.7826
       DOS:  cpu time      0.0007: real time      0.0007
    CHARGE:  cpu time      0.0812: real time      0.0814
    MIXING:  cpu time      0.0007: real time      0.0007
    --------------------------------------------
      LOOP:  cpu time      0.9220: real time      0.9244

 eigenvalue-minimisations  :  4280
 total energy-change (2. order) : 0.7401856E-02  (-0.2061462E-03)
 number of electron      24.0000181 magnetization 
 augmentation part       15.9208597 magnetization 

 Broyden mixing:
  rms(total) = 0.54748E-02    rms(broyden)= 0.54746E-02
  rms(prec ) = 0.98476E-02
  weight for this iteration     100.00

 eigenvalues of (default mixing * dielectric matrix)
  average eigenvalue GAMMA=   1.5356
  2.5034  1.1904  0.9131

 Free energy of the ion-electron system (eV)
  ---------------------------------------------------
  alpha Z        PSCENC =       219.48591142
  Ewald energy   TEWEN  =     -2453.45788843
  -Hartree energ DENC   =      -934.43206761
  -exchange      EXHF   =         0.00000000
  -V(xc)+E(xc)   XCENC  =       115.07961901
  PAW double counting   =      3076.87542035    -3431.98578666
  entropy T*S    EENTRO =        -0.00261756
  eigenvalues    EBANDS =       -90.82224645
  atomic energy  EATOM  =      3496.10054737
  Solvation  Ediel_sol  =         0.00000000
  ---------------------------------------------------
  free energy    TOTEN  =        -3.15910856 eV

  energy without entropy =       -3.15649099  energy(sigma->0) =       -3.15779978


--------------------------------------------------------------------------------------------------------




--------------------------------------- Iteration      1(   9)  ---------------------------------------


    POTLOK:  cpu time      0.0033: real time      0.0036
    SETDIJ:  cpu time      0.0555: real time      0.0556
     EDDAV:  cpu time      0.7719: real time      0.7736
       DOS:  cpu time      0.0008: real time      0.0008
    CHARGE:  cpu time      0.0812: real time      0.0814
    MIXING:  cpu time      0.0007: real time      0.0007
    --------------------------------------------
      LOOP:  cpu time      0.9133: real time      0.9157

 eigenvalue-minimisations  :  4184
 total energy-change (2. order) : 0.4631939E-04  (-0.2710511E-04)
 number of electron      24.0000181 magnetization 
 augmentation part       15.9231966 magnetization 

 Broyden mixing:
  rms(total) = 0.31667E-02    rms(broyden)= 0.31666E-02
  rms(prec ) = 0.33164E-02
  weight for this iteration     100.00

 eigenvalues of (default mixing * dielectric matrix)
  average eigenvalue GAMMA=   1.7482
  0.9365  0.9365  2.4443  2.6755

 Free energy of the ion-electron system (eV)
  ---------------------------------------------------
  alpha Z        PSCENC =       219.48591142
  Ewald energy   TEWEN  =     -2453.45788843
  -Hartree energ DENC   =      -934.00493707
  -exchange      EXHF   =         0.00000000
  -V(xc)+E(xc)   XCENC  =       115.06206984
  PAW double counting   =      3078.89480329    -3434.08434643
  entropy T*S    EENTRO =        -0.00262088
  eigenvalues    EBANDS =       -91.15260136
  atomic energy  EATOM  =      3496.10054737
  Solvation  Ediel_sol  =         0.00000000
  ---------------------------------------------------
  free energy    TOTEN  =        -3.15906224 eV

  energy without entropy =       -3.15644136  energy(sigma->0) =       -3.15775180


--------------------------------------------------------------------------------------------------------




--------------------------------------- Iteration      1(  10)  ---------------------------------------


    POTLOK:  cpu time      0.0033: real time      0.0036
    SETDIJ:  cpu time      0.0553: real time      0.0555
     EDDAV:  cpu time      0.6758: real time      0.6773
       DOS:  cpu time      0.0007: real time      0.0007
    CHARGE:  cpu time      0.0812: real time      0.0814
    MIXING:  cpu time      0.0007: real time      0.0007
    --------------------------------------------
      LOOP:  cpu time      0.8170: real time      0.8192

 eigenvalue-minimisations  :  3472
 total energy-change (2. order) :-0.4069933E-05  (-0.2196597E-05)
 number of electron      24.0000181 magnetization 
 augmentation part       15.9231611 magnetization 

 Broyden mixing:
  rms(total) = 0.28423E-03    rms(broyden)= 0.28417E-03
  rms(prec ) = 0.45402E-03
  weight for this iteration     100.00

 eigenvalues of (default mixing * dielectric matrix)
  average eigenvalue GAMMA=   1.5838
  2.6734  2.4290  0.9022  0.9573  0.9573

 Free energy of the ion-electron system (eV)
  ---------------------------------------------------
  alpha Z        PSCENC =       219.48591142
  Ewald energy   TEWEN  =     -2453.45788843
  -Hartree energ DENC   =      -933.98407011
  -exchange      EXHF   =         0.00000000
  -V(xc)+E(xc)   XCENC  =       115.06154802
  PAW double counting   =      3077.42436629    -3432.61602638
  entropy T*S    EENTRO =        -0.00262151
  eigenvalues    EBANDS =       -91.17083297
  atomic energy  EATOM  =      3496.10054737
  Solvation  Ediel_sol  =         0.00000000
  ---------------------------------------------------
  free energy    TOTEN  =        -3.15906631 eV

  energy without entropy =       -3.15644479  energy(sigma->0) =       -3.15775555


--------------------------------------------------------------------------------------------------------




--------------------------------------- Iteration      1(  11)  ---------------------------------------


    POTLOK:  cpu time      0.0032: real time      0.0035
    SETDIJ:  cpu time      0.0553: real time      0.0554
     EDDAV:  cpu time      0.7335: real time      0.7352
       DOS:  cpu time      0.0008: real time      0.0008
    CHARGE:  cpu time      0.0812: real time      0.0814
    MIXING:  cpu time      0.0007: real time      0.0007
    --------------------------------------------
      LOOP:  cpu time      0.8748: real time      0.8771

 eigenvalue-minimisations  :  3816
 total energy-change (2. order) : 0.1815997E-06  (-0.5017296E-07)
 number of electron      24.0000181 magnetization 
 augmentation part       15.9230614 magnetization 

 Broyden mixing:
  rms(total) = 0.20420E-03    rms(broyden)= 0.20419E-03
  rms(prec ) = 0.26293E-03
  weight for this iteration     100.00

 eigenvalues of (default mixing * dielectric matrix)
  average eigenvalue GAMMA=   1.8035
  2.7381  2.7381  2.4171  0.9269  1.0003  1.0003

 Free energy of the ion-electron system (eV)
  ---------------------------------------------------
  alpha Z        PSCENC =       219.48591142
  Ewald energy   TEWEN  =     -2453.45788843
  -Hartree energ DENC   =      -933.98849608
  -exchange      EXHF   =         0.00000000
  -V(xc)+E(xc)   XCENC  =       115.06182314
  PAW double counting   =      3077.51761610    -3432.71273757
  entropy T*S    EENTRO =        -0.00262139
  eigenvalues    EBANDS =       -91.16322069
  atomic energy  EATOM  =      3496.10054737
  Solvation  Ediel_sol  =         0.00000000
  ---------------------------------------------------
  free energy    TOTEN  =        -3.15906613 eV

  energy without entropy =       -3.15644474  energy(sigma->0) =       -3.15775543


--------------------------------------------------------------------------------------------------------




--------------------------------------- Iteration      1(  12)  ---------------------------------------


    POTLOK:  cpu time      0.0033: real time      0.0036
    SETDIJ:  cpu time      0.0553: real time      0.0554
     EDDAV:  cpu time      0.4887: real time      0.4899
       DOS:  cpu time      0.0008: real time      0.0008
    CHARGE:  cpu time      0.0819: real time      0.0822
    MIXING:  cpu time      0.0007: real time      0.0007
    --------------------------------------------
      LOOP:  cpu time      0.6308: real time      0.6325

 eigenvalue-minimisations  :  2024
 total energy-change (2. order) : 0.2786703E-06  (-0.2534476E-08)
 number of electron      24.0000181 magnetization 
 augmentation part       15.9230263 magnetization 

 Broyden mixing:
  rms(total) = 0.47160E-04    rms(broyden)= 0.47156E-04
  rms(prec ) = 0.51032E-04
  weight for this iteration     100.00

 eigenvalues of (default mixing * dielectric matrix)
  average eigenvalue GAMMA=   1.6468
  2.6494  2.5684  2.4291  0.9277  0.9936  0.9936  0.9658

 Free energy of the ion-electron system (eV)
  ---------------------------------------------------
  alpha Z        PSCENC =       219.48591142
  Ewald energy   TEWEN  =     -2453.45788843
  -Hartree energ DENC   =      -933.99895650
  -exchange      EXHF   =         0.00000000
  -V(xc)+E(xc)   XCENC  =       115.06230554
  PAW double counting   =      3077.66815271    -3432.85773110
  entropy T*S    EENTRO =        -0.00262128
  eigenvalues    EBANDS =       -91.15878558
  atomic energy  EATOM  =      3496.10054737
  Solvation  Ediel_sol  =         0.00000000
  ---------------------------------------------------
  free energy    TOTEN  =        -3.15906585 eV

  energy without entropy =       -3.15644457  energy(sigma->0) =       -3.15775521


--------------------------------------------------------------------------------------------------------




--------------------------------------- Iteration      1(  13)  ---------------------------------------


    POTLOK:  cpu time      0.0033: real time      0.0037
    SETDIJ:  cpu time      0.0553: real time      0.0555
     EDDAV:  cpu time      0.4558: real time      0.4569
       DOS:  cpu time      0.0007: real time      0.0007
    --------------------------------------------
      LOOP:  cpu time      0.5151: real time      0.5168

 eigenvalue-minimisations  :  1856
 total energy-change (2. order) :-0.1379885E-07  (-0.7956463E-09)
 number of electron      24.0000181 magnetization 
 augmentation part       15.9230263 magnetization 

 Free energy of the ion-electron system (eV)
  ---------------------------------------------------
  alpha Z        PSCENC =       219.48591142
  Ewald energy   TEWEN  =     -2453.45788843
  -Hartree energ DENC   =      -933.99903422
  -exchange      EXHF   =         0.00000000
  -V(xc)+E(xc)   XCENC  =       115.06231466
  PAW double counting   =      3077.66068801    -3432.85142685
  entropy T*S    EENTRO =        -0.00262127
  eigenvalues    EBANDS =       -91.15755655
  atomic energy  EATOM  =      3496.10054737
  Solvation  Ediel_sol  =         0.00000000
  ---------------------------------------------------
  free energy    TOTEN  =        -3.15906586 eV

  energy without entropy =       -3.15644459  energy(sigma->0) =       -3.15775523


--------------------------------------------------------------------------------------------------------




 average (electrostatic) potential at core
  the test charge radii are     0.9521
  (the norm of the test charge is              1.0000)
       1 -36.4793       2 -36.4793
 
 
 
 E-fermi :   3.2534     XC(G=0): -11.9825     alpha+bet : -7.8494

 val. band max:        3.2364266869   @ k =   0.2143   0.0000   0.1429
 cond. band min:       3.3195907148   @ k =   0.2143   0.2143   0.0000
 fundamental gap:      0.0831640278
 Fermi energy:         3.2534366643

 k-point     1 :       0.0000    0.0000    0.0000
  band No.  band energies     occupation 
      1      -7.5264      2.00000
      2      -5.5253      2.00000
      3      -4.7281      2.00000
      4      -4.4692      2.00000
      5      -4.4692      2.00000
      6      -4.4149      2.00000
      7      -4.4149      2.00000
      8      -4.0414      2.00000
      9      -4.0414      2.00000
     10      -3.8145      2.00000
     11      -3.8145      2.00000
     12      -0.6168      2.00000
     13       0.2820      2.00000
     14      17.2728      0.00000
     15      21.0098      0.00000
     16      21.5176      0.00000

 k-point     2 :       0.0714    0.0000    0.0000
  band No.  band energies     occupation 
      1      -7.3689      2.00000
      2      -5.4523      2.00000
      3      -4.7108      2.00000
      4      -4.4862      2.00000
      5      -4.4329      2.00000
      6      -4.4303      2.00000
      7      -4.3775      2.00000
      8      -4.0785      2.00000
      9      -4.0569      2.00000
     10      -3.9154      2.00000
     11      -3.8127      2.00000
     12      -0.3525      2.00000
     13       0.3596      2.00000
     14      17.4471      0.00000
     15      18.8695      0.00000
     16      20.1461      0.00000

 k-point     3 :       0.1429    0.0000    0.0000
  band No.  band energies     occupation 
      1      -6.9072      2.00000
      2      -5.2664      2.00000
      3      -4.6801      2.00000
      4      -4.5222      2.00000
      5      -4.4497      2.00000
      6      -4.3184      2.00000
      7      -4.2709      2.00000
      8      -4.2411      2.00000
      9      -4.0977      2.00000
     10      -4.0766      2.00000
     11      -3.8103      2.00000
     12       0.3547      2.00000
     13       0.6113      2.00000
     14      15.3512      0.00000
     15      17.9274      0.00000
     16      18.3884      0.00000

 k-point     4 :       0.2143    0.0000    0.0000
  band No.  band energies     occupation 
      1      -6.1960      2.00000
      2      -5.0928      2.00000
      3      -4.6421      2.00000
      4      -4.5597      2.00000
      5      -4.4984      2.00000
      6      -4.3354      2.00000
      7      -4.1918      2.00000
      8      -4.1526      2.00000
      9      -4.1521      2.00000
     10      -4.1141      2.00000
     11      -3.8112      2.00000
     12       1.0890      2.00000
     13       1.3787      2.00000
     14      11.9827      0.00000
     15      16.8395      0.00000
     16      17.7549      0.00000

 k-point     5 :       0.2857    0.0000    0.0000
  band No.  band energies     occupation 
      1      -5.4906      2.00000
      2      -5.0851      2.00000
      3      -4.7269      2.00000
      4      -4.5491      2.00000
      5      -4.4193      2.00000
      6      -4.3024      2.00000
      7      -4.2086      2.00000
      8      -3.9646      2.00000
      9      -3.9621      2.00000
     10      -3.9347      2.00000
     11      -3.8160      2.00000
     12       1.8555      2.00000
     13       2.6503      2.00000
     14       8.8582      0.00000
     15      14.7018      0.00000
     16      15.5018      0.00000

 k-point     6 :       0.3571    0.0000    0.0000
  band No.  band energies     occupation 
      1      -5.2581      2.00000
      2      -5.1507      2.00000
      3      -4.8933      2.00000
      4      -4.4258      2.00000
      5      -4.3991      2.00000
      6      -4.2570      2.00000
      7      -4.1660      2.00000
      8      -3.8227      2.00000
      9      -3.7859      2.00000
     10      -3.7662      2.00000
     11      -2.9272      2.00000
     12       2.8948      2.00000
     13       4.1324      0.00000
     14       6.0787      0.00000
     15      11.8462      0.00000
     16      12.8678      0.00000

 k-point     7 :       0.4286    0.0000    0.0000
  band No.  band energies     occupation 
      1      -5.2749      2.00000
      2      -5.1928      2.00000
      3      -4.9920      2.00000
      4      -4.4653      2.00000
      5      -4.3341      2.00000
      6      -4.2895      2.00000
      7      -4.0147      2.00000
      8      -3.8282      2.00000
      9      -3.6631      2.00000
     10      -3.6435      2.00000
     11      -1.3038      2.00000
     12       2.8727      2.00000
     13       4.9909      0.00000
     14       5.7585      0.00000
     15       9.3125      0.00000
     16      10.5346      0.00000

 k-point     8 :       0.5000    0.0000    0.0000
  band No.  band energies     occupation 
      1      -5.2948      2.00000
      2      -5.2081      2.00000
      3      -5.0248      2.00000
      4      -4.4889      2.00000
      5      -4.3014      2.00000
      6      -4.3009      2.00000
      7      -3.9663      2.00000
      8      -3.8303      2.00000
      9      -3.6194      2.00000
     10      -3.5982      2.00000
     11       0.3177      2.00000
     12       1.1425      2.00000
     13       6.0394      0.00000
     14       6.9083      0.00000
     15       7.7106      0.00000
     16       9.1480      0.00000

 k-point     9 :       0.0714    0.0714    0.0000
  band No.  band energies     occupation 
      1      -7.0588      2.00000
      2      -5.3205      2.00000
      3      -4.6869      2.00000
      4      -4.5097      2.00000
      5      -4.4691      2.00000
      6      -4.3495      2.00000
      7      -4.2973      2.00000
      8      -4.1571      2.00000
      9      -4.1316      2.00000
     10      -4.0137      2.00000
     11      -3.8146      2.00000
     12       0.1300      2.00000
     13       0.5246      2.00000
     14      17.1126      0.00000
     15      17.2251      0.00000
     16      17.7793      0.00000

 k-point    10 :       0.1429    0.0714    0.0000
  band No.  band energies     occupation 
      1      -6.4648      2.00000
      2      -5.1204      2.00000
      3      -4.6824      2.00000
      4      -4.5445      2.00000
      5      -4.4601      2.00000
      6      -4.3925      2.00000
      7      -4.2113      2.00000
      8      -4.1995      2.00000
      9      -4.1387      2.00000
     10      -4.0787      2.00000
     11      -3.8203      2.00000
     12       0.8918      2.00000
     13       0.9861      2.00000
     14      13.7300      0.00000
     15      15.6600      0.00000
     16      18.2804      0.00000

 k-point    11 :       0.2143    0.0714    0.0000
  band No.  band energies     occupation 
      1      -5.7061      2.00000
      2      -5.0196      2.00000
      3      -4.6293      2.00000
      4      -4.6134      2.00000
      5      -4.5689      2.00000
      6      -4.3003      2.00000
      7      -4.2972      2.00000
      8      -4.1524      2.00000
      9      -4.0131      2.00000
     10      -3.8881      2.00000
     11      -3.8277      2.00000
     12       1.5237      2.00000
     13       2.1245      2.00000
     14      10.4842      0.00000
     15      14.3885      0.00000
     16      16.3192      0.00000

 k-point    12 :       0.2857    0.0714    0.0000
  band No.  band energies     occupation 
      1      -5.2340      2.00000
      2      -5.0724      2.00000
      3      -4.8164      2.00000
      4      -4.4815      2.00000
      5      -4.3792      2.00000
      6      -4.3592      2.00000
      7      -4.2262      2.00000
      8      -4.0183      2.00000
      9      -3.8366      2.00000
     10      -3.8355      2.00000
     11      -3.3088      2.00000
     12       2.4644      2.00000
     13       3.4966      0.00058
     14       7.5098      0.00000
     15      13.3200      0.00000
     16      13.4193      0.00000

 k-point    13 :       0.3571    0.0714    0.0000
  band No.  band energies     occupation 
      1      -5.2047      2.00000
      2      -5.1238      2.00000
      3      -4.9411      2.00000
      4      -4.4441      2.00000
      5      -4.3694      2.00000
      6      -4.2845      2.00000
      7      -4.1322      2.00000
      8      -3.8448      2.00000
      9      -3.7928      2.00000
     10      -3.7062      2.00000
     11      -1.9955      2.00000
     12       3.4465      0.00633
     13       5.0625      0.00000
     14       5.1270      0.00000
     15      10.6337      0.00000
     16      11.7517      0.00000

 k-point    14 :       0.4286    0.0714    0.0000
  band No.  band energies     occupation 
      1      -5.2438      2.00000
      2      -5.1517      2.00000
      3      -5.0027      2.00000
      4      -4.4800      2.00000
      5      -4.3163      2.00000
      6      -4.3071      2.00000
      7      -4.0194      2.00000
      8      -3.8498      2.00000
      9      -3.6772      2.00000
     10      -3.6476      2.00000
     11      -0.2230      2.00000
     12       2.0157      2.00000
     13       5.7258      0.00000
     14       6.6503      0.00000
     15       8.3548      0.00000
     16       9.6892      0.00000

 k-point    15 :       0.1429    0.1429    0.0000
  band No.  band energies     occupation 
      1      -5.7908      2.00000
      2      -4.9386      2.00000
      3      -4.7414      2.00000
      4      -4.5794      2.00000
      5      -4.5593      2.00000
      6      -4.4347      2.00000
      7      -4.3183      2.00000
      8      -4.1118      2.00000
      9      -4.0194      2.00000
     10      -3.8681      2.00000
     11      -3.8431      2.00000
     12       1.4201      2.00000
     13       1.9456      2.00000
     14      12.2607      0.00000
     15      12.4686      0.00000
     16      18.0567      0.00000

 k-point    16 :       0.2143    0.1429    0.0000
  band No.  band energies     occupation 
      1      -5.1374      2.00000
      2      -4.9154      2.00000
      3      -4.7484      2.00000
      4      -4.6705      2.00000
      5      -4.5297      2.00000
      6      -4.4005      2.00000
      7      -4.3021      2.00000
      8      -4.1805      2.00000
      9      -3.8662      2.00000
     10      -3.8451      2.00000
     11      -3.3473      2.00000
     12       2.2553      2.00000
[...]
     16      18.1513      0.00000

 k-point    82 :       0.1429    0.0714    0.4286
  band No.  band energies     occupation 
      1      -5.4679      2.00000
      2      -5.0393      2.00000
      3      -4.5507      2.00000
      4      -4.5235      2.00000
      5      -4.3885      2.00000
      6      -4.2980      2.00000
      7      -4.0783      2.00000
      8      -4.0444      2.00000
      9      -3.7884      2.00000
     10      -3.7282      2.00000
     11      -3.5309      2.00000
     12      -2.9367      2.00000
     13       9.0222      0.00000
     14      11.9652      0.00000
     15      14.7454      0.00000
     16      15.7235      0.00000

 k-point    83 :       0.2143    0.0714    0.4286
  band No.  band energies     occupation 
      1      -5.0877      2.00000
      2      -4.8636      2.00000
      3      -4.6331      2.00000
      4      -4.5587      2.00000
      5      -4.2896      2.00000
      6      -4.2136      2.00000
      7      -3.9942      2.00000
      8      -3.9146      2.00000
      9      -3.7383      2.00000
     10      -3.6982      2.00000
     11      -3.1588      2.00000
     12      -2.2844      2.00000
     13       9.7822      0.00000
     14      11.3540      0.00000
     15      12.6384      0.00000
     16      12.9831      0.00000

 k-point    84 :       0.2857    0.0714    0.4286
  band No.  band energies     occupation 
      1      -5.0278      2.00000
      2      -4.9230      2.00000
      3      -4.6833      2.00000
      4      -4.6278      2.00000
      5      -4.0526      2.00000
      6      -3.9951      2.00000
      7      -3.9270      2.00000
      8      -3.8729      2.00000
      9      -3.6444      2.00000
     10      -3.6078      2.00000
     11      -2.2678      2.00000
     12      -1.2578      2.00000
     13       8.5199      0.00000
     14       9.3235      0.00000
     15      11.2854      0.00000
     16      13.8015      0.00000

 k-point    85 :       0.3571    0.0714    0.4286
  band No.  band energies     occupation 
      1      -5.0744      2.00000
      2      -5.0005      2.00000
      3      -4.7277      2.00000
      4      -4.6949      2.00000
      5      -4.0241      2.00000
      6      -3.8843      2.00000
      7      -3.8300      2.00000
      8      -3.7193      2.00000
      9      -3.5727      2.00000
     10      -3.5286      2.00000
     11      -0.8798      2.00000
     12       0.1161      2.00000
     13       5.9152      0.00000
     14       6.8375      0.00000
     15      12.4677      0.00000
     16      13.7068      0.00000

 k-point    86 :       0.4286    0.0714    0.4286
  band No.  band energies     occupation 
      1      -5.1111      2.00000
      2      -5.0461      2.00000
      3      -4.7516      2.00000
      4      -4.7333      2.00000
      5      -4.0367      2.00000
      6      -3.8879      2.00000
      7      -3.7309      2.00000
      8      -3.5941      2.00000
      9      -3.5343      2.00000
     10      -3.5036      2.00000
     11       0.7579      2.00000
     12       1.4823      2.00000
     13       3.9384      0.00002
     14       4.6198      0.00000
     15      13.3996      0.00000
     16      13.8650      0.00000

 k-point    87 :       0.1429    0.1429    0.4286
  band No.  band energies     occupation 
      1      -5.0685      2.00000
      2      -4.7795      2.00000
      3      -4.6198      2.00000
      4      -4.5185      2.00000
      5      -4.4584      2.00000
      6      -4.3758      2.00000
      7      -4.0045      2.00000
      8      -3.9212      2.00000
      9      -3.7169      2.00000
     10      -3.7053      2.00000
     11      -3.2048      2.00000
     12      -2.3830      2.00000
     13       9.6869      0.00000
     14      12.4055      0.00000
     15      13.2423      0.00000
     16      13.8125      0.00000

 k-point    88 :       0.2143    0.1429    0.4286
  band No.  band energies     occupation 
      1      -4.9050      2.00000
      2      -4.7995      2.00000
      3      -4.6077      2.00000
      4      -4.5149      2.00000
      5      -4.3439      2.00000
      6      -4.2681      2.00000
      7      -4.0119      2.00000
      8      -3.9051      2.00000
      9      -3.6391      2.00000
     10      -3.6001      2.00000
     11      -2.4380      2.00000
     12      -1.4775      2.00000
     13      10.2295      0.00000
     14      10.3688      0.00000
     15      11.6326      0.00000
     16      12.1839      0.00000

 k-point    89 :       0.2857    0.1429    0.4286
  band No.  band energies     occupation 
      1      -4.9385      2.00000
      2      -4.8582      2.00000
      3      -4.6692      2.00000
      4      -4.5889      2.00000
      5      -4.1494      2.00000
      6      -4.0469      2.00000
      7      -3.9722      2.00000
      8      -3.9171      2.00000
      9      -3.5977      2.00000
     10      -3.5274      2.00000
     11      -1.2068      2.00000
     12      -0.2127      2.00000
     13       7.4839      0.00000
     14       8.4089      0.00000
     15      11.4693      0.00000
     16      11.8363      0.00000

 k-point    90 :       0.3571    0.1429    0.4286
  band No.  band energies     occupation 
      1      -4.9866      2.00000
      2      -4.9070      2.00000
      3      -4.7023      2.00000
      4      -4.6416      2.00000
      5      -4.1406      2.00000
      6      -3.9750      2.00000
      7      -3.8457      2.00000
      8      -3.7780      2.00000
      9      -3.5978      2.00000
     10      -3.5229      2.00000
     11       0.3698      2.00000
     12       1.3044      2.00000
     13       5.0700      0.00000
     14       5.9749      0.00000
     15      11.0097      0.00000
     16      11.9464      0.00000

 k-point    91 :       0.4286    0.1429    0.4286
  band No.  band energies     occupation 
      1      -5.0049      2.00000
      2      -4.9268      2.00000
      3      -4.7117      2.00000
      4      -4.6599      2.00000
      5      -4.1509      2.00000
      6      -3.9779      2.00000
      7      -3.7533      2.00000
      8      -3.7001      2.00000
      9      -3.5919      2.00000
     10      -3.5679      2.00000
     11       1.8722      2.00000
     12       2.0196      2.00000
     13       4.1112      0.00000
     14       4.1289      0.00000
     15      10.8524      0.00000
     16      11.8378      0.00000

 k-point    92 :       0.2143    0.2143    0.4286
  band No.  band energies     occupation 
      1      -4.8239      2.00000
      2      -4.8221      2.00000
      3      -4.5545      2.00000
      4      -4.4673      2.00000
      5      -4.3271      2.00000
      6      -4.2506      2.00000
      7      -4.0530      2.00000
      8      -3.9452      2.00000
      9      -3.5970      2.00000
     10      -3.5242      2.00000
     11      -1.2995      2.00000
     12      -0.3141      2.00000
     13       9.2488      0.00000
     14       9.4507      0.00000
     15      10.1738      0.00000
     16      10.2733      0.00000

 k-point    93 :       0.2857    0.2143    0.4286
  band No.  band energies     occupation 
      1      -4.8474      2.00000
      2      -4.7888      2.00000
      3      -4.5990      2.00000
      4      -4.5021      2.00000
      5      -4.2693      2.00000
      6      -4.1396      2.00000
      7      -4.0146      2.00000
      8      -3.9540      2.00000
      9      -3.5989      2.00000
     10      -3.5181      2.00000
     11       0.1795      2.00000
     12       1.1572      2.00000
     13       6.7278      0.00000
     14       7.6814      0.00000
     15       8.7587      0.00000
     16       9.7134      0.00000

 k-point    94 :       0.3571    0.2143    0.4286
  band No.  band energies     occupation 
      1      -4.8592      2.00000
      2      -4.7717      2.00000
      3      -4.6321      2.00000
      4      -4.5388      2.00000
      5      -4.2780      2.00000
      6      -4.1079      2.00000
      7      -3.9125      2.00000
      8      -3.8867      2.00000
      9      -3.6182      2.00000
     10      -3.5630      2.00000
     11       1.9057      2.00000
     12       2.6989      2.00000
     13       4.6126      0.00000
     14       5.4005      0.00000
     15       8.4425      0.00000
     16       9.4296      0.00000

 k-point    95 :       0.2857    0.2857    0.4286
  band No.  band energies     occupation 
      1      -4.7616      2.00000
      2      -4.7265      2.00000
      3      -4.5288      2.00000
      4      -4.4709      2.00000
      5      -4.3308      2.00000
      6      -4.2153      2.00000
      7      -4.0303      2.00000
      8      -3.9762      2.00000
      9      -3.6184      2.00000
     10      -3.5604      2.00000
     11       1.8469      2.00000
     12       2.7856      2.00000
     13       6.1965      0.00000
     14       6.2850      0.00000
     15       7.2350      0.00000
     16       7.3597      0.00000

 k-point    96 :       0.3571    0.2857    0.4286
  band No.  band energies     occupation 
      1      -4.7212      2.00000
      2      -4.6778      2.00000
      3      -4.5230      2.00000
      4      -4.5146      2.00000
      5      -4.3061      2.00000
      6      -4.2446      2.00000
      7      -4.0242      2.00000
      8      -3.9837      2.00000
      9      -3.6210      2.00000
     10      -3.5991      2.00000
     11       3.5725      1.64559
     12       3.6481      0.88643
     13       4.9996      0.00000
     14       5.2546      0.00000
     15       6.2505      0.00000
     16       7.1380      0.00000


--------------------------------------------------------------------------------------------------------


 soft charge-density along one line, spin component            1
         0         1         2         3         4         5         6         7         8         9
 total charge-density along one line
 
 pseudopotential strength for first ion, spin component:            1
-10.108  -0.000   0.000   0.000   0.000 -10.454  -0.000   0.000
 -0.000 -10.111  -0.000  -0.000  -0.000  -0.000 -10.457  -0.000
  0.000  -0.000 -10.115  -0.000  -0.000   0.000  -0.000 -10.461
  0.000  -0.000  -0.000 -10.111   0.000   0.000  -0.000  -0.000
  0.000  -0.000  -0.000   0.000 -10.108   0.000  -0.000  -0.000
-10.454  -0.000   0.000   0.000   0.000 -10.727  -0.000   0.000
 -0.000 -10.457  -0.000  -0.000  -0.000  -0.000 -10.730  -0.000
  0.000  -0.000 -10.461  -0.000  -0.000   0.000  -0.000 -10.733
  0.000  -0.000  -0.000 -10.457   0.000   0.000  -0.000  -0.000
  0.000  -0.000  -0.000   0.000 -10.454   0.000  -0.000  -0.000
 -0.000  -0.000  -0.002  -0.000   0.000  -0.000  -0.000  -0.002
 -0.000  -0.000  -0.003  -0.000   0.000  -0.000  -0.000  -0.003
  0.000  -0.000   0.000   0.000   0.000   0.000  -0.000   0.000
  0.000   0.000  -0.000  -0.000   0.000   0.000   0.000  -0.000
  0.000   0.000  -0.000   0.000   0.000   0.000   0.000  -0.000
  0.000  -0.000   0.000   0.000   0.000   0.000  -0.000   0.000
  0.000   0.000  -0.000  -0.000   0.000   0.000   0.000  -0.000
  0.000   0.000  -0.000   0.000   0.000   0.000   0.000  -0.000
 total augmentation occupancy for first ion, spin component:            1
  2.924   0.000   0.000   0.000  -0.000  -0.966  -0.000  -0.000  -0.000   0.000   0.000   0.000   0.000  -0.000   0.108  -0.000
  0.000   2.716   0.000  -0.000  -0.000  -0.000  -0.715  -0.000   0.000   0.000   0.000   0.000  -0.000  -0.000  -0.000   0.000
  0.000   0.000   3.260  -0.000   0.000  -0.000  -0.000  -1.260  -0.000  -0.000   0.212   0.002   0.000   0.000   0.000  -0.000
  0.000  -0.000  -0.000   2.716   0.000  -0.000   0.000  -0.000  -0.715  -0.000   0.000   0.000  -0.000  -0.000   0.000   0.000
 -0.000  -0.000   0.000   0.000   2.924   0.000   0.000  -0.000   0.000  -0.966   0.000   0.000   0.108   0.000  -0.000  -0.008
 -0.966  -0.000  -0.000  -0.000   0.000   0.992  -0.000   0.000   0.000   0.000  -0.000   0.000  -0.000   0.000  -0.101   0.000
  0.000  -0.715   0.000   0.000   0.000  -0.000   0.700  -0.000  -0.000  -0.000   0.000   0.000   0.000   0.000   0.000  -0.000
 -0.000  -0.000  -1.260   0.000  -0.000   0.000   0.000   1.246   0.000   0.000  -0.220   0.012  -0.000  -0.000  -0.000   0.000
 -0.000   0.000  -0.000  -0.715  -0.000   0.000  -0.000  -0.000   0.700   0.000   0.000   0.000  -0.000   0.000  -0.000   0.000
 -0.000   0.000  -0.000   0.000  -0.966   0.000  -0.000   0.000   0.000   0.992  -0.000   0.000  -0.101  -0.000   0.000   0.009
  0.000  -0.000   0.212   0.000   0.000  -0.000  -0.000  -0.220   0.000  -0.000   2.506  -0.517   0.000   0.000  -0.000  -0.000
  0.000   0.000   0.002   0.000   0.000   0.000  -0.000   0.012   0.000   0.000  -0.517   0.155   0.000   0.000  -0.000   0.000
  0.000  -0.000   0.000  -0.000   0.108  -0.000   0.000  -0.000   0.000  -0.101   0.000  -0.000   0.378   0.000  -0.000  -0.054
  0.000  -0.000  -0.000  -0.000   0.000  -0.000   0.000  -0.000   0.000  -0.000   0.000  -0.000   0.000   0.310  -0.000  -0.000
  0.108  -0.000   0.000   0.000  -0.000  -0.101   0.000  -0.000  -0.000   0.000  -0.000  -0.000  -0.000   0.000   0.378   0.000
 -0.000   0.000  -0.000   0.000  -0.008   0.000  -0.000   0.000  -0.000   0.009   0.000   0.000  -0.054  -0.000   0.000   0.010
  0.000   0.000  -0.000   0.000   0.000  -0.000  -0.000   0.000  -0.000   0.000   0.000  -0.000  -0.000  -0.046  -0.000   0.000
 -0.008  -0.000  -0.000  -0.000   0.000   0.009  -0.000   0.000   0.000  -0.000   0.000   0.000   0.000  -0.000  -0.054  -0.000


------------------------ aborting loop because EDIFF is reached ----------------------------------------





 total charge

# of ion       s       p       d       tot
------------------------------------------
    1        0.598   0.503   9.725  10.826
    2        0.598   0.503   9.725  10.826
--------------------------------------------------
tot          1.196   1.006  19.449  21.651
 
    CHARGE:  cpu time      0.0865: real time      0.0867
    FORLOC:  cpu time      0.0001: real time      0.0001
    FORNL :  cpu time      0.1680: real time      0.1684
    STRESS:  cpu time      1.7592: real time      1.7634
    FORCOR:  cpu time      0.0027: real time      0.0027
    FORHAR:  cpu time      0.0007: real time      0.0007
    MIXING:  cpu time      0.0008: real time      0.0008
    OFIELD:  cpu time      0.0000: real time      0.0000

  FORCE on cell =-STRESS in cart. coord.  units (eV):
  Direction    XX          YY          ZZ          XY          YZ          ZX
  --------------------------------------------------------------------------------------
  Alpha Z   226.15847   226.15847   226.15847
  Ewald    -798.61553  -798.61553  -885.74667     0.00000     0.00000    -0.00000
  Hartree   322.41730   322.41730   270.24865    -0.00000    -0.00000    -0.00000
  E(xc)    -142.27141  -142.27136  -142.28415     0.00004    -0.00000    -0.00000
  Local     234.28173   234.27995   372.72931    -0.00154    -0.00000    -0.00000
  n-local   -65.81521   -65.60305   -66.02036     0.84375    -0.30689    -0.45552
  augment    81.16893    81.17061    81.55343     0.00146     0.00000     0.00000
  Kinetic   145.24493   139.89192   143.35508    14.37877    -2.48853    -3.12413
  Fock        0.00000     0.00000     0.00000     0.00000     0.00000     0.00000
  -------------------------------------------------------------------------------------
  Total      -0.00124    -0.00124    -0.00625     0.00000    -0.00000    -0.00000
  in kB      -0.07117    -0.07117    -0.35794     0.00000    -0.00000    -0.00000
  external pressure =       -0.17 kB  Pullay stress =        0.00 kB


 VOLUME and BASIS-vectors are now :
 -----------------------------------------------------------------------------
  energy-cutoff  :      400.00
  volume of cell :       27.99
      direct lattice vectors                 reciprocal lattice vectors
     2.638547902 -0.000000000 -0.000000000     0.378996341  0.218813639 -0.000000000
    -1.319273951  2.285049512  0.000000000     0.000000000  0.437627279 -0.000000000
     0.000000000  0.000000000  4.643070726     0.000000000 -0.000000000  0.215374708

  length of vectors
     2.638547902  2.638547902  4.643070726     0.437627279  0.437627279  0.215374708


 FORCES acting on ions
    electron-ion (+dipol)            ewald-force                    non-local-force                 convergence-correction
 -----------------------------------------------------------------------------------------------
   -.554E-05 0.319E-05 0.208E-09   0.929E-08 -.316E-08 -.429E-13   0.173E-16 -.486E-16 0.520E-17   -.483E-08 0.279E-08 -.327E-13
   0.553E-05 -.319E-05 0.215E-09   -.929E-08 0.316E-08 0.430E-13   -.104E-16 0.902E-16 -.173E-17   0.483E-08 -.279E-08 -.458E-13
 -----------------------------------------------------------------------------------------------
   -.638E-08 0.224E-08 0.423E-09   0.166E-13 0.231E-13 0.255E-16   0.694E-17 0.416E-16 0.347E-17   0.210E-12 -.261E-13 -.785E-13
 
 
 POSITION                                       TOTAL-FORCE (eV/Angst)
 -----------------------------------------------------------------------------------
     -0.00000      1.52337      1.16077         0.000000     -0.000000      0.000000
      1.31927      0.76168      3.48230        -0.000000      0.000000     -0.000000
 -----------------------------------------------------------------------------------
    total drift:                               -0.000000      0.000000      0.000000


--------------------------------------------------------------------------------------------------------



  FREE ENERGIE OF THE ION-ELECTRON SYSTEM (eV)
  ---------------------------------------------------
  free  energy   TOTEN  =        -3.17171085 eV

  energy  without entropy=       -3.17051302  energy(sigma->0) =       -3.17111193
 d Force = 0.0000000E+00[ 0.000E+00, 0.000E+00]  d Energy = 0.3370332E-04-0.337E-04
 d Force = 0.0000000E+00[ 0.000E+00, 0.000E+00]  d Ewald  =-0.1053678E+01 0.105E+01
 


--------------------------------------------------------------------------------------------------------


    POTLOK:  cpu time      0.0535: real time      0.0536


--------------------------------------------------------------------------------------------------------




--------------------------------------------------------------------------------------------------------


  
 reached required accuracy - stopping structural energy minimisation
     LOOP+:  cpu time      6.9595: real time      6.9798
    4ORBIT:  cpu time      0.0000: real time      0.0000



 total charge

# of ion       s       p       d       tot
------------------------------------------
    1        0.598   0.503   9.725  10.826
    2        0.598   0.503   9.725  10.826
--------------------------------------------------
tot          1.196   1.006  19.449  21.651
 

 total amount of memory used by VASP MPI-rank0    55657. kBytes
=======================================================================

   base                                    :      30000. kBytes
   nonl-proj                               :       7703. kBytes
   fftplans                                :       1328. kBytes
   grid                                    :       2047. kBytes
   one-center                              :         31. kBytes
   wavefun                                 :      14548. kBytes
 
  
  
 General timing and accounting informations for this job:
 ========================================================
  
                  Total CPU time used (sec):      117.966
                            User time (sec):      115.794
                          System time (sec):        2.173
                         Elapsed time (sec):      121.691
  
                   Maximum memory used (kb):     2049392.
                   Average memory used (kb):          N/A
  
                          Minor page faults:       292144
                          Major page faults:         7213
                 Voluntary context switches:        19215
