 running    2 mpi-ranks, on    1 nodes
 distrk:  each k-point on    1 cores,    2 groups
 distr:  one band on    1 cores,    1 groups
 Offloading initialized ...    2 GPUs detected
 vasp.6.5.1 10Mar25 (build May 13 2025 11:33:44) complex                         
 POSCAR found type information on POSCAR Zn
 POSCAR found :  1 types and       2 ions
 scaLAPACK will be used selectively (only on CPU)
 -----------------------------------------------------------------------------
|                                                                             |
|               ----> ADVICE to this user running VASP <----                  |
|                                                                             |
|     You enforced a specific xc type in the INCAR file but a different       |
|     type was found in the POTCAR file.                                      |
|     I HOPE YOU KNOW WHAT YOU ARE DOING!                                     |
|                                                                             |
 -----------------------------------------------------------------------------

 LDA part: xc-table for (Slater+PW92), standard interpolation
 POSCAR, INCAR and KPOINTS ok, starting setup
 FFT: planning ... GRIDC
 FFT: planning ... GRID_SOFT
 FFT: planning ... GRID
 WAVECAR not read
 entering main loop
       N       E                     dE             d eps       ncg     rms          rms(c)
DAV:   1     0.844509944611E+02    0.84451E+02   -0.11066E+04  3152   0.205E+03
DAV:   2    -0.126037801127E+01   -0.85711E+02   -0.84543E+02  3168   0.276E+02
DAV:   3    -0.347690433624E+01   -0.22165E+01   -0.22136E+01  3792   0.555E+01
DAV:   4    -0.348230235771E+01   -0.53980E-02   -0.53978E-02  3656   0.277E+00
DAV:   5    -0.348230996944E+01   -0.76117E-05   -0.76114E-05  3744   0.849E-02    0.466E+00
DAV:   6    -0.318147245157E+01    0.30084E+00   -0.14848E+00  3112   0.278E+01    0.332E+00
DAV:   7    -0.316651041302E+01    0.14962E-01   -0.48227E-02  3928   0.420E+00    0.173E+00
DAV:   8    -0.315910855739E+01    0.74019E-02   -0.20615E-03  4280   0.754E-01    0.547E-02
DAV:   9    -0.315906223800E+01    0.46319E-04   -0.27105E-04  4184   0.262E-01    0.317E-02
DAV:  10    -0.315906630793E+01   -0.40699E-05   -0.21966E-05  3472   0.483E-02    0.284E-03
DAV:  11    -0.315906612633E+01    0.18160E-06   -0.50173E-07  3816   0.126E-02    0.204E-03
DAV:  12    -0.315906584766E+01    0.27867E-06   -0.25345E-08  2024   0.350E-03    0.472E-04
DAV:  13    -0.315906586146E+01   -0.13799E-07   -0.79565E-09  1856   0.127E-03
   1 F= -.31590659E+01 E0= -.31577552E+01  d E =-.315907E+01
 curvature:   0.00 expect dE= 0.000E+00 dE for cont linesearch  0.000E+00
 trial: gam= 0.00000 g(F)=  0.423E-45 g(S)=  0.998E-02 ort = 0.000E+00 (trialstep = 0.100E+01)
 search vector abs. value=  0.998E-02
 bond charge predicted
       N       E                     dE             d eps       ncg     rms          rms(c)
DAV:   1    -0.334197309058E+01   -0.18291E+00   -0.20784E+00  3304   0.265E+01    0.297E+00
DAV:   2    -0.319176284629E+01    0.15021E+00   -0.63305E-01  3232   0.181E+01    0.104E+00
DAV:   3    -0.317375031079E+01    0.18013E-01   -0.19354E-02  3824   0.256E+00    0.573E-01
DAV:   4    -0.316624451380E+01    0.75058E-02   -0.38113E-03  4832   0.118E+00    0.546E-02
DAV:   5    -0.316627879223E+01   -0.34278E-04   -0.57829E-04  3360   0.294E-01    0.204E-02
DAV:   6    -0.316627786269E+01    0.92954E-06   -0.17941E-05  3360   0.405E-02    0.272E-03
DAV:   7    -0.316627754317E+01    0.31952E-06   -0.65119E-07  3600   0.110E-02    0.209E-03
DAV:   8    -0.316627726842E+01    0.27475E-06   -0.26969E-08  1832   0.274E-03    0.266E-04
DAV:   9    -0.316627726284E+01    0.55801E-08   -0.11175E-08  1656   0.207E-03
   2 F= -.31662773E+01 E0= -.31657220E+01  d E =-.721140E-02
 trial-energy change:   -0.007211  1 .order   -0.006842   -0.009976   -0.003708
 step:   1.3961(harm=  1.5915)  dis= 0.00000  next Energy=    -3.167035 (dE=-0.797E-02)
 bond charge predicted
       N       E                     dE             d eps       ncg     rms          rms(c)
DAV:   1    -0.319495063798E+01   -0.28673E-01   -0.33274E-01  3312   0.108E+01    0.118E+00
DAV:   2    -0.317118939120E+01    0.23761E-01   -0.94900E-02  3232   0.699E+00    0.417E-01
DAV:   3    -0.316831624522E+01    0.28731E-02   -0.23688E-03  3784   0.869E-01    0.228E-01
DAV:   4    -0.316713108199E+01    0.11852E-02   -0.59710E-04  4864   0.470E-01    0.198E-02
DAV:   5    -0.316713675748E+01   -0.56755E-05   -0.89573E-05  3312   0.113E-01    0.635E-03
DAV:   6    -0.316713619727E+01    0.56020E-06   -0.25697E-06  3360   0.202E-02    0.106E-03
DAV:   7    -0.316713609179E+01    0.10548E-06   -0.29390E-08  2152   0.230E-03    0.673E-04
DAV:   8    -0.316713598765E+01    0.10414E-06   -0.12726E-08  1624   0.191E-03    0.922E-05
DAV:   9    -0.316713598171E+01    0.59374E-08   -0.60145E-10  1592   0.302E-04
   3 F= -.31671360E+01 E0= -.31666041E+01  d E =-.807012E-02
 curvature:  -0.71 expect dE=-0.255E-02 dE for cont linesearch -0.195E-04
 trial: gam= 0.30817 g(F)=  0.287E-43 g(S)=  0.360E-02 ort = 0.524E-03 (trialstep = 0.108E+01)
 search vector abs. value=  0.487E-02
 bond charge predicted
       N       E                     dE             d eps       ncg     rms          rms(c)
DAV:   1    -0.320129920224E+01   -0.34163E-01   -0.64008E-01  3624   0.878E+00    0.115E+00
DAV:   2    -0.317976175251E+01    0.21537E-01   -0.34061E-02  3856   0.396E+00    0.648E-01
DAV:   3    -0.317027808792E+01    0.94837E-02   -0.76583E-03  4128   0.155E+00    0.190E-01
DAV:   4    -0.316973113635E+01    0.54695E-03   -0.18732E-03  4104   0.618E-01    0.487E-02
DAV:   5    -0.316974290326E+01   -0.11767E-04   -0.22342E-04  3608   0.210E-01    0.168E-02
DAV:   6    -0.316973621770E+01    0.66856E-05   -0.29656E-05  3872   0.110E-01    0.256E-03
DAV:   7    -0.316973642409E+01   -0.20639E-06   -0.92776E-07  3264   0.153E-02    0.956E-04
DAV:   8    -0.316973647612E+01   -0.52029E-07   -0.18446E-08  1736   0.161E-03
   4 F= -.31697365E+01 E0= -.31688193E+01  d E =-.260049E-02
 trial-energy change:   -0.002600  1 .order   -0.002823   -0.004058   -0.001589
 step:   1.7736(harm=  1.7736)  dis= 0.00000  next Energy=    -3.170470 (dE=-0.333E-02)
 bond charge predicted
       N       E                     dE             d eps       ncg     rms          rms(c)
DAV:   1    -0.318340948427E+01   -0.13673E-01   -0.26323E-01  3592   0.557E+00    0.738E-01
DAV:   2    -0.317461681607E+01    0.87927E-02   -0.13820E-02  3856   0.253E+00    0.416E-01
DAV:   3    -0.317068886521E+01    0.39280E-02   -0.31882E-03  4168   0.101E+00    0.119E-01
DAV:   4    -0.317047735617E+01    0.21151E-03   -0.76225E-04  4088   0.394E-01    0.312E-02
DAV:   5    -0.317048309850E+01   -0.57423E-05   -0.93723E-05  3616   0.138E-01    0.112E-02
DAV:   6    -0.317048019278E+01    0.29057E-05   -0.13030E-05  3848   0.735E-02    0.160E-03
DAV:   7    -0.317048031120E+01   -0.11842E-06   -0.39672E-07  3016   0.101E-02    0.591E-04
DAV:   8    -0.317048034738E+01   -0.36183E-07   -0.90632E-09  1584   0.104E-03
   5 F= -.31704803E+01 E0= -.31695421E+01  d E =-.334437E-02
 curvature:  -1.15 expect dE=-0.488E-03 dE for cont linesearch -0.110E-03
 ZBRENT: increasing intervall
 opt :   3.1624  next Energy=    -3.170329 (dE=-0.319E-02)
 bond charge predicted
       N       E                     dE             d eps       ncg     rms          rms(c)
DAV:   1    -0.322164186920E+01   -0.51162E-01   -0.10456E+00  3592   0.111E+01    0.147E+00
DAV:   2    -0.318719685449E+01    0.34445E-01   -0.55142E-02  3832   0.504E+00    0.833E-01
DAV:   3    -0.317148131571E+01    0.15716E-01   -0.12571E-02  4208   0.204E+00    0.238E-01
DAV:   4    -0.317062153572E+01    0.85978E-03   -0.30618E-03  4072   0.799E-01    0.616E-02
DAV:   5    -0.317064495134E+01   -0.23416E-04   -0.37808E-04  3616   0.281E-01    0.238E-02
DAV:   6    -0.317063141467E+01    0.13537E-04   -0.56606E-05  3888   0.153E-01    0.337E-03
DAV:   7    -0.317063172773E+01   -0.31306E-06   -0.18114E-06  3328   0.219E-02    0.119E-03
DAV:   8    -0.317063179123E+01   -0.63500E-07   -0.38101E-08  1792   0.228E-03
   6 F= -.31706318E+01 E0= -.31700006E+01  d E =-.349581E-02
 curvature:   1.59 expect dE= 0.426E-02 dE for cont linesearch  0.480E-03
 ZBRENT: bracketing found
 ZBRENT: interpolating
 opt :   2.2730  next Energy=    -3.170651 (dE=-0.351E-02)
 bond charge predicted
       N       E                     dE             d eps       ncg     rms          rms(c)
DAV:   1    -0.319184699110E+01   -0.21215E-01   -0.42638E-01  3624   0.693E+00    0.941E-01
DAV:   2    -0.317761582843E+01    0.14231E-01   -0.21585E-02  3784   0.314E+00    0.535E-01
DAV:   3    -0.317105241292E+01    0.65634E-02   -0.55033E-03  4128   0.135E+00    0.144E-01
DAV:   4    -0.317075803903E+01    0.29437E-03   -0.12516E-03  4072   0.490E-01    0.407E-02
DAV:   5    -0.317076379865E+01   -0.57596E-05   -0.15403E-04  3624   0.185E-01    0.159E-02
DAV:   6    -0.317075758842E+01    0.62102E-05   -0.25890E-05  3824   0.105E-01    0.197E-03
DAV:   7    -0.317075752146E+01    0.66961E-07   -0.69763E-07  3216   0.131E-02
   7 F= -.31707575E+01 E0= -.31698279E+01  d E =-.362154E-02
 curvature:  -0.56 expect dE=-0.560E-03 dE for cont linesearch -0.217E-04
 ZBRENT: interpolating
 opt :   2.9145  next Energy=    -3.170933 (dE=-0.380E-02)
 bond charge predicted
       N       E                     dE             d eps       ncg     rms          rms(c)
DAV:   1    -0.318175257299E+01   -0.10995E-01   -0.22261E-01  3608   0.509E+00    0.679E-01
DAV:   2    -0.317435982949E+01    0.73927E-02   -0.11551E-02  3840   0.232E+00    0.385E-01
DAV:   3    -0.317099010680E+01    0.33697E-02   -0.27373E-03  4224   0.949E-01    0.108E-01
DAV:   4    -0.317082231023E+01    0.16780E-03   -0.64847E-04  4072   0.362E-01    0.287E-02
DAV:   5    -0.317082757063E+01   -0.52604E-05   -0.79943E-05  3624   0.130E-01    0.110E-02
DAV:   6    -0.317082478364E+01    0.27870E-05   -0.12078E-05  3880   0.708E-02    0.149E-03
DAV:   7    -0.317082489278E+01   -0.10914E-06   -0.37076E-07  3000   0.974E-03    0.560E-04
DAV:   8    -0.317082492672E+01   -0.33945E-07   -0.92499E-09  1584   0.100E-03
   8 F= -.31708249E+01 E0= -.31701400E+01  d E =-.368895E-02
 curvature:  -4.55 expect dE=-0.950E-02 dE for cont linesearch -0.238E-03
 ZBRENT: interpolating
 opt :   2.5692  next Energy=    -3.170822 (dE=-0.369E-02)
 bond charge predicted
       N       E                     dE             d eps       ncg     rms          rms(c)
DAV:   1    -0.317402968185E+01   -0.32048E-02   -0.64288E-02  3624   0.270E+00    0.365E-01
DAV:   2    -0.317189525961E+01    0.21344E-02   -0.32798E-03  3816   0.124E+00    0.207E-01
DAV:   3    -0.317090484394E+01    0.99042E-03   -0.81488E-04  4152   0.522E-01    0.566E-02
DAV:   4    -0.317085667911E+01    0.48165E-04   -0.18907E-04  4080   0.191E-01    0.157E-02
DAV:   5    -0.317085730640E+01   -0.62729E-06   -0.23677E-05  3632   0.724E-02    0.622E-03
DAV:   6    -0.317085630012E+01    0.10063E-05   -0.39240E-06  3824   0.408E-02    0.780E-04
DAV:   7    -0.317085626261E+01    0.37511E-07   -0.10287E-07  1880   0.521E-03
   9 F= -.31708563E+01 E0= -.31700341E+01  d E =-.372028E-02
 curvature:  -1.23 expect dE=-0.177E-02 dE for cont linesearch -0.675E-05
 trial: gam= 0.64371 g(F)=  0.287E-45 g(S)=  0.144E-02 ort = 0.164E-03 (trialstep = 0.138E+01)
 search vector abs. value=  0.367E-02
 bond charge predicted
       N       E                     dE             d eps       ncg     rms          rms(c)
DAV:   1    -0.324093471093E+01   -0.70078E-01   -0.10252E+00  3512   0.156E+01    0.182E+00
DAV:   2    -0.318553375893E+01    0.55401E-01   -0.19207E-01  3368   0.972E+00    0.783E-01
DAV:   3    -0.317477060263E+01    0.10763E-01   -0.73754E-03  3736   0.160E+00    0.406E-01
DAV:   4    -0.317119068083E+01    0.35799E-02   -0.33874E-03  4704   0.106E+00    0.477E-02
DAV:   5    -0.317123008513E+01   -0.39404E-04   -0.55572E-04  3392   0.305E-01    0.144E-02
DAV:   6    -0.317122766843E+01    0.24167E-05   -0.26942E-05  3360   0.940E-02    0.291E-03
DAV:   7    -0.317122753513E+01    0.13331E-06   -0.49962E-07  3664   0.132E-02    0.146E-03
DAV:   8    -0.317122741461E+01    0.12052E-06   -0.10966E-07  1728   0.632E-03    0.912E-05
DAV:   9    -0.317122741509E+01   -0.48010E-09   -0.61236E-09  1600   0.872E-04
  10 F= -.31712274E+01 E0= -.31706126E+01  d E =-.371152E-03
 trial-energy change:   -0.000371  1 .order   -0.000118   -0.002133    0.001898
 step:   0.8515(harm=  0.7288)  dis= 0.00000  next Energy=    -3.171576 (dE=-0.719E-03)
 bond charge predicted
       N       E                     dE             d eps       ncg     rms          rms(c)
DAV:   1    -0.318188139626E+01   -0.10654E-01   -0.15261E-01  3512   0.615E+00    0.695E-01
DAV:   2    -0.317371210966E+01    0.81693E-02   -0.26872E-02  3608   0.363E+00    0.301E-01
DAV:   3    -0.317210968948E+01    0.16024E-02   -0.86943E-04  3792   0.534E-01    0.153E-01
DAV:   4    -0.317159840954E+01    0.51128E-03   -0.50560E-04  4736   0.391E-01    0.185E-02
DAV:   5    -0.317160535829E+01   -0.69487E-05   -0.86683E-05  3416   0.129E-01    0.677E-03
DAV:   6    -0.317160474132E+01    0.61697E-06   -0.83220E-06  3336   0.564E-02    0.198E-03
DAV:   7    -0.317160481638E+01   -0.75059E-07   -0.31551E-07  2992   0.124E-02
  11 F= -.31716048E+01 E0= -.31710197E+01  d E =-.748554E-03
 curvature:  -0.83 expect dE=-0.234E-03 dE for cont linesearch -0.132E-06
 trial: gam=-0.13880 g(F)=  0.921E-44 g(S)=  0.280E-03 ort = 0.242E-04 (trialstep = 0.127E+01)
 search vector abs. value=  0.344E-03
 bond charge predicted
       N       E                     dE             d eps       ncg     rms          rms(c)
DAV:   1    -0.317831850549E+01   -0.67138E-02   -0.90828E-02  3336   0.508E+00    0.570E-01
DAV:   2    -0.317291878154E+01    0.53997E-02   -0.19641E-02  3504   0.314E+00    0.229E-01
DAV:   3    -0.317200739494E+01    0.91139E-03   -0.58649E-04  3592   0.438E-01    0.121E-01
DAV:   4    -0.317167574486E+01    0.33165E-03   -0.26104E-04  4216   0.297E-01    0.133E-02
DAV:   5    -0.317167754475E+01   -0.17999E-05   -0.40863E-05  3568   0.849E-02    0.352E-03
DAV:   6    -0.317167724273E+01    0.30202E-06   -0.20503E-06  3296   0.255E-02    0.863E-04
DAV:   7    -0.317167714757E+01    0.95162E-07   -0.16118E-08  1784   0.228E-03
  12 F= -.31716771E+01 E0= -.31710589E+01  d E =-.723312E-04
 trial-energy change:   -0.000072  1 .order   -0.000073   -0.000352    0.000206
 step:   0.8001(harm=  0.8021)  dis= 0.00000  next Energy=    -3.171715 (dE=-0.111E-03)
 bond charge predicted
       N       E                     dE             d eps       ncg     rms          rms(c)
DAV:   1    -0.317262829533E+01   -0.95105E-03   -0.12562E-02  3336   0.190E+00    0.211E-01
DAV:   2    -0.317187658532E+01    0.75171E-03   -0.26678E-03  3512   0.115E+00    0.854E-02
DAV:   3    -0.317175127121E+01    0.12531E-03   -0.74567E-05  3552   0.154E-01    0.448E-02
DAV:   4    -0.317171008110E+01    0.41190E-04   -0.36772E-05  4256   0.109E-01    0.490E-03
DAV:   5    -0.317171084690E+01   -0.76580E-06   -0.55666E-06  3560   0.321E-02    0.142E-03
DAV:   6    -0.317171085089E+01   -0.39857E-08   -0.36619E-07  3000   0.113E-02
  13 F= -.31717109E+01 E0= -.31711119E+01  d E =-.106035E-03
 curvature:  -0.50 expect dE=-0.508E-06 dE for cont linesearch -0.202E-08
 trial: gam=-0.02023 g(F)=  0.575E-44 g(S)=  0.102E-05 ort =-0.118E-05 (trialstep = 0.118E+01)
 search vector abs. value=  0.121E-05
 reached required accuracy - stopping structural energy minimisation
