<?xml version="1.0" encoding="ISO-8859-1"?>
<modeling>
 <generator>
  <i name="program" type="string">vasp </i>
  <i name="version" type="string">6.5.1  </i>
  <i name="subversion" type="string">10Mar25 (build May 13 2025 11:33:44) complex                          parallel </i>
  <i name="platform" type="string">LinuxNV </i>
  <i name="date" type="string">2026 05 16 </i>
  <i name="time" type="string">18:47:57 </i>
 </generator>
 <incar>
  <i type="string" name="PREC">Normal</i>
  <i type="string" name="ALGO">Normal</i>
  <i type="int" name="NELM">   100</i>
  <i type="int" name="IBRION">     2</i>
  <i name="EDIFF">      0.00000010</i>
  <i name="EDIFFG">     -0.00500000</i>
  <i type="int" name="NSW">   300</i>
  <i type="int" name="ISIF">     3</i>
  <i name="ENCUT">    400.00000000</i>
  <i type="logical" name="LREAL"> F  </i>
  <i type="int" name="ISMEAR">     0</i>
  <i name="SIGMA">      0.10000000</i>
  <i type="logical" name="LWAVE"> F  </i>
  <i type="logical" name="LCHARG"> F  </i>
  <i type="int" name="LORBIT">    10</i>
  <i type="logical" name="LASPH"> T  </i>
  <i type="string" name="GGA">Ps</i>
 </incar>
 <primitive_cell>
  <structure name="primitive_cell" >
   <crystal>
    <varray name="basis" >
     <v>       2.61435980       0.00000000       0.00000000 </v>
     <v>      -1.30717990       2.26410200       0.00000000 </v>
     <v>       0.00000000       0.00000000       4.87316102 </v>
    </varray>
    <i name="volume">     28.84510390 </i>
    <varray name="rec_basis" >
     <v>       0.38250282       0.22083811      -0.00000000 </v>
     <v>       0.00000000       0.44167621       0.00000000 </v>
     <v>       0.00000000      -0.00000000       0.20520561 </v>
    </varray>
   </crystal>
   <varray name="positions" >
    <v>       0.33333333       0.66666667       0.25000000 </v>
    <v>       0.66666667       0.33333333       0.75000000 </v>
   </varray>
  </structure>
  <varray name="primitive_index" >
   <v type="int" >        1 </v>
   <v type="int" >        2 </v>
  </varray>
 </primitive_cell>
 <kpoints>
  <generation param="Gamma">
   <v type="int" name="divisions">      14       14        7 </v>
   <v name="usershift">      0.00000000       0.00000000       0.00000000 </v>
   <v name="genvec1">      0.07142857       0.00000000       0.00000000 </v>
   <v name="genvec2">      0.00000000       0.07142857       0.00000000 </v>
   <v name="genvec3">      0.00000000       0.00000000       0.14285714 </v>
   <v name="shift">      0.00000000       0.00000000       0.00000000 </v>
  </generation>
  <varray name="kpointlist" >
   <v>       0.00000000       0.00000000       0.00000000 </v>
   <v>       0.07142857       0.00000000       0.00000000 </v>
   <v>       0.14285714       0.00000000       0.00000000 </v>
   <v>       0.21428571       0.00000000       0.00000000 </v>
   <v>       0.28571429       0.00000000       0.00000000 </v>
   <v>       0.35714286       0.00000000       0.00000000 </v>
   <v>       0.42857143       0.00000000       0.00000000 </v>
   <v>       0.50000000       0.00000000       0.00000000 </v>
   <v>       0.07142857       0.07142857       0.00000000 </v>
   <v>       0.14285714       0.07142857       0.00000000 </v>
   <v>       0.21428571       0.07142857       0.00000000 </v>
   <v>       0.28571429       0.07142857       0.00000000 </v>
   <v>       0.35714286       0.07142857       0.00000000 </v>
   <v>       0.42857143       0.07142857       0.00000000 </v>
   <v>       0.14285714       0.14285714       0.00000000 </v>
   <v>       0.21428571       0.14285714       0.00000000 </v>
   <v>       0.28571429       0.14285714       0.00000000 </v>
   <v>       0.35714286       0.14285714       0.00000000 </v>
   <v>       0.42857143       0.14285714       0.00000000 </v>
   <v>       0.21428571       0.21428571       0.00000000 </v>
   <v>       0.28571429       0.21428571       0.00000000 </v>
   <v>       0.35714286       0.21428571       0.00000000 </v>
   <v>       0.28571429       0.28571429       0.00000000 </v>
   <v>       0.35714286       0.28571429       0.00000000 </v>
   <v>       0.00000000       0.00000000       0.14285714 </v>
   <v>       0.07142857       0.00000000       0.14285714 </v>
   <v>       0.14285714       0.00000000       0.14285714 </v>
   <v>       0.21428571       0.00000000       0.14285714 </v>
   <v>       0.28571429       0.00000000       0.14285714 </v>
   <v>       0.35714286       0.00000000       0.14285714 </v>
   <v>       0.42857143       0.00000000       0.14285714 </v>
   <v>       0.50000000       0.00000000       0.14285714 </v>
   <v>       0.07142857       0.07142857       0.14285714 </v>
   <v>       0.14285714       0.07142857       0.14285714 </v>
   <v>       0.21428571       0.07142857       0.14285714 </v>
   <v>       0.28571429       0.07142857       0.14285714 </v>
   <v>       0.35714286       0.07142857       0.14285714 </v>
   <v>       0.42857143       0.07142857       0.14285714 </v>
   <v>       0.14285714       0.14285714       0.14285714 </v>
   <v>       0.21428571       0.14285714       0.14285714 </v>
   <v>       0.28571429       0.14285714       0.14285714 </v>
   <v>       0.35714286       0.14285714       0.14285714 </v>
   <v>       0.42857143       0.14285714       0.14285714 </v>
   <v>       0.21428571       0.21428571       0.14285714 </v>
   <v>       0.28571429       0.21428571       0.14285714 </v>
   <v>       0.35714286       0.21428571       0.14285714 </v>
   <v>       0.28571429       0.28571429       0.14285714 </v>
   <v>       0.35714286       0.28571429       0.14285714 </v>
   <v>       0.00000000       0.00000000       0.28571429 </v>
   <v>       0.07142857       0.00000000       0.28571429 </v>
   <v>       0.14285714       0.00000000       0.28571429 </v>
   <v>       0.21428571       0.00000000       0.28571429 </v>
   <v>       0.28571429       0.00000000       0.28571429 </v>
   <v>       0.35714286       0.00000000       0.28571429 </v>
   <v>       0.42857143       0.00000000       0.28571429 </v>
   <v>       0.50000000       0.00000000       0.28571429 </v>
   <v>       0.07142857       0.07142857       0.28571429 </v>
   <v>       0.14285714       0.07142857       0.28571429 </v>
   <v>       0.21428571       0.07142857       0.28571429 </v>
   <v>       0.28571429       0.07142857       0.28571429 </v>
   <v>       0.35714286       0.07142857       0.28571429 </v>
   <v>       0.42857143       0.07142857       0.28571429 </v>
   <v>       0.14285714       0.14285714       0.28571429 </v>
   <v>       0.21428571       0.14285714       0.28571429 </v>
   <v>       0.28571429       0.14285714       0.28571429 </v>
   <v>       0.35714286       0.14285714       0.28571429 </v>
   <v>       0.42857143       0.14285714       0.28571429 </v>
   <v>       0.21428571       0.21428571       0.28571429 </v>
   <v>       0.28571429       0.21428571       0.28571429 </v>
   <v>       0.35714286       0.21428571       0.28571429 </v>
   <v>       0.28571429       0.28571429       0.28571429 </v>
   <v>       0.35714286       0.28571429       0.28571429 </v>
   <v>       0.00000000       0.00000000       0.42857143 </v>
   <v>       0.07142857       0.00000000       0.42857143 </v>
   <v>       0.14285714       0.00000000       0.42857143 </v>
   <v>       0.21428571       0.00000000       0.42857143 </v>
   <v>       0.28571429       0.00000000       0.42857143 </v>
   <v>       0.35714286       0.00000000       0.42857143 </v>
   <v>       0.42857143       0.00000000       0.42857143 </v>
   <v>       0.50000000       0.00000000       0.42857143 </v>
   <v>       0.07142857       0.07142857       0.42857143 </v>
   <v>       0.14285714       0.07142857       0.42857143 </v>
   <v>       0.21428571       0.07142857       0.42857143 </v>
   <v>       0.28571429       0.07142857       0.42857143 </v>
   <v>       0.35714286       0.07142857       0.42857143 </v>
   <v>       0.42857143       0.07142857       0.42857143 </v>
   <v>       0.14285714       0.14285714       0.42857143 </v>
   <v>       0.21428571       0.14285714       0.42857143 </v>
   <v>       0.28571429       0.14285714       0.42857143 </v>
   <v>       0.35714286       0.14285714       0.42857143 </v>
   <v>       0.42857143       0.14285714       0.42857143 </v>
   <v>       0.21428571       0.21428571       0.42857143 </v>
   <v>       0.28571429       0.21428571       0.42857143 </v>
   <v>       0.35714286       0.21428571       0.42857143 </v>
   <v>       0.28571429       0.28571429       0.42857143 </v>
   <v>       0.35714286       0.28571429       0.42857143 </v>
  </varray>
  <varray name="weights" >
   <v>       0.00072886 </v>
   <v>       0.00437318 </v>
   <v>       0.00437318 </v>
   <v>       0.00437318 </v>
   <v>       0.00437318 </v>
   <v>       0.00437318 </v>
   <v>       0.00437318 </v>
   <v>       0.00218659 </v>
   <v>       0.00437318 </v>
   <v>       0.00874636 </v>
   <v>       0.00874636 </v>
   <v>       0.00874636 </v>
   <v>       0.00874636 </v>
   <v>       0.00874636 </v>
   <v>       0.00437318 </v>
   <v>       0.00874636 </v>
   <v>       0.00874636 </v>
   <v>       0.00874636 </v>
   <v>       0.00437318 </v>
   <v>       0.00437318 </v>
   <v>       0.00874636 </v>
   <v>       0.00874636 </v>
   <v>       0.00437318 </v>
   <v>       0.00437318 </v>
   <v>       0.00145773 </v>
   <v>       0.00874636 </v>
   <v>       0.00874636 </v>
   <v>       0.00874636 </v>
   <v>       0.00874636 </v>
   <v>       0.00874636 </v>
   <v>       0.00874636 </v>
   <v>       0.00437318 </v>
   <v>       0.00874636 </v>
   <v>       0.01749271 </v>
   <v>       0.01749271 </v>
   <v>       0.01749271 </v>
   <v>       0.01749271 </v>
   <v>       0.01749271 </v>
   <v>       0.00874636 </v>
   <v>       0.01749271 </v>
   <v>       0.01749271 </v>
   <v>       0.01749271 </v>
   <v>       0.00874636 </v>
   <v>       0.00874636 </v>
   <v>       0.01749271 </v>
   <v>       0.01749271 </v>
   <v>       0.00874636 </v>
   <v>       0.00874636 </v>
   <v>       0.00145773 </v>
   <v>       0.00874636 </v>
   <v>       0.00874636 </v>
   <v>       0.00874636 </v>
   <v>       0.00874636 </v>
   <v>       0.00874636 </v>
   <v>       0.00874636 </v>
   <v>       0.00437318 </v>
   <v>       0.00874636 </v>
   <v>       0.01749271 </v>
   <v>       0.01749271 </v>
   <v>       0.01749271 </v>
   <v>       0.01749271 </v>
   <v>       0.01749271 </v>
   <v>       0.00874636 </v>
   <v>       0.01749271 </v>
   <v>       0.01749271 </v>
   <v>       0.01749271 </v>
   <v>       0.00874636 </v>
   <v>       0.00874636 </v>
   <v>       0.01749271 </v>
   <v>       0.01749271 </v>
   <v>       0.00874636 </v>
   <v>       0.00874636 </v>
   <v>       0.00145773 </v>
   <v>       0.00874636 </v>
   <v>       0.00874636 </v>
   <v>       0.00874636 </v>
   <v>       0.00874636 </v>
   <v>       0.00874636 </v>
   <v>       0.00874636 </v>
   <v>       0.00437318 </v>
   <v>       0.00874636 </v>
   <v>       0.01749271 </v>
   <v>       0.01749271 </v>
   <v>       0.01749271 </v>
   <v>       0.01749271 </v>
   <v>       0.01749271 </v>
   <v>       0.00874636 </v>
   <v>       0.01749271 </v>
   <v>       0.01749271 </v>
   <v>       0.01749271 </v>
   <v>       0.00874636 </v>
   <v>       0.00874636 </v>
   <v>       0.01749271 </v>
   <v>       0.01749271 </v>
   <v>       0.00874636 </v>
   <v>       0.00874636 </v>
  </varray>
 </kpoints>
 <parameters>
  <separator name="general" >
   <i type="string" name="SYSTEM">unknown system</i>
   <i type="logical" name="LCOMPAT"> F  </i>
  </separator>
  <separator name="electronic" >
   <i type="string" name="PREC">normal</i>
   <i name="ENMAX">    400.00000000</i>
   <i name="ENAUG">    575.89200000</i>
   <i name="EDIFF">      0.00000010</i>
   <i type="int" name="IALGO">    38</i>
   <i type="int" name="IWAVPR">    11</i>
   <i type="int" name="NBANDS">    16</i>
   <i type="int" name="NBANDSLOW">    -1</i>
   <i type="int" name="NBANDSHIGH">    -1</i>
   <i name="NELECT">     24.00000000</i>
   <i type="int" name="TURBO">     0</i>
   <i type="int" name="IRESTART">     0</i>
   <i type="int" name="NREBOOT">     0</i>
   <i type="int" name="NMIN">     0</i>
   <i name="EREF">      0.00000000</i>
   <separator name="electronic smearing" >
    <i type="int" name="ISMEAR">     0</i>
    <i name="SIGMA">      0.10000000</i>
    <i name="KSPACING">      0.50000000</i>
    <i type="logical" name="KGAMMA"> T  </i>
    <i type="logical" name="KBLOWUP"> T  </i>
   </separator>
   <separator name="electronic projectors" >
    <i type="logical" name="LREAL"> F  </i>
    <v name="ROPT">      0.00000000</v>
    <i type="int" name="LMAXPAW">  -100</i>
    <i type="int" name="LMAXMIX">     2</i>
    <i type="logical" name="NLSPLINE"> F  </i>
   </separator>
   <separator name="electronic startup" >
    <i type="int" name="ISTART">     0</i>
    <i type="int" name="ICHARG">     2</i>
    <i type="int" name="INIWAV">     1</i>
   </separator>
   <separator name="electronic spin" >
    <i type="int" name="ISPIN">     1</i>
    <i type="logical" name="LNONCOLLINEAR"> F  </i>
    <v name="MAGMOM">      1.00000000      1.00000000</v>
    <i name="NUPDOWN">     -1.00000000</i>
    <i type="logical" name="LSORBIT"> F  </i>
    <v name="SAXIS">      0.00000000      0.00000000      1.00000000</v>
    <i type="logical" name="LSPIRAL"> F  </i>
    <v name="QSPIRAL">      0.00000000      0.00000000      0.00000000</v>
    <i type="logical" name="LZEROZ"> F  </i>
   </separator>
   <separator name="electronic exchange-correlation" >
    <i type="logical" name="LASPH"> T  </i>
   </separator>
   <separator name="electronic convergence" >
    <i type="int" name="NELM">   100</i>
    <i type="int" name="NELMDL">    -5</i>
    <i type="int" name="NELMIN">     2</i>
    <i name="ENINI">    400.00000000</i>
    <separator name="electronic convergence detail" >
     <i type="logical" name="LDIAG"> T  </i>
     <i type="logical" name="LSUBROT"> F  </i>
     <i type="logical" name="LROBUST"> F  </i>
     <i type="int" name="ISEARCH">     0</i>
     <i name="WEIMIN">      0.00100000</i>
     <i name="EBREAK">      0.00000000</i>
     <i name="DEPER">      0.30000000</i>
     <i type="int" name="NRMM">     4</i>
     <i name="TIME">      0.40000000</i>
    </separator>
   </separator>
   <separator name="electronic mixer" >
    <i name="AMIX">      0.40000000</i>
    <i name="BMIX">      1.00000000</i>
    <i name="AMIN">      0.10000000</i>
    <i name="AMIX_MAG">      1.60000000</i>
    <i name="BMIX_MAG">      1.00000000</i>
    <separator name="electronic mixer details" >
     <i type="int" name="IMIX">     4</i>
     <i type="logical" name="MIXFIRST"> F  </i>
     <i type="int" name="MAXMIX">   -45</i>
     <i name="WC">    100.00000000</i>
     <i type="int" name="INIMIX">     1</i>
     <i type="int" name="MIXPRE">     1</i>
     <i type="int" name="MREMOVE">     5</i>
    </separator>
   </separator>
   <separator name="electronic dipolcorrection" >
    <i type="logical" name="LDIPOL"> F  </i>
    <i type="logical" name="LMONO"> F  </i>
    <i type="int" name="IDIPOL">     0</i>
    <i name="EPSILON">      1.00000000</i>
    <v name="DIPOL">   -100.00000000   -100.00000000   -100.00000000</v>
    <i name="EFIELD">      0.00000000</i>
    <i type="logical" name="LVACPOTAV"> F  </i>
   </separator>
  </separator>
  <separator name="grids" >
   <i type="int" name="NGX">    14</i>
   <i type="int" name="NGY">    14</i>
   <i type="int" name="NGZ">    24</i>
   <i type="int" name="NGXF">    28</i>
   <i type="int" name="NGYF">    28</i>
   <i type="int" name="NGZF">    48</i>
   <i type="logical" name="ADDGRID"> F  </i>
  </separator>
  <separator name="ionic" >
   <i type="int" name="NSW">   300</i>
   <i type="int" name="IBRION">     2</i>
   <i type="int" name="MDALGO">     0</i>
   <i type="int" name="ISIF">     3</i>
   <i name="PSTRESS">      0.00000000</i>
   <i name="EDIFFG">     -0.00500000</i>
   <i type="int" name="NFREE">     1</i>
   <i name="POTIM">      0.50000000</i>
   <i name="SMASS">     -3.00000000</i>
   <i name="SCALEE">      1.00000000</i>
  </separator>
  <separator name="ionic md" >
   <i name="TEBEG">      0.00010000</i>
   <i name="TEEND">      0.00010000</i>
   <i type="int" name="NBLOCK">     1</i>
   <i type="int" name="KBLOCK">   300</i>
   <i type="int" name="NPACO">   256</i>
   <i name="APACO">     10.00000000</i>
  </separator>
  <separator name="symmetry" >
   <i type="int" name="ISYM">     2</i>
   <i name="SYMPREC">      0.00001000</i>
  </separator>
  <separator name="dos" >
   <i type="int" name="LORBIT">    10</i>
   <v name="RWIGS">     -1.00000000</v>
   <i type="int" name="NEDOS">   301</i>
   <i name="EMIN">     10.00000000</i>
   <i name="EMAX">    -10.00000000</i>
   <i name="EFERMI">      0.00000000</i>
  </separator>
  <separator name="writing" >
   <i type="int" name="NWRITE">     2</i>
   <i type="logical" name="LWAVE"> F  </i>
   <i type="logical" name="LDOWNSAMPLE"> F  </i>
   <i type="logical" name="LCHARG"> F  </i>
   <i type="logical" name="LPARD"> F  </i>
   <i type="logical" name="LVTOT"> F  </i>
   <i type="logical" name="LVHAR"> F  </i>
   <i type="logical" name="LELF"> F  </i>
   <i type="logical" name="LOPTICS"> F  </i>
   <v name="STM">      0.00000000      0.00000000      0.00000000      0.00000000      0.00000000      0.00000000      0.00000000</v>
  </separator>
  <separator name="performance" >
   <i type="int" name="NPAR">     1</i>
   <i type="int" name="NSIM">     4</i>
   <i type="int" name="NBLK">    -1</i>
   <i type="logical" name="LPLANE"> T  </i>
   <i type="logical" name="LSCALAPACK"> T  </i>
   <i type="logical" name="LSCAAWARE"> F  </i>
   <i type="logical" name="LSCALU"> F  </i>
   <i type="logical" name="LASYNC"> F  </i>
   <i type="logical" name="LORBITALREAL"> F  </i>
  </separator>
  <separator name="miscellaneous" >
   <i type="int" name="IDIOT">     3</i>
   <i type="int" name="PHON_NSTRUCT">    -1</i>
   <i type="logical" name="LMUSIC"> F  </i>
   <v name="POMASS">     65.39000000</v>
   <v name="DARWINR">      0.00000000</v>
   <v name="DARWINV">      1.00000000</v>
   <i type="logical" name="LCORR"> T  </i>
  </separator>
  <i type="logical" name="GGA_COMPAT"> T  </i>
  <i type="logical" name="LBERRY"> F  </i>
  <i type="int" name="ICORELEVEL">     0</i>
  <i type="logical" name="LDAU"> F  </i>
  <i type="int" name="I_CONSTRAINED_M">     0</i>
  <separator name="electronic exchange-correlation" >
   <i type="string" name="GGA    ">PS</i>
   <i type="string" name="XC_C">1</i>
   <i type="int" name="VOSKOWN">     0</i>
   <i type="logical" name="LHFCALC"> F  </i>
   <i type="string" name="PRECFOCK"></i>
   <i type="logical" name="LSYMGRAD"> F  </i>
   <i type="logical" name="LHFONE"> F  </i>
   <i type="logical" name="LRHFCALC"> F  </i>
   <i type="logical" name="LTHOMAS"> F  </i>
   <i type="logical" name="LMODELHF"> F  </i>
   <i type="logical" name="LFOCKACE"> F  </i>
   <i name="ENCUT4O">     -1.00000000</i>
   <i type="int" name="EXXOEP">     0</i>
   <i type="int" name="FOURORBIT">     0</i>
   <i name="AEXX">      0.00000000</i>
   <i name="HFALPHA">      0.00000000</i>
   <i name="MCALPHA">      0.00000000</i>
   <i name="ALDAX">      1.00000000</i>
   <i name="AGGAX">      1.00000000</i>
   <i name="AMGGAX">      1.00000000</i>
   <i name="ALDAC">      1.00000000</i>
   <i name="AGGAC">      1.00000000</i>
   <i name="AMGGAC">      1.00000000</i>
   <i type="int" name="NKREDX">     1</i>
   <i type="int" name="NKREDY">     1</i>
   <i type="int" name="NKREDZ">     1</i>
   <i type="logical" name="SHIFTRED"> F  </i>
   <i type="logical" name="ODDONLY"> F  </i>
   <i type="logical" name="EVENONLY"> F  </i>
   <i type="int" name="LMAXFOCK">     0</i>
   <i type="int" name="NMAXFOCKAE">     0</i>
   <i type="logical" name="LFOCKAEDFT"> F  </i>
   <i name="HFSCREEN">      0.00000000</i>
   <i name="HFSCREENC">      0.00000000</i>
   <i type="int" name="NBANDSGWLOW">     0</i>
  </separator>
  <separator name="vdW DFT" >
   <i type="logical" name="LUSE_VDW"> F  </i>
   <i type="int" name="IVDW_NL">    -1</i>
   <i type="logical" name="LSPIN_VDW"> F  </i>
   <i name="ZAB_VDW">     -0.84910000</i>
   <i name="GAMMA_VDW">      1.39626340</i>
   <i name="ALPHA_VDW">      0.00000000</i>
   <i name="PARAM1">      0.12340000</i>
   <i name="PARAM2">      1.00000000</i>
   <i name="BPARAM">      6.30000000</i>
   <i name="CPARAM">      0.00930000</i>
  </separator>
  <separator name="model GW" >
   <i type="int" name="MODEL_GW">     0</i>
   <i name="MODEL_EPS0">      8.65353117</i>
   <i name="MODEL_ALPHA">      1.00000000</i>
  </separator>
  <separator name="linear response parameters" >
   <i type="logical" name="LEPSILON"> F  </i>
   <i type="logical" name="LRPA"> F  </i>
   <i type="logical" name="LNABLA"> F  </i>
   <i type="logical" name="LVEL"> F  </i>
   <i name="CSHIFT">      0.10000000</i>
   <i name="OMEGAMAX">     -1.00000000</i>
   <i name="DEG_THRESHOLD">      0.00200000</i>
   <i name="RTIME">     -0.10000000</i>
   <i name="WPLASMAI">      0.00000000</i>
   <v name="DFIELD">      0.00000000      0.00000000      0.00000000</v>
   <v name="WPLASMA">      0.00000000      0.00000000      0.00000000      0.00000000      0.00000000      0.00000000      0.00000000      0.00000000      0.00000000</v>
  </separator>
  <separator name="orbital magnetization" >
   <i type="logical" name="NUCIND"> F  </i>
   <v name="MAGPOS">      0.00000000      0.00000000      0.00000000</v>
   <i type="logical" name="LNICSALL"> T  </i>
   <i type="logical" name="ORBITALMAG"> F  </i>
   <i type="logical" name="LMAGBLOCH"> F  </i>
   <i type="logical" name="LCHIMAG"> F  </i>
   <i type="logical" name="LGAUGE"> T  </i>
   <i type="int" name="MAGATOM">     0</i>
   <v name="MAGDIPOL">      0.00000000      0.00000000      0.00000000</v>
   <v name="AVECCONST">      0.00000000      0.00000000      0.00000000</v>
  </separator>
  <separator name="response functions" >
   <i type="logical" name="LALL_IN_ONE"> F  </i>
   <i type="int" name="IALL_IN_ONE">    -1</i>
   <i type="int" name="NBANDS_WAVE">    -1</i>
   <i type="logical" name="LFINITE_TEMPERATURE"> F  </i>
   <i type="logical" name="LADDER"> F  </i>
   <i type="logical" name="LRPAFORCE"> F  </i>
   <i type="logical" name="LFXC"> F  </i>
   <i type="logical" name="LHARTREE"> T  </i>
   <i type="int" name="IBSE">     2</i>
   <v type="int" name="KPOINT">    -1     0     0     0</v>
   <i type="logical" name="LTCTC"> F  </i>
   <i type="logical" name="LTCTE"> F  </i>
   <i type="logical" name="LTETE"> F  </i>
   <i type="logical" name="LTRIPLET"> F  </i>
   <i type="logical" name="LFXCEPS"> F  </i>
   <i type="logical" name="LFXHEG"> F  </i>
   <i type="int" name="NATURALO">     2</i>
   <i type="logical" name="LHOLEGF"> F  </i>
   <i type="logical" name="L2ORDER"> F  </i>
   <i type="logical" name="LDMP1"> F  </i>
   <i type="logical" name="LMP2LT"> F  </i>
   <i type="logical" name="LSMP2LT"> F  </i>
   <i type="logical" name="LGWLF"> F  </i>
   <i name="ENCUTGW">     -1.60000002</i>
   <i name="ENCUTGWSOFT">     -1.60000002</i>
   <i name="ENCUTLF">     -1.00000000</i>
   <i type="logical" name="ESF_SPLINES"> F  </i>
   <i name="ESF_CONV">      0.01000000</i>
   <i type="int" name="ESF_NINTER">    15</i>
   <i type="int" name="LMAXMP2">    -1</i>
   <i name="SCISSOR">      0.00000000</i>
   <i type="int" name="NOMEGA">     0</i>
   <i type="int" name="NOMEGAR">     0</i>
   <i type="int" name="NBANDSGW">    -1</i>
   <i type="int" name="NBANDSO">    -1</i>
   <i type="int" name="NBANDSV">    -1</i>
   <i type="int" name="NELMGW">     1</i>
   <i type="int" name="NELMHF">     1</i>
   <i type="int" name="DIM">     3</i>
   <i type="int" name="IESPILON">     4</i>
   <i type="int" name="ANTIRES">     0</i>
   <i name="OMEGAMAX">    -30.00000000</i>
   <i name="OMEGAMIN">    -30.00000000</i>
   <i name="OMEGATL">   -200.00000000</i>
   <i type="int" name="OMEGAGRID">     0</i>
   <i name="CSHIFT">     -0.10000000</i>
   <i type="logical" name="LSELFENERGY"> F  </i>
   <i type="logical" name="LSPECTRAL"> F  </i>
   <i type="logical" name="LSPECTRALGW"> F  </i>
   <i type="logical" name="LSINGLES"> F  </i>
   <i type="logical" name="LFERMIGW"> F  </i>
   <i type="logical" name="ODDONLYGW"> F  </i>
   <i type="logical" name="EVENONLYGW"> F  </i>
   <i type="int" name="NKREDLFX">     1</i>
   <i type="int" name="NKREDLFY">     1</i>
   <i type="int" name="NKREDLFZ">     1</i>
   <i type="int" name="MAXMEM">  2800</i>
   <i type="int" name="TELESCOPE">     0</i>
   <i type="int" name="NTAUPAR">    -1</i>
   <i type="int" name="NOMEGAPAR">    -1</i>
   <i name="DAMP_NEWTON">      0.80000001</i>
   <i name="LAMBDA">      1.00000000</i>
  </separator>
  <separator name="External order field" >
   <i name="OFIELD_KAPPA">      0.00000000</i>
   <v name="OFIELD_K">      0.00000000      0.00000000      0.00000000</v>
   <i name="OFIELD_Q6_NEAR">      0.00000000</i>
   <i name="OFIELD_Q6_FAR">      0.00000000</i>
   <i name="OFIELD_A">      0.00000000</i>
  </separator>
  <separator name="optional k-points parameters" >
   <i type="int" name="KPOINTS_OPT_MODE">     1</i>
   <i type="logical" name="LKPOINTS_OPT"> F  </i>
  </separator>
 </parameters>
 <atominfo>
  <atoms>       2 </atoms>
  <types>       1 </types>
  <array name="atoms" >
   <dimension dim="1">ion</dimension>
   <field type="string">element</field>
   <field type="int">atomtype</field>
   <set>
    <rc><c>Zn</c><c>   1</c></rc>
    <rc><c>Zn</c><c>   1</c></rc>
   </set>
  </array>
  <array name="atomtypes" >
   <dimension dim="1">type</dimension>
   <field type="int">atomspertype</field>
   <field type="string">element</field>
   <field>mass</field>
   <field>valence</field>
   <field type="string">pseudopotential</field>
   <set>
    <rc><c>   2</c><c>Zn</c><c>     65.39000000</c><c>     12.00000000</c><c>  PAW_PBE Zn 06Sep2000                  </c></rc>
   </set>
  </array>
 </atominfo>
 <structure name="initialpos" >
  <crystal>
   <varray name="basis" >
    <v>       2.61435980       0.00000000       0.00000000 </v>
    <v>      -1.30717990       2.26410200       0.00000000 </v>
    <v>       0.00000000       0.00000000       4.87316102 </v>
   </varray>
   <i name="volume">     28.84510390 </i>
   <varray name="rec_basis" >
    <v>       0.38250282       0.22083811      -0.00000000 </v>
    <v>       0.00000000       0.44167621       0.00000000 </v>
    <v>       0.00000000      -0.00000000       0.20520561 </v>
   </varray>
  </crystal>
  <varray name="positions" >
   <v>       0.33333333       0.66666667       0.25000000 </v>
   <v>       0.66666667       0.33333333       0.75000000 </v>
  </varray>
 </structure>
 <calculation>
  <scstep>
   <time name="dav">    0.83    1.09</time>
   <time name="total">    0.91    1.17</time>
   <energy>
    <i name="alphaZ">    219.48591142 </i>
    <i name="ewald">  -2453.45788843 </i>
    <i name="hartreedc">   -960.28995941 </i>
    <i name="XCdc">    116.22012859 </i>
    <i name="pawpsdc">   2908.83873918 </i>
    <i name="pawaedc">  -3264.32013482 </i>
    <i name="eentropy">     -0.00591439 </i>
    <i name="bandstr">     21.87956495 </i>
    <i name="atom">   3496.10054737 </i>
    <i name="e_fr_energy">     84.45099446 </i>
    <i name="e_wo_entrp">     84.45690885 </i>
    <i name="e_0_energy">     84.45395165 </i>
   </energy>
  </scstep>
  <scstep>
   <time name="dav">    0.63    0.63</time>
   <time name="total">    0.63    0.63</time>
   <energy>
    <i name="e_fr_energy">     -1.26037801 </i>
    <i name="e_wo_entrp">     -1.25838179 </i>
    <i name="e_0_energy">     -1.25937990 </i>
   </energy>
  </scstep>
  <scstep>
   <time name="dav">    0.72    0.72</time>
   <time name="total">    0.72    0.72</time>
   <energy>
    <i name="e_fr_energy">     -3.47690434 </i>
    <i name="e_wo_entrp">     -3.47456317 </i>
    <i name="e_0_energy">     -3.47573375 </i>
   </energy>
  </scstep>
  <scstep>
   <time name="dav">    0.72    0.73</time>
   <time name="total">    0.72    0.73</time>
   <energy>
    <i name="e_fr_energy">     -3.48230236 </i>
    <i name="e_wo_entrp">     -3.47996064 </i>
    <i name="e_0_energy">     -3.48113150 </i>
   </energy>
  </scstep>
  <scstep>
   <time name="dav">    0.71    0.72</time>
   <time name="total">    0.98    1.01</time>
   <energy>
    <i name="e_fr_energy">     -3.48230997 </i>
    <i name="e_wo_entrp">     -3.47996825 </i>
    <i name="e_0_energy">     -3.48113911 </i>
   </energy>
  </scstep>
  <scstep>
   <time name="dav">    0.62    0.62</time>
   <time name="total">    0.76    0.77</time>
   <energy>
    <i name="e_fr_energy">     -3.18147245 </i>
    <i name="e_wo_entrp">     -3.17881962 </i>
    <i name="e_0_energy">     -3.18014603 </i>
   </energy>
  </scstep>
  <scstep>
   <time name="dav">    0.74    0.74</time>
   <time name="total">    0.88    0.88</time>
   <energy>
    <i name="e_fr_energy">     -3.16651041 </i>
    <i name="e_wo_entrp">     -3.16389391 </i>
    <i name="e_0_energy">     -3.16520216 </i>
   </energy>
  </scstep>
  <scstep>
   <time name="dav">    0.78    0.78</time>
   <time name="total">    0.92    0.92</time>
   <energy>
    <i name="e_fr_energy">     -3.15910856 </i>
    <i name="e_wo_entrp">     -3.15649099 </i>
    <i name="e_0_energy">     -3.15779978 </i>
   </energy>
  </scstep>
  <scstep>
   <time name="dav">    0.77    0.77</time>
   <time name="total">    0.91    0.92</time>
   <energy>
    <i name="e_fr_energy">     -3.15906224 </i>
    <i name="e_wo_entrp">     -3.15644136 </i>
    <i name="e_0_energy">     -3.15775180 </i>
   </energy>
  </scstep>
  <scstep>
   <time name="dav">    0.68    0.68</time>
   <time name="total">    0.82    0.82</time>
   <energy>
    <i name="e_fr_energy">     -3.15906631 </i>
    <i name="e_wo_entrp">     -3.15644479 </i>
    <i name="e_0_energy">     -3.15775555 </i>
   </energy>
  </scstep>
  <scstep>
   <time name="dav">    0.73    0.74</time>
   <time name="total">    0.87    0.88</time>
   <energy>
    <i name="e_fr_energy">     -3.15906613 </i>
    <i name="e_wo_entrp">     -3.15644474 </i>
    <i name="e_0_energy">     -3.15775543 </i>
   </energy>
  </scstep>
  <scstep>
   <time name="dav">    0.49    0.49</time>
   <time name="total">    0.63    0.63</time>
   <energy>
    <i name="e_fr_energy">     -3.15906585 </i>
    <i name="e_wo_entrp">     -3.15644457 </i>
    <i name="e_0_energy">     -3.15775521 </i>
   </energy>
  </scstep>
  <scstep>
   <time name="dav">    0.46    0.46</time>
   <time name="total">    0.52    0.52</time>
   <energy>
    <i name="alphaZ">    219.48591142 </i>
    <i name="ewald">  -2453.45788843 </i>
    <i name="hartreedc">   -933.99903422 </i>
    <i name="XCdc">    115.06231466 </i>
    <i name="pawpsdc">   3077.66068801 </i>
    <i name="pawaedc">  -3432.85142685 </i>
    <i name="eentropy">     -0.00262127 </i>
    <i name="bandstr">    -91.15755655 </i>
    <i name="atom">   3496.10054737 </i>
    <i name="e_fr_energy">     -3.15906586 </i>
    <i name="e_wo_entrp">     -3.15644459 </i>
    <i name="e_0_energy">     -3.15775523 </i>
   </energy>
  </scstep>
  <structure>
   <crystal>
    <varray name="basis" >
     <v>       2.61435980       0.00000000       0.00000000 </v>
     <v>      -1.30717990       2.26410200       0.00000000 </v>
     <v>       0.00000000       0.00000000       4.87316102 </v>
    </varray>
    <i name="volume">     28.84510390 </i>
    <varray name="rec_basis" >
     <v>       0.38250282       0.22083811      -0.00000000 </v>
     <v>       0.00000000       0.44167621       0.00000000 </v>
     <v>       0.00000000      -0.00000000       0.20520561 </v>
    </varray>
   </crystal>
   <varray name="positions" >
    <v>       0.33333333       0.66666667       0.25000000 </v>
    <v>       0.66666667       0.33333333       0.75000000 </v>
   </varray>
  </structure>
  <varray name="forces" >
   <v>      -0.00000000       0.00000000       0.00000000 </v>
   <v>       0.00000000      -0.00000000       0.00000000 </v>
  </varray>
  <varray name="stress" >
   <v>      -6.07728517       0.00000000      -0.00000000 </v>
   <v>       0.00000000      -6.07728517       0.00000000 </v>
   <v>       0.00000000      -0.00000000     -34.67175587 </v>
  </varray>
  <energy>
   <i name="e_fr_energy">     -3.15906586 </i>
   <i name="e_wo_entrp">     -3.15644459 </i>
   <i name="e_0_energy">     -3.15775523 </i>
  </energy>
  <time name="totalsc">   12.53   12.84</time>
 </calculation>
 <calculation>
  <scstep>
   <time name="dav">    0.65    0.65</time>
   <time name="total">    0.79    0.79</time>
   <energy>
    <i name="alphaZ">    224.02215092 </i>
    <i name="ewald">  -2471.58487362 </i>
    <i name="hartreedc">   -939.53399182 </i>
    <i name="XCdc">    115.96110069 </i>
    <i name="pawpsdc">   3077.65949247 </i>
    <i name="pawaedc">  -3432.85022100 </i>
    <i name="eentropy">     -0.00114517 </i>
    <i name="bandstr">    -73.11503293 </i>
    <i name="atom">   3496.10054737 </i>
    <i name="e_fr_energy">     -3.34197309 </i>
    <i name="e_wo_entrp">     -3.34082792 </i>
    <i name="e_0_energy">     -3.34140050 </i>
   </energy>
  </scstep>
  <scstep>
   <time name="dav">    0.64    0.64</time>
   <time name="total">    0.78    0.78</time>
   <energy>
    <i name="e_fr_energy">     -3.19176285 </i>
    <i name="e_wo_entrp">     -3.19058912 </i>
    <i name="e_0_energy">     -3.19117598 </i>
   </energy>
  </scstep>
  <scstep>
   <time name="dav">    0.72    0.73</time>
   <time name="total">    0.87    0.87</time>
   <energy>
    <i name="e_fr_energy">     -3.17375031 </i>
    <i name="e_wo_entrp">     -3.17261697 </i>
    <i name="e_0_energy">     -3.17318364 </i>
   </energy>
  </scstep>
  <scstep>
   <time name="dav">    0.87    0.87</time>
   <time name="total">    1.01    1.01</time>
   <energy>
    <i name="e_fr_energy">     -3.16624451 </i>
    <i name="e_wo_entrp">     -3.16513282 </i>
    <i name="e_0_energy">     -3.16568867 </i>
   </energy>
  </scstep>
  <scstep>
   <time name="dav">    0.66    0.66</time>
   <time name="total">    0.80    0.80</time>
   <energy>
    <i name="e_fr_energy">     -3.16627879 </i>
    <i name="e_wo_entrp">     -3.16516732 </i>
    <i name="e_0_energy">     -3.16572306 </i>
   </energy>
  </scstep>
  <scstep>
   <time name="dav">    0.68    0.68</time>
   <time name="total">    0.82    0.82</time>
   <energy>
    <i name="e_fr_energy">     -3.16627786 </i>
    <i name="e_wo_entrp">     -3.16516721 </i>
    <i name="e_0_energy">     -3.16572253 </i>
   </energy>
  </scstep>
  <scstep>
   <time name="dav">    0.71    0.71</time>
   <time name="total">    0.85    0.86</time>
   <energy>
    <i name="e_fr_energy">     -3.16627754 </i>
    <i name="e_wo_entrp">     -3.16516698 </i>
    <i name="e_0_energy">     -3.16572226 </i>
   </energy>
  </scstep>
  <scstep>
   <time name="dav">    0.46    0.47</time>
   <time name="total">    0.61    0.61</time>
   <energy>
    <i name="e_fr_energy">     -3.16627727 </i>
    <i name="e_wo_entrp">     -3.16516672 </i>
    <i name="e_0_energy">     -3.16572200 </i>
   </energy>
  </scstep>
  <scstep>
   <time name="dav">    0.43    0.43</time>
   <time name="total">    0.49    0.49</time>
   <energy>
    <i name="alphaZ">    224.02215092 </i>
    <i name="ewald">  -2471.58487362 </i>
    <i name="hartreedc">   -922.78373973 </i>
    <i name="XCdc">    115.13184655 </i>
    <i name="pawpsdc">   3089.91182828 </i>
    <i name="pawaedc">  -3445.25676323 </i>
    <i name="eentropy">     -0.00111053 </i>
    <i name="bandstr">    -88.70616327 </i>
    <i name="atom">   3496.10054737 </i>
    <i name="e_fr_energy">     -3.16627726 </i>
    <i name="e_wo_entrp">     -3.16516673 </i>
    <i name="e_0_energy">     -3.16572200 </i>
   </energy>
  </scstep>
  <structure>
   <crystal>
    <varray name="basis" >
     <v>       2.60745998       0.00000000      -0.00000000 </v>
     <v>      -1.30372999       2.25812658       0.00000000 </v>
     <v>       0.00000000      -0.00000000       4.79978582 </v>
    </varray>
    <i name="volume">     28.26101747 </i>
    <varray name="rec_basis" >
     <v>       0.38351499       0.22142249      -0.00000000 </v>
     <v>      -0.00000000       0.44284497       0.00000000 </v>
     <v>       0.00000000      -0.00000000       0.20834263 </v>
    </varray>
   </crystal>
   <varray name="positions" >
    <v>       0.33333333       0.66666667       0.25000000 </v>
    <v>       0.66666667       0.33333333       0.75000000 </v>
   </varray>
  </structure>
  <varray name="forces" >
   <v>      -0.00000000      -0.00000000       0.00000000 </v>
   <v>       0.00000000       0.00000000      -0.00000000 </v>
  </varray>
  <varray name="stress" >
   <v>       9.07128838      -0.00000000       0.00000000 </v>
   <v>      -0.00000000       9.07128838       0.00000000 </v>
   <v>      -0.00000000       0.00000000     -17.14118020 </v>
  </varray>
  <energy>
   <i name="e_fr_energy">     -3.16627726 </i>
   <i name="e_wo_entrp">     -3.16516673 </i>
   <i name="e_0_energy">     -3.16572200 </i>
  </energy>
  <time name="totalsc">    9.28    9.31</time>
 </calculation>
 <calculation>
  <scstep>
   <time name="dav">    0.66    0.67</time>
   <time name="total">    0.81    0.81</time>
   <energy>
    <i name="alphaZ">    225.86015534 </i>
    <i name="ewald">  -2478.81984454 </i>
    <i name="hartreedc">   -924.99606938 </i>
    <i name="XCdc">    115.49008805 </i>
    <i name="pawpsdc">   3089.91520527 </i>
    <i name="pawaedc">  -3445.25983887 </i>
    <i name="eentropy">     -0.00100649 </i>
    <i name="bandstr">    -81.48418738 </i>
    <i name="atom">   3496.10054737 </i>
    <i name="e_fr_energy">     -3.19495064 </i>
    <i name="e_wo_entrp">     -3.19394415 </i>
    <i name="e_0_energy">     -3.19444739 </i>
   </energy>
  </scstep>
  <scstep>
   <time name="dav">    0.64    0.64</time>
   <time name="total">    0.78    0.78</time>
   <energy>
    <i name="e_fr_energy">     -3.17118939 </i>
    <i name="e_wo_entrp">     -3.17015174 </i>
    <i name="e_0_energy">     -3.17067057 </i>
   </energy>
  </scstep>
  <scstep>
   <time name="dav">    0.74    0.74</time>
   <time name="total">    0.88    0.88</time>
   <energy>
    <i name="e_fr_energy">     -3.16831625 </i>
    <i name="e_wo_entrp">     -3.16726776 </i>
    <i name="e_0_energy">     -3.16779200 </i>
   </energy>
  </scstep>
  <scstep>
   <time name="dav">    0.89    0.90</time>
   <time name="total">    1.04    1.04</time>
   <energy>
    <i name="e_fr_energy">     -3.16713108 </i>
    <i name="e_wo_entrp">     -3.16606680 </i>
    <i name="e_0_energy">     -3.16659894 </i>
   </energy>
  </scstep>
  <scstep>
   <time name="dav">    0.66    0.66</time>
   <time name="total">    0.80    0.80</time>
   <energy>
    <i name="e_fr_energy">     -3.16713676 </i>
    <i name="e_wo_entrp">     -3.16607278 </i>
    <i name="e_0_energy">     -3.16660477 </i>
   </energy>
  </scstep>
  <scstep>
   <time name="dav">    0.66    0.66</time>
   <time name="total">    0.80    0.80</time>
   <energy>
    <i name="e_fr_energy">     -3.16713620 </i>
    <i name="e_wo_entrp">     -3.16607260 </i>
    <i name="e_0_energy">     -3.16660440 </i>
   </energy>
  </scstep>
  <scstep>
   <time name="dav">    0.51    0.51</time>
   <time name="total">    0.65    0.65</time>
   <energy>
    <i name="e_fr_energy">     -3.16713609 </i>
    <i name="e_wo_entrp">     -3.16607239 </i>
    <i name="e_0_energy">     -3.16660424 </i>
   </energy>
  </scstep>
  <scstep>
   <time name="dav">    0.44    0.44</time>
   <time name="total">    0.58    0.58</time>
   <energy>
    <i name="e_fr_energy">     -3.16713599 </i>
    <i name="e_wo_entrp">     -3.16607228 </i>
    <i name="e_0_energy">     -3.16660414 </i>
   </energy>
  </scstep>
  <scstep>
   <time name="dav">    0.43    0.43</time>
   <time name="total">    0.49    0.49</time>
   <energy>
    <i name="alphaZ">    225.86015534 </i>
    <i name="ewald">  -2478.81984454 </i>
    <i name="hartreedc">   -918.33726494 </i>
    <i name="XCdc">    115.16018864 </i>
    <i name="pawpsdc">   3095.05792567 </i>
    <i name="pawaedc">  -3450.46958864 </i>
    <i name="eentropy">     -0.00106370 </i>
    <i name="bandstr">    -87.71819117 </i>
    <i name="atom">   3496.10054737 </i>
    <i name="e_fr_energy">     -3.16713598 </i>
    <i name="e_wo_entrp">     -3.16607228 </i>
    <i name="e_0_energy">     -3.16660413 </i>
   </energy>
  </scstep>
  <structure>
   <crystal>
    <varray name="basis" >
     <v>       2.60472696       0.00000000      -0.00000000 </v>
     <v>      -1.30236348       2.25575971       0.00000000 </v>
     <v>       0.00000000      -0.00000000       4.77072181 </v>
    </varray>
    <i name="volume">     28.03103500 </i>
    <varray name="rec_basis" >
     <v>       0.38391740       0.22165481      -0.00000000 </v>
     <v>      -0.00000000       0.44330963       0.00000000 </v>
     <v>       0.00000000      -0.00000000       0.20961189 </v>
    </varray>
   </crystal>
   <varray name="positions" >
    <v>       0.33333333       0.66666667       0.25000000 </v>
    <v>       0.66666667       0.33333333       0.75000000 </v>
   </varray>
  </structure>
  <varray name="forces" >
   <v>       0.00000000      -0.00000000       0.00000000 </v>
   <v>      -0.00000000       0.00000000      -0.00000000 </v>
  </varray>
  <varray name="stress" >
   <v>      14.76528721      -0.00000000       0.00000000 </v>
   <v>      -0.00000000      14.76528721       0.00000000 </v>
   <v>       0.00000000       0.00000000      -7.16525576 </v>
  </varray>
  <energy>
   <i name="e_fr_energy">     -3.16713598 </i>
   <i name="e_wo_entrp">     -3.16607228 </i>
   <i name="e_0_energy">     -3.16660413 </i>
  </energy>
  <time name="totalsc">    9.09    9.11</time>
 </calculation>
 <calculation>
  <scstep>
   <time name="dav">    0.69    0.69</time>
   <time name="total">    0.83    0.84</time>
   <energy>
    <i name="alphaZ">    225.10376804 </i>
    <i name="ewald">  -2477.30391663 </i>
    <i name="hartreedc">   -916.50573691 </i>
    <i name="XCdc">    115.01389220 </i>
    <i name="pawpsdc">   3095.05695096 </i>
    <i name="pawaedc">  -3450.46866648 </i>
    <i name="eentropy">     -0.00170715 </i>
    <i name="bandstr">    -90.19643060 </i>
    <i name="atom">   3496.10054737 </i>
    <i name="e_fr_energy">     -3.20129920 </i>
    <i name="e_wo_entrp">     -3.19959205 </i>
    <i name="e_0_energy">     -3.20044563 </i>
   </energy>
  </scstep>
  <scstep>
   <time name="dav">    0.72    0.72</time>
   <time name="total">    0.86    0.87</time>
   <energy>
    <i name="e_fr_energy">     -3.17976175 </i>
    <i name="e_wo_entrp">     -3.17799653 </i>
    <i name="e_0_energy">     -3.17887914 </i>
   </energy>
  </scstep>
  <scstep>
   <time name="dav">    0.77    0.78</time>
   <time name="total">    0.92    0.92</time>
   <energy>
    <i name="e_fr_energy">     -3.17027809 </i>
    <i name="e_wo_entrp">     -3.16845531 </i>
    <i name="e_0_energy">     -3.16936670 </i>
   </energy>
  </scstep>
  <scstep>
   <time name="dav">    0.78    0.78</time>
   <time name="total">    0.92    0.92</time>
   <energy>
    <i name="e_fr_energy">     -3.16973114 </i>
    <i name="e_wo_entrp">     -3.16789534 </i>
    <i name="e_0_energy">     -3.16881324 </i>
   </energy>
  </scstep>
  <scstep>
   <time name="dav">    0.70    0.71</time>
   <time name="total">    0.85    0.85</time>
   <energy>
    <i name="e_fr_energy">     -3.16974290 </i>
    <i name="e_wo_entrp">     -3.16790988 </i>
    <i name="e_0_energy">     -3.16882639 </i>
   </energy>
  </scstep>
  <scstep>
   <time name="dav">    0.75    0.75</time>
   <time name="total">    0.89    0.90</time>
   <energy>
    <i name="e_fr_energy">     -3.16973622 </i>
    <i name="e_wo_entrp">     -3.16790189 </i>
    <i name="e_0_energy">     -3.16881906 </i>
   </energy>
  </scstep>
  <scstep>
   <time name="dav">    0.67    0.67</time>
   <time name="total">    0.81    0.81</time>
   <energy>
    <i name="e_fr_energy">     -3.16973642 </i>
    <i name="e_wo_entrp">     -3.16790211 </i>
    <i name="e_0_energy">     -3.16881927 </i>
   </energy>
  </scstep>
  <scstep>
   <time name="dav">    0.45    0.45</time>
   <time name="total">    0.51    0.51</time>
   <energy>
    <i name="alphaZ">    225.10376804 </i>
    <i name="ewald">  -2477.30391663 </i>
    <i name="hartreedc">   -918.92655475 </i>
    <i name="XCdc">    115.14457182 </i>
    <i name="pawpsdc">   3090.13024056 </i>
    <i name="pawaedc">  -3445.46953971 </i>
    <i name="eentropy">     -0.00183427 </i>
    <i name="bandstr">    -87.94701890 </i>
    <i name="atom">   3496.10054737 </i>
    <i name="e_fr_energy">     -3.16973648 </i>
    <i name="e_wo_entrp">     -3.16790221 </i>
    <i name="e_0_energy">     -3.16881934 </i>
   </energy>
  </scstep>
  <structure>
   <crystal>
    <varray name="basis" >
     <v>       2.61995699      -0.00000000      -0.00000000 </v>
     <v>      -1.30997850       2.26894931       0.00000000 </v>
     <v>       0.00000000       0.00000000       4.73126241 </v>
    </varray>
    <i name="volume">     28.12522409 </i>
    <varray name="rec_basis" >
     <v>       0.38168566       0.22036632      -0.00000000 </v>
     <v>       0.00000000       0.44073263      -0.00000000 </v>
     <v>       0.00000000      -0.00000000       0.21136008 </v>
    </varray>
   </crystal>
   <varray name="positions" >
    <v>       0.33333333       0.66666667       0.25000000 </v>
    <v>       0.66666667       0.33333333       0.75000000 </v>
   </varray>
  </structure>
  <varray name="forces" >
   <v>       0.00000000      -0.00000000       0.00000000 </v>
   <v>      -0.00000000       0.00000000      -0.00000000 </v>
  </varray>
  <varray name="stress" >
   <v>       3.77122280      -0.00000000       0.00000000 </v>
   <v>      -0.00000000       3.77122280       0.00000000 </v>
   <v>       0.00000000       0.00000000      -5.60982407 </v>
  </varray>
  <energy>
   <i name="e_fr_energy">     -3.16973648 </i>
   <i name="e_wo_entrp">     -3.16790221 </i>
   <i name="e_0_energy">     -3.16881934 </i>
  </energy>
  <time name="totalsc">    8.89    8.91</time>
 </calculation>
 <calculation>
  <scstep>
   <time name="dav">    0.70    0.71</time>
   <time name="total">    0.85    0.85</time>
   <energy>
    <i name="alphaZ">    224.63471056 </i>
    <i name="ewald">  -2476.28837374 </i>
    <i name="hartreedc">   -917.84175216 </i>
    <i name="XCdc">    115.05348137 </i>
    <i name="pawpsdc">   3090.13058258 </i>
    <i name="pawaedc">  -3445.46975097 </i>
    <i name="eentropy">     -0.00185735 </i>
    <i name="bandstr">    -89.50099715 </i>
    <i name="atom">   3496.10054737 </i>
    <i name="e_fr_energy">     -3.18340948 </i>
    <i name="e_wo_entrp">     -3.18155214 </i>
    <i name="e_0_energy">     -3.18248081 </i>
   </energy>
  </scstep>
  <scstep>
   <time name="dav">    0.74    0.74</time>
   <time name="total">    0.88    0.88</time>
   <energy>
    <i name="e_fr_energy">     -3.17461682 </i>
    <i name="e_wo_entrp">     -3.17275938 </i>
    <i name="e_0_energy">     -3.17368810 </i>
   </energy>
  </scstep>
  <scstep>
   <time name="dav">    0.78    0.79</time>
   <time name="total">    0.93    0.93</time>
   <energy>
    <i name="e_fr_energy">     -3.17068887 </i>
    <i name="e_wo_entrp">     -3.16881880 </i>
    <i name="e_0_energy">     -3.16975383 </i>
   </energy>
  </scstep>
  <scstep>
   <time name="dav">    0.77    0.77</time>
   <time name="total">    0.91    0.91</time>
   <energy>
    <i name="e_fr_energy">     -3.17047736 </i>
    <i name="e_wo_entrp">     -3.16860021 </i>
    <i name="e_0_energy">     -3.16953878 </i>
   </energy>
  </scstep>
  <scstep>
   <time name="dav">    0.70    0.70</time>
   <time name="total">    0.84    0.85</time>
   <energy>
    <i name="e_fr_energy">     -3.17048310 </i>
    <i name="e_wo_entrp">     -3.16860723 </i>
    <i name="e_0_energy">     -3.16954517 </i>
   </energy>
  </scstep>
  <scstep>
   <time name="dav">    0.74    0.74</time>
   <time name="total">    0.89    0.89</time>
   <energy>
    <i name="e_fr_energy">     -3.17048019 </i>
    <i name="e_wo_entrp">     -3.16860361 </i>
    <i name="e_0_energy">     -3.16954190 </i>
   </energy>
  </scstep>
  <scstep>
   <time name="dav">    0.63    0.63</time>
   <time name="total">    0.77    0.77</time>
   <energy>
    <i name="e_fr_energy">     -3.17048031 </i>
    <i name="e_wo_entrp">     -3.16860373 </i>
    <i name="e_0_energy">     -3.16954202 </i>
   </energy>
  </scstep>
  <scstep>
   <time name="dav">    0.42    0.42</time>
   <time name="total">    0.48    0.48</time>
   <energy>
    <i name="alphaZ">    224.63471056 </i>
    <i name="ewald">  -2476.28837374 </i>
    <i name="hartreedc">   -919.35464986 </i>
    <i name="XCdc">    115.13511003 </i>
    <i name="pawpsdc">   3087.17966586 </i>
    <i name="pawaedc">  -3442.47565777 </i>
    <i name="eentropy">     -0.00187656 </i>
    <i name="bandstr">    -88.09995624 </i>
    <i name="atom">   3496.10054737 </i>
    <i name="e_fr_energy">     -3.17048035 </i>
    <i name="e_wo_entrp">     -3.16860379 </i>
    <i name="e_0_energy">     -3.16954207 </i>
   </energy>
  </scstep>
  <structure>
   <crystal>
    <varray name="basis" >
     <v>       2.62975640      -0.00000000      -0.00000000 </v>
     <v>      -1.31487820       2.27743585       0.00000000 </v>
     <v>       0.00000000       0.00000000       4.70587318 </v>
    </varray>
    <i name="volume">     28.18395209 </i>
    <varray name="rec_basis" >
     <v>       0.38026336       0.21954515      -0.00000000 </v>
     <v>       0.00000000       0.43909030      -0.00000000 </v>
     <v>       0.00000000      -0.00000000       0.21250041 </v>
    </varray>
   </crystal>
   <varray name="positions" >
    <v>       0.33333333       0.66666667       0.25000000 </v>
    <v>       0.66666667       0.33333333       0.75000000 </v>
   </varray>
  </structure>
  <varray name="forces" >
   <v>       0.00000000      -0.00000000       0.00000000 </v>
   <v>      -0.00000000       0.00000000       0.00000000 </v>
  </varray>
  <varray name="stress" >
   <v>      -1.53319548       0.00000000      -0.00000000 </v>
   <v>       0.00000000      -1.53319548       0.00000000 </v>
   <v>       0.00000000       0.00000000      -7.22325420 </v>
  </varray>
  <energy>
   <i name="e_fr_energy">     -3.17048035 </i>
   <i name="e_wo_entrp">     -3.16860379 </i>
   <i name="e_0_energy">     -3.16954207 </i>
  </energy>
  <time name="totalsc">    8.83    8.86</time>
 </calculation>
 <calculation>
  <scstep>
   <time name="dav">    0.71    0.71</time>
   <time name="total">    0.85    0.85</time>
   <energy>
    <i name="alphaZ">    223.73772620 </i>
    <i name="ewald">  -2474.17142822 </i>
    <i name="hartreedc">   -917.33347098 </i>
    <i name="XCdc">    114.96081757 </i>
    <i name="pawpsdc">   3087.17958438 </i>
    <i name="pawaedc">  -3442.47550933 </i>
    <i name="eentropy">     -0.00104902 </i>
    <i name="bandstr">    -91.21885983 </i>
    <i name="atom">   3496.10054737 </i>
    <i name="e_fr_energy">     -3.22164187 </i>
    <i name="e_wo_entrp">     -3.22059285 </i>
    <i name="e_0_energy">     -3.22111736 </i>
   </energy>
  </scstep>
  <scstep>
   <time name="dav">    0.73    0.73</time>
   <time name="total">    0.87    0.88</time>
   <energy>
    <i name="e_fr_energy">     -3.18719685 </i>
    <i name="e_wo_entrp">     -3.18614717 </i>
    <i name="e_0_energy">     -3.18667201 </i>
   </energy>
  </scstep>
  <scstep>
   <time name="dav">    0.79    0.79</time>
   <time name="total">    0.93    0.94</time>
   <energy>
    <i name="e_fr_energy">     -3.17148132 </i>
    <i name="e_wo_entrp">     -3.17026842 </i>
    <i name="e_0_energy">     -3.17087487 </i>
   </energy>
  </scstep>
  <scstep>
   <time name="dav">    0.77    0.77</time>
   <time name="total">    0.91    0.91</time>
   <energy>
    <i name="e_fr_energy">     -3.17062154 </i>
    <i name="e_wo_entrp">     -3.16934671 </i>
    <i name="e_0_energy">     -3.16998412 </i>
   </energy>
  </scstep>
  <scstep>
   <time name="dav">    0.71    0.71</time>
   <time name="total">    0.85    0.85</time>
   <energy>
    <i name="e_fr_energy">     -3.17064495 </i>
    <i name="e_wo_entrp">     -3.16939014 </i>
    <i name="e_0_energy">     -3.17001754 </i>
   </energy>
  </scstep>
  <scstep>
   <time name="dav">    0.73    0.73</time>
   <time name="total">    0.87    0.87</time>
   <energy>
    <i name="e_fr_energy">     -3.17063141 </i>
    <i name="e_wo_entrp">     -3.16936869 </i>
    <i name="e_0_energy">     -3.17000005 </i>
   </energy>
  </scstep>
  <scstep>
   <time name="dav">    0.66    0.66</time>
   <time name="total">    0.80    0.80</time>
   <energy>
    <i name="e_fr_energy">     -3.17063173 </i>
    <i name="e_wo_entrp">     -3.16936909 </i>
    <i name="e_0_energy">     -3.17000041 </i>
   </energy>
  </scstep>
  <scstep>
   <time name="dav">    0.45    0.45</time>
   <time name="total">    0.51    0.51</time>
   <energy>
    <i name="alphaZ">    223.73772620 </i>
    <i name="ewald">  -2474.17142822 </i>
    <i name="hartreedc">   -920.32554763 </i>
    <i name="XCdc">    115.11763973 </i>
    <i name="pawpsdc">   3081.88757459 </i>
    <i name="pawaedc">  -3437.10902985 </i>
    <i name="eentropy">     -0.00126239 </i>
    <i name="bandstr">    -88.40685158 </i>
    <i name="atom">   3496.10054737 </i>
    <i name="e_fr_energy">     -3.17063179 </i>
    <i name="e_wo_entrp">     -3.16936940 </i>
    <i name="e_0_energy">     -3.17000059 </i>
   </energy>
  </scstep>
  <structure>
   <crystal>
    <varray name="basis" >
     <v>       2.64935522      -0.00000000       0.00000000 </v>
     <v>      -1.32467761       2.29440892       0.00000000 </v>
     <v>       0.00000000       0.00000000       4.65509473 </v>
    </varray>
    <i name="volume">     28.29694405 </i>
    <varray name="rec_basis" >
     <v>       0.37745033       0.21792105      -0.00000000 </v>
     <v>       0.00000000       0.43584210      -0.00000000 </v>
     <v>      -0.00000000      -0.00000000       0.21481840 </v>
    </varray>
   </crystal>
   <varray name="positions" >
    <v>       0.33333333       0.66666667       0.25000000 </v>
    <v>       0.66666667       0.33333333       0.75000000 </v>
   </varray>
  </structure>
  <varray name="forces" >
   <v>       0.00000000      -0.00000000       0.00000000 </v>
   <v>      -0.00000000       0.00000000      -0.00000000 </v>
  </varray>
  <varray name="stress" >
   <v>     -12.06764024       0.00000000       0.00000000 </v>
   <v>       0.00000000     -12.06764024      -0.00000000 </v>
   <v>       0.00000000       0.00000000      -8.09309261 </v>
  </varray>
  <energy>
   <i name="e_fr_energy">     -3.17063179 </i>
   <i name="e_wo_entrp">     -3.16936940 </i>
   <i name="e_0_energy">     -3.17000059 </i>
  </energy>
  <time name="totalsc">    8.85    8.87</time>
 </calculation>
 <calculation>
  <scstep>
   <time name="dav">    0.69    0.70</time>
   <time name="total">    0.84    0.84</time>
   <energy>
    <i name="alphaZ">    224.30588701 </i>
    <i name="ewald">  -2475.53988792 </i>
    <i name="hartreedc">   -921.50426624 </i>
    <i name="XCdc">    115.22895228 </i>
    <i name="pawpsdc">   3081.88703426 </i>
    <i name="pawaedc">  -3437.10834447 </i>
    <i name="eentropy">     -0.00193704 </i>
    <i name="bandstr">    -86.55983224 </i>
    <i name="atom">   3496.10054737 </i>
    <i name="e_fr_energy">     -3.19184699 </i>
    <i name="e_wo_entrp">     -3.18990995 </i>
    <i name="e_0_energy">     -3.19087847 </i>
   </energy>
  </scstep>
  <scstep>
   <time name="dav">    0.71    0.71</time>
   <time name="total">    0.85    0.86</time>
   <energy>
    <i name="e_fr_energy">     -3.17761583 </i>
    <i name="e_wo_entrp">     -3.17570203 </i>
    <i name="e_0_energy">     -3.17665893 </i>
   </energy>
  </scstep>
  <scstep>
   <time name="dav">    0.78    0.78</time>
   <time name="total">    0.92    0.93</time>
   <energy>
    <i name="e_fr_energy">     -3.17105241 </i>
    <i name="e_wo_entrp">     -3.16918944 </i>
    <i name="e_0_energy">     -3.17012093 </i>
   </energy>
  </scstep>
  <scstep>
   <time name="dav">    0.77    0.77</time>
   <time name="total">    0.91    0.91</time>
   <energy>
    <i name="e_fr_energy">     -3.17075804 </i>
    <i name="e_wo_entrp">     -3.16890229 </i>
    <i name="e_0_energy">     -3.16983016 </i>
   </energy>
  </scstep>
  <scstep>
   <time name="dav">    0.71    0.71</time>
   <time name="total">    0.85    0.85</time>
   <energy>
    <i name="e_fr_energy">     -3.17076380 </i>
    <i name="e_wo_entrp">     -3.16890295 </i>
    <i name="e_0_energy">     -3.16983338 </i>
   </energy>
  </scstep>
  <scstep>
   <time name="dav">    0.74    0.74</time>
   <time name="total">    0.88    0.88</time>
   <energy>
    <i name="e_fr_energy">     -3.17075759 </i>
    <i name="e_wo_entrp">     -3.16889850 </i>
    <i name="e_0_energy">     -3.16982804 </i>
   </energy>
  </scstep>
  <scstep>
   <time name="dav">    0.65    0.66</time>
   <time name="total">    0.71    0.71</time>
   <energy>
    <i name="alphaZ">    224.30588701 </i>
    <i name="ewald">  -2475.53988792 </i>
    <i name="hartreedc">   -919.68506157 </i>
    <i name="XCdc">    115.12854812 </i>
    <i name="pawpsdc">   3085.12501267 </i>
    <i name="pawaedc">  -3440.39116845 </i>
    <i name="eentropy">     -0.00185916 </i>
    <i name="bandstr">    -88.21277560 </i>
    <i name="atom">   3496.10054737 </i>
    <i name="e_fr_energy">     -3.17075752 </i>
    <i name="e_wo_entrp">     -3.16889836 </i>
    <i name="e_0_energy">     -3.16982794 </i>
   </energy>
  </scstep>
  <structure>
   <crystal>
    <varray name="basis" >
     <v>       2.63680344      -0.00000000       0.00000000 </v>
     <v>      -1.31840172       2.28353876       0.00000000 </v>
     <v>       0.00000000       0.00000000       4.68761505 </v>
    </varray>
    <i name="volume">     28.22526865 </i>
    <varray name="rec_basis" >
     <v>       0.37924708       0.21895840      -0.00000000 </v>
     <v>       0.00000000       0.43791681      -0.00000000 </v>
     <v>      -0.00000000      -0.00000000       0.21332810 </v>
    </varray>
   </crystal>
   <varray name="positions" >
    <v>       0.33333333       0.66666667       0.25000000 </v>
    <v>       0.66666667       0.33333333       0.75000000 </v>
   </varray>
  </structure>
  <varray name="forces" >
   <v>      -0.00000000       0.00000000      -0.00000000 </v>
   <v>       0.00000000       0.00000000       0.00000000 </v>
  </varray>
  <varray name="stress" >
   <v>      -4.52033203       0.00000000       0.00000000 </v>
   <v>       0.00000000      -4.52033203       0.00000000 </v>
   <v>      -0.00000000       0.00000000      -9.59876254 </v>
  </varray>
  <energy>
   <i name="e_fr_energy">     -3.17075752 </i>
   <i name="e_wo_entrp">     -3.16889836 </i>
   <i name="e_0_energy">     -3.16982794 </i>
  </energy>
  <time name="totalsc">    8.24    8.27</time>
 </calculation>
 <calculation>
  <scstep>
   <time name="dav">    0.71    0.71</time>
   <time name="total">    0.85    0.85</time>
   <energy>
    <i name="alphaZ">    223.89386107 </i>
    <i name="ewald">  -2474.55729251 </i>
    <i name="hartreedc">   -918.78183116 </i>
    <i name="XCdc">    115.04824281 </i>
    <i name="pawpsdc">   3085.15948791 </i>
    <i name="pawaedc">  -3440.42558640 </i>
    <i name="eentropy">     -0.00124501 </i>
    <i name="bandstr">    -89.61793665 </i>
    <i name="atom">   3496.10054737 </i>
    <i name="e_fr_energy">     -3.18175257 </i>
    <i name="e_wo_entrp">     -3.18050757 </i>
    <i name="e_0_energy">     -3.18113007 </i>
   </energy>
  </scstep>
  <scstep>
   <time name="dav">    0.73    0.73</time>
   <time name="total">    0.87    0.88</time>
   <energy>
    <i name="e_fr_energy">     -3.17435983 </i>
    <i name="e_wo_entrp">     -3.17308554 </i>
    <i name="e_0_energy">     -3.17372269 </i>
   </energy>
  </scstep>
  <scstep>
   <time name="dav">    0.80    0.80</time>
   <time name="total">    0.94    0.94</time>
   <energy>
    <i name="e_fr_energy">     -3.17099011 </i>
    <i name="e_wo_entrp">     -3.16963827 </i>
    <i name="e_0_energy">     -3.17031419 </i>
   </energy>
  </scstep>
  <scstep>
   <time name="dav">    0.78    0.78</time>
   <time name="total">    0.92    0.92</time>
   <energy>
    <i name="e_fr_energy">     -3.17082231 </i>
    <i name="e_wo_entrp">     -3.16944638 </i>
    <i name="e_0_energy">     -3.17013435 </i>
   </energy>
  </scstep>
  <scstep>
   <time name="dav">    0.71    0.71</time>
   <time name="total">    0.85    0.85</time>
   <energy>
    <i name="e_fr_energy">     -3.17082757 </i>
    <i name="e_wo_entrp">     -3.16946086 </i>
    <i name="e_0_energy">     -3.17014421 </i>
   </energy>
  </scstep>
  <scstep>
   <time name="dav">    0.74    0.74</time>
   <time name="total">    0.88    0.89</time>
   <energy>
    <i name="e_fr_energy">     -3.17082478 </i>
    <i name="e_wo_entrp">     -3.16945473 </i>
    <i name="e_0_energy">     -3.17013976 </i>
   </energy>
  </scstep>
  <scstep>
   <time name="dav">    0.62    0.62</time>
   <time name="total">    0.75    0.76</time>
   <energy>
    <i name="e_fr_energy">     -3.17082489 </i>
    <i name="e_wo_entrp">     -3.16945488 </i>
    <i name="e_0_energy">     -3.17013989 </i>
   </energy>
  </scstep>
  <scstep>
   <time name="dav">    0.42    0.43</time>
   <time name="total">    0.48    0.48</time>
   <energy>
    <i name="alphaZ">    223.89386107 </i>
    <i name="ewald">  -2474.55729251 </i>
    <i name="hartreedc">   -920.13959518 </i>
    <i name="XCdc">    115.12058155 </i>
    <i name="pawpsdc">   3082.75082427 </i>
    <i name="pawaedc">  -3437.98329278 </i>
    <i name="eentropy">     -0.00136990 </i>
    <i name="bandstr">    -88.35508881 </i>
    <i name="atom">   3496.10054737 </i>
    <i name="e_fr_energy">     -3.17082493 </i>
    <i name="e_wo_entrp">     -3.16945502 </i>
    <i name="e_0_energy">     -3.17013997 </i>
   </energy>
  </scstep>
  <structure>
   <crystal>
    <varray name="basis" >
     <v>       2.64585616      -0.00000000       0.00000000 </v>
     <v>      -1.32292808       2.29137865       0.00000000 </v>
     <v>       0.00000000       0.00000000       4.66416042 </v>
    </varray>
    <i name="volume">     28.27721086 </i>
    <varray name="rec_basis" >
     <v>       0.37794950       0.21820924      -0.00000000 </v>
     <v>       0.00000000       0.43641849      -0.00000000 </v>
     <v>      -0.00000000      -0.00000000       0.21440086 </v>
    </varray>
   </crystal>
   <varray name="positions" >
    <v>       0.33333333       0.66666667       0.25000000 </v>
    <v>       0.66666667       0.33333333       0.75000000 </v>
   </varray>
  </structure>
  <varray name="forces" >
   <v>      -0.00000000       0.00000000      -0.00000000 </v>
   <v>       0.00000000      -0.00000000       0.00000000 </v>
  </varray>
  <varray name="stress" >
   <v>      -9.54414335       0.00000000       0.00000000 </v>
   <v>       0.00000000      -9.54414335      -0.00000000 </v>
   <v>       0.00000000      -0.00000000      -9.76302757 </v>
  </varray>
  <energy>
   <i name="e_fr_energy">     -3.17082493 </i>
   <i name="e_wo_entrp">     -3.16945502 </i>
   <i name="e_0_energy">     -3.17013997 </i>
  </energy>
  <time name="totalsc">    8.82    8.84</time>
 </calculation>
 <calculation>
  <scstep>
   <time name="dav">    0.71    0.71</time>
   <time name="total">    0.85    0.85</time>
   <energy>
    <i name="alphaZ">    224.11414788 </i>
    <i name="ewald">  -2475.08895769 </i>
    <i name="hartreedc">   -920.60400731 </i>
    <i name="XCdc">    115.16366186 </i>
    <i name="pawpsdc">   3082.75053096 </i>
    <i name="pawaedc">  -3437.98292789 </i>
    <i name="eentropy">     -0.00169415 </i>
    <i name="bandstr">    -87.62533071 </i>
    <i name="atom">   3496.10054737 </i>
    <i name="e_fr_energy">     -3.17402968 </i>
    <i name="e_wo_entrp">     -3.17233554 </i>
    <i name="e_0_energy">     -3.17318261 </i>
   </energy>
  </scstep>
  <scstep>
   <time name="dav">    0.73    0.73</time>
   <time name="total">    0.87    0.87</time>
   <energy>
    <i name="e_fr_energy">     -3.17189526 </i>
    <i name="e_wo_entrp">     -3.17021869 </i>
    <i name="e_0_energy">     -3.17105697 </i>
   </energy>
  </scstep>
  <scstep>
   <time name="dav">    0.78    0.78</time>
   <time name="total">    0.92    0.92</time>
   <energy>
    <i name="e_fr_energy">     -3.17090484 </i>
    <i name="e_wo_entrp">     -3.16925711 </i>
    <i name="e_0_energy">     -3.17008098 </i>
   </energy>
  </scstep>
  <scstep>
   <time name="dav">    0.77    0.77</time>
   <time name="total">    0.91    0.91</time>
   <energy>
    <i name="e_fr_energy">     -3.17085668 </i>
    <i name="e_wo_entrp">     -3.16921459 </i>
    <i name="e_0_energy">     -3.17003563 </i>
   </energy>
  </scstep>
  <scstep>
   <time name="dav">    0.71    0.71</time>
   <time name="total">    0.85    0.85</time>
   <energy>
    <i name="e_fr_energy">     -3.17085731 </i>
    <i name="e_wo_entrp">     -3.16921178 </i>
    <i name="e_0_energy">     -3.17003455 </i>
   </energy>
  </scstep>
  <scstep>
   <time name="dav">    0.73    0.74</time>
   <time name="total">    0.87    0.88</time>
   <energy>
    <i name="e_fr_energy">     -3.17085630 </i>
    <i name="e_wo_entrp">     -3.16921191 </i>
    <i name="e_0_energy">     -3.17003411 </i>
   </energy>
  </scstep>
  <scstep>
   <time name="dav">    0.46    0.46</time>
   <time name="total">    0.51    0.51</time>
   <energy>
    <i name="alphaZ">    224.11414788 </i>
    <i name="ewald">  -2475.08895769 </i>
    <i name="hartreedc">   -919.89012378 </i>
    <i name="XCdc">    115.12479111 </i>
    <i name="pawpsdc">   3084.00430253 </i>
    <i name="pawaedc">  -3439.25398716 </i>
    <i name="eentropy">     -0.00164442 </i>
    <i name="bandstr">    -88.27993210 </i>
    <i name="atom">   3496.10054737 </i>
    <i name="e_fr_energy">     -3.17085626 </i>
    <i name="e_wo_entrp">     -3.16921184 </i>
    <i name="e_0_energy">     -3.17003405 </i>
   </energy>
  </scstep>
  <structure>
   <crystal>
    <varray name="basis" >
     <v>       2.64098434      -0.00000000       0.00000000 </v>
     <v>      -1.32049217       2.28715953       0.00000000 </v>
     <v>       0.00000000       0.00000000       4.67678277 </v>
    </varray>
    <i name="volume">     28.24941656 </i>
    <varray name="rec_basis" >
     <v>       0.37864670       0.21861177      -0.00000000 </v>
     <v>       0.00000000       0.43722355      -0.00000000 </v>
     <v>      -0.00000000      -0.00000000       0.21382220 </v>
    </varray>
   </crystal>
   <varray name="positions" >
    <v>       0.33333333       0.66666667       0.25000000 </v>
    <v>       0.66666667       0.33333333       0.75000000 </v>
   </varray>
  </structure>
  <varray name="forces" >
   <v>       0.00000000      -0.00000000      -0.00000000 </v>
   <v>      -0.00000000       0.00000000       0.00000000 </v>
  </varray>
  <varray name="stress" >
   <v>      -6.49580453       0.00000000      -0.00000000 </v>
   <v>       0.00000000      -6.49580453       0.00000000 </v>
   <v>      -0.00000000      -0.00000000     -10.39574334 </v>
  </varray>
  <energy>
   <i name="e_fr_energy">     -3.17085626 </i>
   <i name="e_wo_entrp">     -3.16921184 </i>
   <i name="e_0_energy">     -3.17003405 </i>
  </energy>
  <time name="totalsc">    8.04    8.06</time>
 </calculation>
 <calculation>
  <scstep>
   <time name="dav">    0.68    0.68</time>
   <time name="total">    0.81    0.81</time>
   <energy>
    <i name="alphaZ">    226.58661877 </i>
    <i name="ewald">  -2484.96125345 </i>
    <i name="hartreedc">   -922.72828539 </i>
    <i name="XCdc">    115.60645002 </i>
    <i name="pawpsdc">   3084.01702313 </i>
    <i name="pawaedc">  -3439.26680228 </i>
    <i name="eentropy">     -0.00104991 </i>
    <i name="bandstr">    -78.59418297 </i>
    <i name="atom">   3496.10054737 </i>
    <i name="e_fr_energy">     -3.24093471 </i>
    <i name="e_wo_entrp">     -3.23988480 </i>
    <i name="e_0_energy">     -3.24040975 </i>
   </energy>
  </scstep>
  <scstep>
   <time name="dav">    0.66    0.67</time>
   <time name="total">    0.80    0.81</time>
   <energy>
    <i name="e_fr_energy">     -3.18553376 </i>
    <i name="e_wo_entrp">     -3.18440623 </i>
    <i name="e_0_energy">     -3.18496999 </i>
   </energy>
  </scstep>
  <scstep>
   <time name="dav">    0.72    0.72</time>
   <time name="total">    0.86    0.86</time>
   <energy>
    <i name="e_fr_energy">     -3.17477060 </i>
    <i name="e_wo_entrp">     -3.17359090 </i>
    <i name="e_0_energy">     -3.17418075 </i>
   </energy>
  </scstep>
  <scstep>
   <time name="dav">    0.87    0.87</time>
   <time name="total">    1.01    1.01</time>
   <energy>
    <i name="e_fr_energy">     -3.17119068 </i>
    <i name="e_wo_entrp">     -3.16995985 </i>
    <i name="e_0_energy">     -3.17057526 </i>
   </energy>
  </scstep>
  <scstep>
   <time name="dav">    0.68    0.68</time>
   <time name="total">    0.82    0.82</time>
   <energy>
    <i name="e_fr_energy">     -3.17123009 </i>
    <i name="e_wo_entrp">     -3.17000007 </i>
    <i name="e_0_energy">     -3.17061508 </i>
   </energy>
  </scstep>
  <scstep>
   <time name="dav">    0.67    0.67</time>
   <time name="total">    0.81    0.81</time>
   <energy>
    <i name="e_fr_energy">     -3.17122767 </i>
    <i name="e_wo_entrp">     -3.16999818 </i>
    <i name="e_0_energy">     -3.17061292 </i>
   </energy>
  </scstep>
  <scstep>
   <time name="dav">    0.72    0.72</time>
   <time name="total">    0.86    0.86</time>
   <energy>
    <i name="e_fr_energy">     -3.17122754 </i>
    <i name="e_wo_entrp">     -3.16999779 </i>
    <i name="e_0_energy">     -3.17061266 </i>
   </energy>
  </scstep>
  <scstep>
   <time name="dav">    0.45    0.45</time>
   <time name="total">    0.58    0.58</time>
   <energy>
    <i name="e_fr_energy">     -3.17122741 </i>
    <i name="e_wo_entrp">     -3.16999771 </i>
    <i name="e_0_energy">     -3.17061256 </i>
   </energy>
  </scstep>
  <scstep>
   <time name="dav">    0.43    0.43</time>
   <time name="total">    0.48    0.48</time>
   <energy>
    <i name="alphaZ">    226.58661877 </i>
    <i name="ewald">  -2484.96125345 </i>
    <i name="hartreedc">   -913.79925455 </i>
    <i name="XCdc">    115.16260397 </i>
    <i name="pawpsdc">   3090.47606193 </i>
    <i name="pawaedc">  -3445.80991471 </i>
    <i name="eentropy">     -0.00122970 </i>
    <i name="bandstr">    -86.92540705 </i>
    <i name="atom">   3496.10054737 </i>
    <i name="e_fr_energy">     -3.17122742 </i>
    <i name="e_wo_entrp">     -3.16999772 </i>
    <i name="e_0_energy">     -3.17061257 </i>
   </energy>
  </scstep>
  <structure>
   <crystal>
    <varray name="basis" >
     <v>       2.64362076      -0.00000000      -0.00000000 </v>
     <v>      -1.32181038       2.28944273       0.00000000 </v>
     <v>       0.00000000       0.00000000       4.61652891 </v>
    </varray>
    <i name="volume">     27.94116420 </i>
    <varray name="rec_basis" >
     <v>       0.37826908       0.21839376      -0.00000000 </v>
     <v>       0.00000000       0.43678751      -0.00000000 </v>
     <v>       0.00000000      -0.00000000       0.21661296 </v>
    </varray>
   </crystal>
   <varray name="positions" >
    <v>       0.33333333       0.66666667       0.25000000 </v>
    <v>       0.66666667       0.33333333       0.75000000 </v>
   </varray>
  </structure>
  <varray name="forces" >
   <v>      -0.00000000       0.00000000      -0.00000000 </v>
   <v>       0.00000000      -0.00000000       0.00000000 </v>
  </varray>
  <varray name="stress" >
   <v>      -2.84166344       0.00000000      -0.00000000 </v>
   <v>       0.00000000      -2.84166344      -0.00000000 </v>
   <v>      -0.00000000      -0.00000000       8.00552363 </v>
  </varray>
  <energy>
   <i name="e_fr_energy">     -3.17122742 </i>
   <i name="e_wo_entrp">     -3.16999772 </i>
   <i name="e_0_energy">     -3.17061257 </i>
  </energy>
  <time name="totalsc">    9.29    9.32</time>
 </calculation>
 <calculation>
  <scstep>
   <time name="dav">    0.69    0.69</time>
   <time name="total">    0.82    0.83</time>
   <energy>
    <i name="alphaZ">    225.63504308 </i>
    <i name="ewald">  -2481.19066074 </i>
    <i name="hartreedc">   -912.68299778 </i>
    <i name="XCdc">    114.97855915 </i>
    <i name="pawpsdc">   3090.47392323 </i>
    <i name="pawaedc">  -3445.80791832 </i>
    <i name="eentropy">     -0.00131204 </i>
    <i name="bandstr">    -90.68706535 </i>
    <i name="atom">   3496.10054737 </i>
    <i name="e_fr_energy">     -3.18188140 </i>
    <i name="e_wo_entrp">     -3.18056936 </i>
    <i name="e_0_energy">     -3.18122538 </i>
   </energy>
  </scstep>
  <scstep>
   <time name="dav">    0.70    0.70</time>
   <time name="total">    0.84    0.84</time>
   <energy>
    <i name="e_fr_energy">     -3.17371211 </i>
    <i name="e_wo_entrp">     -3.17248189 </i>
    <i name="e_0_energy">     -3.17309700 </i>
   </energy>
  </scstep>
  <scstep>
   <time name="dav">    0.73    0.73</time>
   <time name="total">    0.87    0.87</time>
   <energy>
    <i name="e_fr_energy">     -3.17210969 </i>
    <i name="e_wo_entrp">     -3.17091043 </i>
    <i name="e_0_energy">     -3.17151006 </i>
   </energy>
  </scstep>
  <scstep>
   <time name="dav">    0.87    0.87</time>
   <time name="total">    1.01    1.01</time>
   <energy>
    <i name="e_fr_energy">     -3.17159841 </i>
    <i name="e_wo_entrp">     -3.17043100 </i>
    <i name="e_0_energy">     -3.17101471 </i>
   </energy>
  </scstep>
  <scstep>
   <time name="dav">    0.68    0.68</time>
   <time name="total">    0.82    0.82</time>
   <energy>
    <i name="e_fr_energy">     -3.17160536 </i>
    <i name="e_wo_entrp">     -3.17043548 </i>
    <i name="e_0_energy">     -3.17102042 </i>
   </energy>
  </scstep>
  <scstep>
   <time name="dav">    0.67    0.67</time>
   <time name="total">    0.81    0.81</time>
   <energy>
    <i name="e_fr_energy">     -3.17160474 </i>
    <i name="e_wo_entrp">     -3.17043431 </i>
    <i name="e_0_energy">     -3.17101953 </i>
   </energy>
  </scstep>
  <scstep>
   <time name="dav">    0.64    0.64</time>
   <time name="total">    0.69    0.69</time>
   <energy>
    <i name="alphaZ">    225.63504308 </i>
    <i name="ewald">  -2481.19066074 </i>
    <i name="hartreedc">   -916.11951703 </i>
    <i name="XCdc">    115.14811179 </i>
    <i name="pawpsdc">   3087.95576629 </i>
    <i name="pawaedc">  -3443.25618742 </i>
    <i name="eentropy">     -0.00117019 </i>
    <i name="bandstr">    -87.44353797 </i>
    <i name="atom">   3496.10054737 </i>
    <i name="e_fr_energy">     -3.17160482 </i>
    <i name="e_wo_entrp">     -3.17043462 </i>
    <i name="e_0_energy">     -3.17101972 </i>
   </energy>
  </scstep>
  <structure>
   <crystal>
    <varray name="basis" >
     <v>       2.64261433      -0.00000000      -0.00000000 </v>
     <v>      -1.32130717       2.28857115       0.00000000 </v>
     <v>       0.00000000       0.00000000       4.63953015 </v>
    </varray>
    <i name="volume">     28.05900109 </i>
    <varray name="rec_basis" >
     <v>       0.37841314       0.21847693      -0.00000000 </v>
     <v>       0.00000000       0.43695386      -0.00000000 </v>
     <v>       0.00000000      -0.00000000       0.21553907 </v>
    </varray>
   </crystal>
   <varray name="positions" >
    <v>       0.33333333       0.66666667       0.25000000 </v>
    <v>       0.66666667       0.33333333       0.75000000 </v>
   </varray>
  </structure>
  <varray name="forces" >
   <v>       0.00000000      -0.00000000      -0.00000000 </v>
   <v>      -0.00000000       0.00000000       0.00000000 </v>
  </varray>
  <varray name="stress" >
   <v>      -4.31436904       0.00000000      -0.00000000 </v>
   <v>       0.00000000      -4.31436904      -0.00000000 </v>
   <v>       0.00000000      -0.00000000      -0.81602318 </v>
  </varray>
  <energy>
   <i name="e_fr_energy">     -3.17160482 </i>
   <i name="e_wo_entrp">     -3.17043462 </i>
   <i name="e_0_energy">     -3.17101972 </i>
  </energy>
  <time name="totalsc">    8.13    8.15</time>
 </calculation>
 <calculation>
  <scstep>
   <time name="dav">    0.67    0.67</time>
   <time name="total">    0.80    0.81</time>
   <energy>
    <i name="alphaZ">    226.46833796 </i>
    <i name="ewald">  -2484.03006689 </i>
    <i name="hartreedc">   -917.36732227 </i>
    <i name="XCdc">    115.30952748 </i>
    <i name="pawpsdc">   3087.93122887 </i>
    <i name="pawaedc">  -3443.23126369 </i>
    <i name="eentropy">     -0.00131704 </i>
    <i name="bandstr">    -84.35799029 </i>
    <i name="atom">   3496.10054737 </i>
    <i name="e_fr_energy">     -3.17831851 </i>
    <i name="e_wo_entrp">     -3.17700146 </i>
    <i name="e_0_energy">     -3.17765998 </i>
   </energy>
  </scstep>
  <scstep>
   <time name="dav">    0.68    0.69</time>
   <time name="total">    0.82    0.82</time>
   <energy>
    <i name="e_fr_energy">     -3.17291878 </i>
    <i name="e_wo_entrp">     -3.17162588 </i>
    <i name="e_0_energy">     -3.17227233 </i>
   </energy>
  </scstep>
  <scstep>
   <time name="dav">    0.70    0.70</time>
   <time name="total">    0.83    0.84</time>
   <energy>
    <i name="e_fr_energy">     -3.17200739 </i>
    <i name="e_wo_entrp">     -3.17074541 </i>
    <i name="e_0_energy">     -3.17137640 </i>
   </energy>
  </scstep>
  <scstep>
   <time name="dav">    0.79    0.80</time>
   <time name="total">    0.93    0.93</time>
   <energy>
    <i name="e_fr_energy">     -3.17167574 </i>
    <i name="e_wo_entrp">     -3.17044155 </i>
    <i name="e_0_energy">     -3.17105865 </i>
   </energy>
  </scstep>
  <scstep>
   <time name="dav">    0.70    0.70</time>
   <time name="total">    0.84    0.84</time>
   <energy>
    <i name="e_fr_energy">     -3.17167754 </i>
    <i name="e_wo_entrp">     -3.17044108 </i>
    <i name="e_0_energy">     -3.17105931 </i>
   </energy>
  </scstep>
  <scstep>
   <time name="dav">    0.66    0.66</time>
   <time name="total">    0.79    0.80</time>
   <energy>
    <i name="e_fr_energy">     -3.17167724 </i>
    <i name="e_wo_entrp">     -3.17044057 </i>
    <i name="e_0_energy">     -3.17105891 </i>
   </energy>
  </scstep>
  <scstep>
   <time name="dav">    0.45    0.45</time>
   <time name="total">    0.50    0.50</time>
   <energy>
    <i name="alphaZ">    226.46833796 </i>
    <i name="ewald">  -2484.03006689 </i>
    <i name="hartreedc">   -914.47260383 </i>
    <i name="XCdc">    115.16189108 </i>
    <i name="pawpsdc">   3091.02994845 </i>
    <i name="pawaedc">  -3446.37070382 </i>
    <i name="eentropy">     -0.00123659 </i>
    <i name="bandstr">    -87.05779087 </i>
    <i name="atom">   3496.10054737 </i>
    <i name="e_fr_energy">     -3.17167715 </i>
    <i name="e_wo_entrp">     -3.17044056 </i>
    <i name="e_0_energy">     -3.17105885 </i>
   </energy>
  </scstep>
  <structure>
   <crystal>
    <varray name="basis" >
     <v>       2.63614941      -0.00000000      -0.00000000 </v>
     <v>      -1.31807471       2.28297236       0.00000000 </v>
     <v>       0.00000000       0.00000000       4.64515905 </v>
    </varray>
    <i name="volume">     27.95575742 </i>
    <varray name="rec_basis" >
     <v>       0.37934117       0.21901273      -0.00000000 </v>
     <v>       0.00000000       0.43802545      -0.00000000 </v>
     <v>       0.00000000      -0.00000000       0.21527788 </v>
    </varray>
   </crystal>
   <varray name="positions" >
[...]
       </set>
       <set comment="band 13">
        <r>  0.0484  0.1802  0.0728 </r>
        <r>  0.0484  0.1802  0.0728 </r>
       </set>
       <set comment="band 14">
        <r>  0.0104  0.2088  0.0873 </r>
        <r>  0.0104  0.2088  0.0873 </r>
       </set>
       <set comment="band 15">
        <r>  0.0737  0.1741  0.0718 </r>
        <r>  0.0737  0.1741  0.0718 </r>
       </set>
       <set comment="band 16">
        <r>  0.0338  0.1218  0.1066 </r>
        <r>  0.0338  0.1218  0.1066 </r>
       </set>
      </set>
      <set comment="kpoint 88">
       <set comment="band 1">
        <r>  0.0481  0.0142  0.3603 </r>
        <r>  0.0481  0.0142  0.3603 </r>
       </set>
       <set comment="band 2">
        <r>  0.0227  0.0101  0.4116 </r>
        <r>  0.0227  0.0101  0.4116 </r>
       </set>
       <set comment="band 3">
        <r>  0.0068  0.0051  0.4603 </r>
        <r>  0.0068  0.0051  0.4603 </r>
       </set>
       <set comment="band 4">
        <r>  0.0060  0.0055  0.4623 </r>
        <r>  0.0060  0.0055  0.4623 </r>
       </set>
       <set comment="band 5">
        <r>  0.0105  0.0099  0.4492 </r>
        <r>  0.0105  0.0099  0.4492 </r>
       </set>
       <set comment="band 6">
        <r>  0.0119  0.0092  0.4501 </r>
        <r>  0.0119  0.0092  0.4501 </r>
       </set>
       <set comment="band 7">
        <r>  0.0006  0.0003  0.4885 </r>
        <r>  0.0006  0.0003  0.4885 </r>
       </set>
       <set comment="band 8">
        <r>  0.0000  0.0009  0.4896 </r>
        <r>  0.0000  0.0009  0.4896 </r>
       </set>
       <set comment="band 9">
        <r>  0.0007  0.0004  0.4938 </r>
        <r>  0.0007  0.0004  0.4938 </r>
       </set>
       <set comment="band 10">
        <r>  0.0000  0.0004  0.4958 </r>
        <r>  0.0000  0.0004  0.4958 </r>
       </set>
       <set comment="band 11">
        <r>  0.1193  0.0607  0.1820 </r>
        <r>  0.1193  0.0607  0.1820 </r>
       </set>
       <set comment="band 12">
        <r>  0.1322  0.0813  0.1234 </r>
        <r>  0.1322  0.0813  0.1234 </r>
       </set>
       <set comment="band 13">
        <r>  0.0436  0.1704  0.0877 </r>
        <r>  0.0436  0.1704  0.0877 </r>
       </set>
       <set comment="band 14">
        <r>  0.0454  0.2027  0.0598 </r>
        <r>  0.0454  0.2027  0.0598 </r>
       </set>
       <set comment="band 15">
        <r>  0.0825  0.1340  0.0860 </r>
        <r>  0.0825  0.1340  0.0860 </r>
       </set>
       <set comment="band 16">
        <r>  0.0490  0.1836  0.0751 </r>
        <r>  0.0490  0.1836  0.0751 </r>
       </set>
      </set>
      <set comment="kpoint 89">
       <set comment="band 1">
        <r>  0.0220  0.0056  0.4205 </r>
        <r>  0.0220  0.0056  0.4205 </r>
       </set>
       <set comment="band 2">
        <r>  0.0169  0.0067  0.4283 </r>
        <r>  0.0169  0.0067  0.4283 </r>
       </set>
       <set comment="band 3">
        <r>  0.0028  0.0035  0.4673 </r>
        <r>  0.0028  0.0035  0.4673 </r>
       </set>
       <set comment="band 4">
        <r>  0.0020  0.0038  0.4704 </r>
        <r>  0.0020  0.0038  0.4704 </r>
       </set>
       <set comment="band 5">
        <r>  0.0025  0.0077  0.4673 </r>
        <r>  0.0025  0.0077  0.4673 </r>
       </set>
       <set comment="band 6">
        <r>  0.0051  0.0073  0.4666 </r>
        <r>  0.0051  0.0073  0.4666 </r>
       </set>
       <set comment="band 7">
        <r>  0.0030  0.0047  0.4772 </r>
        <r>  0.0030  0.0047  0.4772 </r>
       </set>
       <set comment="band 8">
        <r>  0.0005  0.0004  0.4899 </r>
        <r>  0.0005  0.0004  0.4899 </r>
       </set>
       <set comment="band 9">
        <r>  0.0014  0.0008  0.4922 </r>
        <r>  0.0014  0.0008  0.4922 </r>
       </set>
       <set comment="band 10">
        <r>  0.0003  0.0001  0.4966 </r>
        <r>  0.0003  0.0001  0.4966 </r>
       </set>
       <set comment="band 11">
        <r>  0.1248  0.0967  0.1044 </r>
        <r>  0.1248  0.0967  0.1044 </r>
       </set>
       <set comment="band 12">
        <r>  0.1202  0.1147  0.0803 </r>
        <r>  0.1202  0.1147  0.0803 </r>
       </set>
       <set comment="band 13">
        <r>  0.1008  0.1368  0.0734 </r>
        <r>  0.1008  0.1368  0.0734 </r>
       </set>
       <set comment="band 14">
        <r>  0.0806  0.1562  0.0723 </r>
        <r>  0.0806  0.1562  0.0723 </r>
       </set>
       <set comment="band 15">
        <r>  0.0457  0.1785  0.0761 </r>
        <r>  0.0457  0.1785  0.0761 </r>
       </set>
       <set comment="band 16">
        <r>  0.0449  0.1972  0.0678 </r>
        <r>  0.0449  0.1972  0.0678 </r>
       </set>
      </set>
      <set comment="kpoint 90">
       <set comment="band 1">
        <r>  0.0164  0.0033  0.4339 </r>
        <r>  0.0164  0.0033  0.4339 </r>
       </set>
       <set comment="band 2">
        <r>  0.0133  0.0052  0.4380 </r>
        <r>  0.0133  0.0052  0.4380 </r>
       </set>
       <set comment="band 3">
        <r>  0.0013  0.0024  0.4705 </r>
        <r>  0.0013  0.0024  0.4705 </r>
       </set>
       <set comment="band 4">
        <r>  0.0006  0.0029  0.4732 </r>
        <r>  0.0006  0.0029  0.4732 </r>
       </set>
       <set comment="band 5">
        <r>  0.0012  0.0030  0.4783 </r>
        <r>  0.0012  0.0030  0.4783 </r>
       </set>
       <set comment="band 6">
        <r>  0.0007  0.0031  0.4821 </r>
        <r>  0.0007  0.0031  0.4821 </r>
       </set>
       <set comment="band 7">
        <r>  0.0005  0.0055  0.4812 </r>
        <r>  0.0005  0.0055  0.4812 </r>
       </set>
       <set comment="band 8">
        <r>  0.0011  0.0058  0.4807 </r>
        <r>  0.0011  0.0058  0.4807 </r>
       </set>
       <set comment="band 9">
        <r>  0.0008  0.0011  0.4927 </r>
        <r>  0.0008  0.0011  0.4927 </r>
       </set>
       <set comment="band 10">
        <r>  0.0004  0.0003  0.4960 </r>
        <r>  0.0004  0.0003  0.4960 </r>
       </set>
       <set comment="band 11">
        <r>  0.0985  0.1386  0.0668 </r>
        <r>  0.0985  0.1386  0.0668 </r>
       </set>
       <set comment="band 12">
        <r>  0.0772  0.1646  0.0536 </r>
        <r>  0.0772  0.1646  0.0536 </r>
       </set>
       <set comment="band 13">
        <r>  0.1537  0.0925  0.0779 </r>
        <r>  0.1537  0.0925  0.0779 </r>
       </set>
       <set comment="band 14">
        <r>  0.1244  0.1201  0.0726 </r>
        <r>  0.1244  0.1201  0.0726 </r>
       </set>
       <set comment="band 15">
        <r>  0.0555  0.1775  0.0672 </r>
        <r>  0.0555  0.1775  0.0672 </r>
       </set>
       <set comment="band 16">
        <r>  0.0437  0.1896  0.0728 </r>
        <r>  0.0437  0.1896  0.0728 </r>
       </set>
      </set>
      <set comment="kpoint 91">
       <set comment="band 1">
        <r>  0.0152  0.0027  0.4368 </r>
        <r>  0.0152  0.0027  0.4368 </r>
       </set>
       <set comment="band 2">
        <r>  0.0122  0.0048  0.4406 </r>
        <r>  0.0122  0.0048  0.4406 </r>
       </set>
       <set comment="band 3">
        <r>  0.0008  0.0019  0.4718 </r>
        <r>  0.0008  0.0019  0.4718 </r>
       </set>
       <set comment="band 4">
        <r>  0.0002  0.0026  0.4741 </r>
        <r>  0.0002  0.0026  0.4741 </r>
       </set>
       <set comment="band 5">
        <r>  0.0013  0.0025  0.4788 </r>
        <r>  0.0013  0.0025  0.4788 </r>
       </set>
       <set comment="band 6">
        <r>  0.0005  0.0022  0.4841 </r>
        <r>  0.0005  0.0022  0.4841 </r>
       </set>
       <set comment="band 7">
        <r>  0.0003  0.0060  0.4813 </r>
        <r>  0.0003  0.0060  0.4813 </r>
       </set>
       <set comment="band 8">
        <r>  0.0000  0.0062  0.4822 </r>
        <r>  0.0000  0.0062  0.4822 </r>
       </set>
       <set comment="band 9">
        <r>  0.0001  0.0009  0.4945 </r>
        <r>  0.0001  0.0009  0.4945 </r>
       </set>
       <set comment="band 10">
        <r>  0.0001  0.0002  0.4962 </r>
        <r>  0.0001  0.0002  0.4962 </r>
       </set>
       <set comment="band 11">
        <r>  0.0005  0.2328  0.0330 </r>
        <r>  0.0005  0.2328  0.0330 </r>
       </set>
       <set comment="band 12">
        <r>  0.0470  0.1972  0.0426 </r>
        <r>  0.0470  0.1972  0.0426 </r>
       </set>
       <set comment="band 13">
        <r>  0.2229  0.0352  0.0884 </r>
        <r>  0.2229  0.0352  0.0884 </r>
       </set>
       <set comment="band 14">
        <r>  0.1902  0.0558  0.0898 </r>
        <r>  0.1902  0.0558  0.0898 </r>
       </set>
       <set comment="band 15">
        <r>  0.0573  0.1776  0.0649 </r>
        <r>  0.0573  0.1776  0.0649 </r>
       </set>
       <set comment="band 16">
        <r>  0.0480  0.1841  0.0717 </r>
        <r>  0.0480  0.1841  0.0717 </r>
       </set>
      </set>
      <set comment="kpoint 92">
       <set comment="band 1">
        <r>  0.0221  0.0072  0.4184 </r>
        <r>  0.0221  0.0072  0.4184 </r>
       </set>
       <set comment="band 2">
        <r>  0.0101  0.0054  0.4416 </r>
        <r>  0.0101  0.0054  0.4416 </r>
       </set>
       <set comment="band 3">
        <r>  0.0027  0.0057  0.4655 </r>
        <r>  0.0027  0.0057  0.4655 </r>
       </set>
       <set comment="band 4">
        <r>  0.0040  0.0070  0.4625 </r>
        <r>  0.0040  0.0070  0.4625 </r>
       </set>
       <set comment="band 5">
        <r>  0.0062  0.0097  0.4560 </r>
        <r>  0.0062  0.0097  0.4560 </r>
       </set>
       <set comment="band 6">
        <r>  0.0113  0.0111  0.4471 </r>
        <r>  0.0113  0.0111  0.4471 </r>
       </set>
       <set comment="band 7">
        <r>  0.0023  0.0001  0.4852 </r>
        <r>  0.0023  0.0001  0.4852 </r>
       </set>
       <set comment="band 8">
        <r>  0.0004  0.0002  0.4897 </r>
        <r>  0.0004  0.0002  0.4897 </r>
       </set>
       <set comment="band 9">
        <r>  0.0013  0.0008  0.4925 </r>
        <r>  0.0013  0.0008  0.4925 </r>
       </set>
       <set comment="band 10">
        <r>  0.0002  0.0001  0.4968 </r>
        <r>  0.0002  0.0001  0.4968 </r>
       </set>
       <set comment="band 11">
        <r>  0.1266  0.0882  0.1188 </r>
        <r>  0.1266  0.0882  0.1188 </r>
       </set>
       <set comment="band 12">
        <r>  0.1247  0.1065  0.0894 </r>
        <r>  0.1247  0.1065  0.0894 </r>
       </set>
       <set comment="band 13">
        <r>  0.1190  0.1431  0.0602 </r>
        <r>  0.1190  0.1431  0.0602 </r>
       </set>
       <set comment="band 14">
        <r>  0.0187  0.1752  0.0918 </r>
        <r>  0.0187  0.1752  0.0918 </r>
       </set>
       <set comment="band 15">
        <r>  0.0068  0.2053  0.0817 </r>
        <r>  0.0068  0.2053  0.0817 </r>
       </set>
       <set comment="band 16">
        <r>  0.1185  0.1478  0.0586 </r>
        <r>  0.1185  0.1478  0.0586 </r>
       </set>
      </set>
      <set comment="kpoint 93">
       <set comment="band 1">
        <r>  0.0103  0.0040  0.4443 </r>
        <r>  0.0103  0.0040  0.4443 </r>
       </set>
       <set comment="band 2">
        <r>  0.0111  0.0047  0.4430 </r>
        <r>  0.0111  0.0047  0.4430 </r>
       </set>
       <set comment="band 3">
        <r>  0.0018  0.0061  0.4652 </r>
        <r>  0.0018  0.0061  0.4652 </r>
       </set>
       <set comment="band 4">
        <r>  0.0017  0.0058  0.4681 </r>
        <r>  0.0017  0.0058  0.4681 </r>
       </set>
       <set comment="band 5">
        <r>  0.0012  0.0075  0.4670 </r>
        <r>  0.0012  0.0075  0.4670 </r>
       </set>
       <set comment="band 6">
        <r>  0.0036  0.0100  0.4612 </r>
        <r>  0.0036  0.0100  0.4612 </r>
       </set>
       <set comment="band 7">
        <r>  0.0026  0.0036  0.4795 </r>
        <r>  0.0026  0.0036  0.4795 </r>
       </set>
       <set comment="band 8">
        <r>  0.0016  0.0009  0.4867 </r>
        <r>  0.0016  0.0009  0.4867 </r>
       </set>
       <set comment="band 9">
        <r>  0.0007  0.0010  0.4931 </r>
        <r>  0.0007  0.0010  0.4931 </r>
       </set>
       <set comment="band 10">
        <r>  0.0003  0.0002  0.4964 </r>
        <r>  0.0003  0.0002  0.4964 </r>
       </set>
       <set comment="band 11">
        <r>  0.1139  0.1175  0.0842 </r>
        <r>  0.1139  0.1175  0.0842 </r>
       </set>
       <set comment="band 12">
        <r>  0.1010  0.1374  0.0697 </r>
        <r>  0.1010  0.1374  0.0697 </r>
       </set>
       <set comment="band 13">
        <r>  0.1119  0.1300  0.0706 </r>
        <r>  0.1119  0.1300  0.0706 </r>
       </set>
       <set comment="band 14">
        <r>  0.0836  0.1513  0.0736 </r>
        <r>  0.0836  0.1513  0.0736 </r>
       </set>
       <set comment="band 15">
        <r>  0.0884  0.1511  0.0659 </r>
        <r>  0.0884  0.1511  0.0659 </r>
       </set>
       <set comment="band 16">
        <r>  0.0690  0.1661  0.0709 </r>
        <r>  0.0690  0.1661  0.0709 </r>
       </set>
      </set>
      <set comment="kpoint 94">
       <set comment="band 1">
        <r>  0.0102  0.0034  0.4460 </r>
        <r>  0.0102  0.0034  0.4460 </r>
       </set>
       <set comment="band 2">
        <r>  0.0091  0.0050  0.4466 </r>
        <r>  0.0091  0.0050  0.4466 </r>
       </set>
       <set comment="band 3">
        <r>  0.0003  0.0052  0.4687 </r>
        <r>  0.0003  0.0052  0.4687 </r>
       </set>
       <set comment="band 4">
        <r>  0.0003  0.0050  0.4711 </r>
        <r>  0.0003  0.0050  0.4711 </r>
       </set>
       <set comment="band 5">
        <r>  0.0017  0.0052  0.4699 </r>
        <r>  0.0017  0.0052  0.4699 </r>
       </set>
       <set comment="band 6">
        <r>  0.0007  0.0069  0.4713 </r>
        <r>  0.0007  0.0069  0.4713 </r>
       </set>
       <set comment="band 7">
        <r>  0.0002  0.0060  0.4798 </r>
        <r>  0.0002  0.0060  0.4798 </r>
       </set>
       <set comment="band 8">
        <r>  0.0006  0.0055  0.4808 </r>
        <r>  0.0006  0.0055  0.4808 </r>
       </set>
       <set comment="band 9">
        <r>  0.0001  0.0004  0.4951 </r>
        <r>  0.0001  0.0004  0.4951 </r>
       </set>
       <set comment="band 10">
        <r>  0.0001  0.0003  0.4963 </r>
        <r>  0.0001  0.0003  0.4963 </r>
       </set>
       <set comment="band 11">
        <r>  0.0752  0.1605  0.0634 </r>
        <r>  0.0752  0.1605  0.0634 </r>
       </set>
       <set comment="band 12">
        <r>  0.0322  0.2025  0.0521 </r>
        <r>  0.0322  0.2025  0.0521 </r>
       </set>
       <set comment="band 13">
        <r>  0.1838  0.0672  0.0804 </r>
        <r>  0.1838  0.0672  0.0804 </r>
       </set>
       <set comment="band 14">
        <r>  0.1335  0.1115  0.0738 </r>
        <r>  0.1335  0.1115  0.0738 </r>
       </set>
       <set comment="band 15">
        <r>  0.0902  0.1509  0.0641 </r>
        <r>  0.0902  0.1509  0.0641 </r>
       </set>
       <set comment="band 16">
        <r>  0.0748  0.1617  0.0691 </r>
        <r>  0.0748  0.1617  0.0691 </r>
       </set>
      </set>
      <set comment="kpoint 95">
       <set comment="band 1">
        <r>  0.0058  0.0032  0.4557 </r>
        <r>  0.0058  0.0032  0.4557 </r>
       </set>
       <set comment="band 2">
        <r>  0.0089  0.0024  0.4538 </r>
        <r>  0.0089  0.0024  0.4538 </r>
       </set>
       <set comment="band 3">
        <r>  0.0006  0.0095  0.4597 </r>
        <r>  0.0006  0.0095  0.4597 </r>
       </set>
       <set comment="band 4">
        <r>  0.0011  0.0056  0.4670 </r>
        <r>  0.0011  0.0056  0.4670 </r>
       </set>
       <set comment="band 5">
        <r>  0.0004  0.0097  0.4642 </r>
        <r>  0.0004  0.0097  0.4642 </r>
       </set>
       <set comment="band 6">
        <r>  0.0012  0.0113  0.4614 </r>
        <r>  0.0012  0.0113  0.4614 </r>
       </set>
       <set comment="band 7">
        <r>  0.0014  0.0040  0.4804 </r>
        <r>  0.0014  0.0040  0.4804 </r>
       </set>
       <set comment="band 8">
        <r>  0.0010  0.0016  0.4861 </r>
        <r>  0.0010  0.0016  0.4861 </r>
       </set>
       <set comment="band 9">
        <r>  0.0001  0.0005  0.4950 </r>
        <r>  0.0001  0.0005  0.4950 </r>
       </set>
       <set comment="band 10">
        <r>  0.0000  0.0003  0.4963 </r>
        <r>  0.0000  0.0003  0.4963 </r>
       </set>
       <set comment="band 11">
        <r>  0.0936  0.1417  0.0716 </r>
        <r>  0.0936  0.1417  0.0716 </r>
       </set>
       <set comment="band 12">
        <r>  0.0667  0.1692  0.0638 </r>
        <r>  0.0667  0.1692  0.0638 </r>
       </set>
       <set comment="band 13">
        <r>  0.1637  0.1021  0.0616 </r>
        <r>  0.1637  0.1021  0.0616 </r>
       </set>
       <set comment="band 14">
        <r>  0.0104  0.1873  0.0857 </r>
        <r>  0.0104  0.1873  0.0857 </r>
       </set>
       <set comment="band 15">
        <r>  0.1963  0.0896  0.0494 </r>
        <r>  0.1963  0.0896  0.0494 </r>
       </set>
       <set comment="band 16">
        <r>  0.0670  0.1555  0.0750 </r>
        <r>  0.0670  0.1555  0.0750 </r>
       </set>
      </set>
      <set comment="kpoint 96">
       <set comment="band 1">
        <r>  0.0070  0.0023  0.4573 </r>
        <r>  0.0070  0.0023  0.4573 </r>
       </set>
       <set comment="band 2">
        <r>  0.0068  0.0013  0.4614 </r>
        <r>  0.0068  0.0013  0.4614 </r>
       </set>
       <set comment="band 3">
        <r>  0.0007  0.0058  0.4641 </r>
        <r>  0.0007  0.0058  0.4641 </r>
       </set>
       <set comment="band 4">
        <r>  0.0000  0.0112  0.4560 </r>
        <r>  0.0000  0.0112  0.4560 </r>
       </set>
       <set comment="band 5">
        <r>  0.0005  0.0108  0.4632 </r>
        <r>  0.0005  0.0108  0.4632 </r>
       </set>
       <set comment="band 6">
        <r>  0.0003  0.0116  0.4618 </r>
        <r>  0.0003  0.0116  0.4618 </r>
       </set>
       <set comment="band 7">
        <r>  0.0000  0.0047  0.4812 </r>
        <r>  0.0000  0.0047  0.4812 </r>
       </set>
       <set comment="band 8">
        <r>  0.0001  0.0018  0.4871 </r>
        <r>  0.0001  0.0018  0.4871 </r>
       </set>
       <set comment="band 9">
        <r>  0.0000  0.0001  0.4960 </r>
        <r>  0.0000  0.0001  0.4960 </r>
       </set>
       <set comment="band 10">
        <r>  0.0000  0.0000  0.4964 </r>
        <r>  0.0000  0.0000  0.4964 </r>
       </set>
       <set comment="band 11">
        <r>  0.0582  0.1819  0.0604 </r>
        <r>  0.0582  0.1819  0.0604 </r>
       </set>
       <set comment="band 12">
        <r>  0.0050  0.2152  0.0623 </r>
        <r>  0.0050  0.2152  0.0623 </r>
       </set>
       <set comment="band 13">
        <r>  0.1068  0.1286  0.0759 </r>
        <r>  0.1068  0.1286  0.0759 </r>
       </set>
       <set comment="band 14">
        <r>  0.1275  0.1098  0.0761 </r>
        <r>  0.1275  0.1098  0.0761 </r>
       </set>
       <set comment="band 15">
        <r>  0.1914  0.0790  0.0578 </r>
        <r>  0.1914  0.0790  0.0578 </r>
       </set>
       <set comment="band 16">
        <r>  0.1188  0.1293  0.0651 </r>
        <r>  0.1188  0.1293  0.0651 </r>
       </set>
      </set>
     </set>
    </set>
   </array>
  </projected>
 </calculation>
 <structure name="finalpos" >
  <crystal>
   <varray name="basis" >
    <v>       2.63854790      -0.00000000      -0.00000000 </v>
    <v>      -1.31927395       2.28504951       0.00000000 </v>
    <v>       0.00000000       0.00000000       4.64307073 </v>
   </varray>
   <i name="volume">     27.99406050 </i>
   <varray name="rec_basis" >
    <v>       0.37899634       0.21881364      -0.00000000 </v>
    <v>       0.00000000       0.43762728      -0.00000000 </v>
    <v>       0.00000000      -0.00000000       0.21537471 </v>
   </varray>
  </crystal>
  <varray name="positions" >
   <v>       0.33333333       0.66666667       0.25000000 </v>
   <v>       0.66666667       0.33333333       0.75000000 </v>
  </varray>
 </structure>
</modeling>
