       N       E                     dE             d eps       ncg     rms           ort
DAV:   1    -0.205065346331E+05   -0.20507E+05   -0.31690E+05  2552   0.216E+03  
DAV:   2    -0.322985433746E+05   -0.11792E+05   -0.10957E+05  2552   0.584E+02  
DAV:   3    -0.358859208432E+05   -0.35874E+04   -0.33443E+04  2552   0.273E+02  
DAV:   4    -0.364596667072E+05   -0.57375E+03   -0.55752E+03  2552   0.124E+02  
DAV:   5    -0.725733762117E+03    0.35734E+05   -0.13020E+03  2552   0.105E+02  
SDA:   6    -0.380688623997E+03    0.34505E+03   -0.53867E+03  2552   0.135E+04   0.000E+00
DMP:   7    -0.637476972567E+03   -0.25679E+03   -0.22070E+02  2552   0.863E+02  -0.814E+02
DMP:   8    -0.627384254634E+03    0.10093E+02   -0.57517E+02  2552   0.184E+03  -0.106E+03
DMP:   9    -0.663777393352E+03   -0.36393E+02   -0.18414E+02  2552   0.313E+02   0.385E+02
DMP:  10    -0.671159355324E+03   -0.73820E+01   -0.45141E+01  2552   0.147E+02  -0.886E+01
DMP:  11    -0.673835637943E+03   -0.26763E+01   -0.36670E+01  2552   0.831E+01   0.225E+01
DMP:  12    -0.675612994397E+03   -0.17774E+01   -0.48159E+00  2552   0.131E+01  -0.267E+00
DMP:  13    -0.675744045154E+03   -0.13105E+00   -0.40321E+00  2552   0.122E+01  -0.554E+00
DMP:  14    -0.675987413876E+03   -0.24337E+00   -0.12697E+00  2552   0.239E+00   0.207E+00
DMP:  15    -0.676034964648E+03   -0.47551E-01   -0.30196E-01  2552   0.106E+00  -0.803E-01
DMP:  16    -0.676052033493E+03   -0.17069E-01   -0.30497E-01  2552   0.725E-01   0.990E-02
DMP:  17    -0.676068521144E+03   -0.16488E-01   -0.59278E-02  2552   0.124E-01   0.634E-02
DMP:  18    -0.676070854221E+03   -0.23331E-02   -0.36481E-02  2552   0.103E-01  -0.309E-02
DMP:  19    -0.676073301726E+03   -0.24475E-02   -0.16888E-02  2552   0.303E-02   0.312E-02
DMP:  20    -0.676074260260E+03   -0.95853E-03   -0.54498E-03  2552   0.115E-02   0.563E-03
DMP:  21    -0.676074628905E+03   -0.36865E-03   -0.35794E-03  2552   0.711E-03   0.480E-03
DMP:  22    -0.676074861272E+03   -0.23237E-03   -0.12359E-03  2552   0.204E-03   0.274E-03
DMP:  23    -0.676074944141E+03   -0.82869E-04   -0.70061E-04  2552   0.133E-03   0.111E-03
DMP:  24    -0.676074999290E+03   -0.55149E-04   -0.37712E-04  2552   0.556E-04   0.101E-03
DMP:  25    -0.676075028773E+03   -0.29483E-04   -0.18972E-04  2552   0.276E-04   0.519E-04
DMP:  26    -0.676075044811E+03   -0.16037E-04   -0.11341E-04  2552   0.162E-04   0.318E-04
DMP:  27    -0.676075054266E+03   -0.94553E-05   -0.59874E-05  2552   0.786E-05   0.186E-04
   1 F= -.67607505E+03 E0= -.67605959E+03  d E =-.676075E+03  mag=     0.3943
       N       E                     dE             d eps       ncg     rms           ort
SDA:   1    -0.591735640047E+03    0.84339E+02   -0.11494E+03  2552   0.287E+03   0.000E+00
DMP:   2    -0.647292709231E+03   -0.55557E+02   -0.40358E+02  2552   0.992E+02   0.439E+01
DMP:   3    -0.672147300905E+03   -0.24855E+02   -0.10990E+02  2552   0.188E+02   0.226E+02
DMP:   4    -0.673734116509E+03   -0.15868E+01   -0.62120E+01  2552   0.233E+02  -0.204E+02
DMP:   5    -0.676131306031E+03   -0.23972E+01   -0.70042E+00  2552   0.295E+01  -0.313E+01
DMP:   6    -0.676512425106E+03   -0.38112E+00   -0.13025E+01  2552   0.319E+01   0.162E+00
DMP:   7    -0.677067630155E+03   -0.55521E+00   -0.27980E+00  2552   0.895E+00  -0.511E+00
DMP:   8    -0.677225392925E+03   -0.15776E+00   -0.69954E-01  2552   0.141E+00   0.884E-01
DMP:   9    -0.677232895829E+03   -0.75029E-02   -0.42679E-01  2552   0.159E+00  -0.137E+00
DMP:  10    -0.677255836745E+03   -0.22941E-01   -0.10182E-01  2552   0.224E-01   0.805E-02
DMP:  11    -0.677259733361E+03   -0.38966E-02   -0.87157E-02  2552   0.241E-01  -0.594E-02
DMP:  12    -0.677264275685E+03   -0.45423E-02   -0.15125E-02  2552   0.344E-02   0.892E-03
DMP:  13    -0.677265021983E+03   -0.74630E-03   -0.12209E-02  2552   0.308E-02  -0.597E-04
DMP:  14    -0.677265398441E+03   -0.37646E-03   -0.26506E-03  2552   0.110E-02  -0.115E-02
DMP:  15    -0.677265565974E+03   -0.16753E-03   -0.13851E-03  2552   0.281E-03   0.170E-03
DMP:  16    -0.677265626135E+03   -0.60161E-04   -0.83563E-04  2552   0.228E-03  -0.510E-04
DMP:  17    -0.677265680508E+03   -0.54374E-04   -0.28955E-04  2552   0.472E-04   0.658E-04
DMP:  18    -0.677265699735E+03   -0.19226E-04   -0.21753E-04  2552   0.448E-04   0.250E-04
DMP:  19    -0.677265716365E+03   -0.16630E-04   -0.11797E-04  2552   0.190E-04   0.274E-04
DMP:  20    -0.677265727124E+03   -0.10759E-04   -0.10728E-04  2552   0.176E-04   0.240E-04
DMP:  21    -0.677265736487E+03   -0.93630E-05   -0.85359E-05  2552   0.135E-04   0.206E-04
   2 F= -.67726574E+03 E0= -.67724057E+03  d E =-.119068E+01  mag=     0.1720
       N       E                     dE             d eps       ncg     rms           ort
SDA:   1    -0.675968006693E+03    0.12977E+01   -0.10793E+01  2552   0.270E+01   0.000E+00
DMP:   2    -0.676804784815E+03   -0.83678E+00   -0.61000E+00  2552   0.957E+00   0.149E+01
DMP:   3    -0.677210885646E+03   -0.40610E+00   -0.14871E+00  2552   0.179E+00   0.505E+00
DMP:   4    -0.677285610422E+03   -0.74725E-01   -0.11660E-01  2552   0.284E-01   0.191E-02
DMP:   5    -0.677283411883E+03    0.21985E-02   -0.41129E-02  2552   0.256E-01  -0.401E-01
DMP:   6    -0.677285424102E+03   -0.20122E-02   -0.83904E-02  2552   0.211E-01  -0.221E-03
DMP:   7    -0.677291652418E+03   -0.62283E-02   -0.46870E-02  2552   0.783E-02   0.102E-01
DMP:   8    -0.677294833218E+03   -0.31808E-02   -0.13557E-02  2552   0.179E-02   0.418E-02
DMP:   9    -0.677295623625E+03   -0.79041E-03   -0.25049E-03  2552   0.412E-03   0.560E-03
DMP:  10    -0.677295728905E+03   -0.10528E-03   -0.69267E-04  2552   0.212E-03  -0.101E-03
DMP:  11    -0.677295762345E+03   -0.33440E-04   -0.47188E-04  2552   0.120E-03  -0.582E-05
DMP:  12    -0.677295795098E+03   -0.32753E-04   -0.28956E-04  2552   0.550E-04   0.456E-04
DMP:  13    -0.677295815913E+03   -0.20815E-04   -0.13833E-04  2552   0.225E-04   0.316E-04
DMP:  14    -0.677295825740E+03   -0.98271E-05   -0.59750E-05  2552   0.926E-05   0.149E-04
   3 F= -.67729583E+03 E0= -.67726997E+03  d E =-.122077E+01  mag=     0.1167
       N       E                     dE             d eps       ncg     rms           ort
SDA:   1    -0.656225407719E+03    0.21070E+02   -0.20066E+02  2552   0.502E+02   0.000E+00
DMP:   2    -0.670742734751E+03   -0.14517E+02   -0.88263E+01  2552   0.135E+02   0.224E+02
DMP:   3    -0.676183345192E+03   -0.54406E+01   -0.21377E+01  2552   0.340E+01   0.510E+01
DMP:   4    -0.677279105401E+03   -0.10958E+01   -0.40682E+00  2552   0.967E+00   0.131E+00
DMP:   5    -0.677388540677E+03   -0.10944E+00   -0.12812E+00  2552   0.498E+00  -0.465E+00
DMP:   6    -0.677457007863E+03   -0.68467E-01   -0.13705E+00  2552   0.334E+00   0.231E-01
DMP:   7    -0.677549935790E+03   -0.92928E-01   -0.61379E-01  2552   0.107E+00   0.122E+00
DMP:   8    -0.677588699748E+03   -0.38764E-01   -0.20091E-01  2552   0.348E-01   0.404E-01
DMP:   9    -0.677600430109E+03   -0.11730E-01   -0.53205E-02  2552   0.101E-01   0.844E-02
DMP:  10    -0.677602951319E+03   -0.25212E-02   -0.15310E-02  2552   0.409E-02  -0.685E-03
DMP:  11    -0.677603738591E+03   -0.78727E-03   -0.86046E-03  2552   0.211E-02   0.118E-03
DMP:  12    -0.677604299616E+03   -0.56102E-03   -0.45689E-03  2552   0.892E-03   0.656E-03
DMP:  13    -0.677604603683E+03   -0.30407E-03   -0.19199E-03  2552   0.336E-03   0.376E-03
DMP:  14    -0.677604726398E+03   -0.12272E-03   -0.63860E-04  2552   0.109E-03   0.133E-03
DMP:  15    -0.677604763363E+03   -0.36965E-04   -0.17719E-04  2552   0.346E-04   0.254E-04
DMP:  16    -0.677604773550E+03   -0.10187E-04   -0.76412E-05  2552   0.166E-04   0.662E-05
DMP:  17    -0.677604778688E+03   -0.51383E-05   -0.44329E-05  2552   0.864E-05   0.640E-05
   4 F= -.67760478E+03 E0= -.67757887E+03  d E =-.308953E+00  mag=     0.0677
       N       E                     dE             d eps       ncg     rms           ort
SDA:   1    -0.677377705600E+03    0.22707E+00   -0.21063E+00  2552   0.527E+00   0.000E+00
DMP:   2    -0.677531912082E+03   -0.15421E+00   -0.95275E-01  2552   0.145E+00   0.244E+00
DMP:   3    -0.677591304809E+03   -0.59393E-01   -0.22983E-01  2552   0.350E-01   0.588E-01
DMP:   4    -0.677603318680E+03   -0.12014E-01   -0.41891E-02  2552   0.947E-02   0.261E-02
DMP:   5    -0.677604503108E+03   -0.11844E-02   -0.12128E-02  2552   0.477E-02  -0.455E-02
DMP:   6    -0.677605103416E+03   -0.60031E-03   -0.13173E-02  2552   0.330E-02  -0.302E-04
DMP:   7    -0.677606021742E+03   -0.91833E-03   -0.69716E-03  2552   0.125E-02   0.130E-02
DMP:   8    -0.677606475327E+03   -0.45359E-03   -0.23291E-03  2552   0.381E-03   0.526E-03
DMP:   9    -0.677606614651E+03   -0.13932E-03   -0.61819E-04  2552   0.111E-03   0.115E-03
DMP:  10    -0.677606645328E+03   -0.30677E-04   -0.15387E-04  2552   0.388E-04  -0.753E-06
DMP:  11    -0.677606652566E+03   -0.72379E-05   -0.84577E-05  2552   0.219E-04  -0.201E-05
   5 F= -.67760665E+03 E0= -.67758083E+03  d E =-.310827E+00  mag=     0.0494
       N       E                     dE             d eps       ncg     rms           ort
SDA:   1    -0.671968626261E+03    0.56380E+01   -0.49334E+01  2552   0.123E+02   0.000E+00
DMP:   2    -0.675663036316E+03   -0.36944E+01   -0.25326E+01  2552   0.398E+01   0.614E+01
DMP:   3    -0.677314518706E+03   -0.16515E+01   -0.64936E+00  2552   0.888E+00   0.192E+01
DMP:   4    -0.677645735746E+03   -0.33122E+00   -0.69748E-01  2552   0.162E+00   0.321E-01
DMP:   5    -0.677646703473E+03   -0.96773E-03   -0.20824E-01  2552   0.117E+00  -0.170E+00
DMP:   6    -0.677656304579E+03   -0.96011E-02   -0.35556E-01  2552   0.904E-01  -0.405E-02
DMP:   7    -0.677681796610E+03   -0.25492E-01   -0.19851E-01  2552   0.349E-01   0.386E-01
DMP:   8    -0.677695167732E+03   -0.13371E-01   -0.62933E-02  2552   0.915E-02   0.172E-01
DMP:   9    -0.677698814687E+03   -0.36470E-02   -0.11559E-02  2552   0.194E-02   0.250E-02
DMP:  10    -0.677699283229E+03   -0.46854E-03   -0.31497E-03  2552   0.996E-03  -0.547E-03
DMP:  11    -0.677699422626E+03   -0.13940E-03   -0.20213E-03  2552   0.538E-03  -0.853E-04
DMP:  12    -0.677699555735E+03   -0.13311E-03   -0.12463E-03  2552   0.250E-03   0.162E-03
DMP:  13    -0.677699641952E+03   -0.86217E-04   -0.54585E-04  2552   0.913E-04   0.118E-03
DMP:  14    -0.677699677805E+03   -0.35853E-04   -0.18295E-04  2552   0.296E-04   0.421E-04
DMP:  15    -0.677699688628E+03   -0.10823E-04   -0.47640E-05  2552   0.861E-05   0.863E-05
DMP:  16    -0.677699691225E+03   -0.25975E-05   -0.16525E-05  2552   0.369E-05   0.116E-05
   6 F= -.67769969E+03 E0= -.67767385E+03  d E =-.930387E-01  mag=     0.0345
       N       E                     dE             d eps       ncg     rms           ort
SDA:   1    -0.676691846285E+03    0.10078E+01   -0.86612E+00  2552   0.217E+01   0.000E+00
DMP:   2    -0.677344730847E+03   -0.65288E+00   -0.44929E+00  2552   0.703E+00   0.110E+01
DMP:   3    -0.677638154818E+03   -0.29342E+00   -0.11518E+00  2552   0.157E+00   0.344E+00
DMP:   4    -0.677697807439E+03   -0.59653E-01   -0.12362E-01  2552   0.270E-01   0.103E-01
DMP:   5    -0.677698117631E+03   -0.31019E-03   -0.37020E-02  2552   0.205E-01  -0.294E-01
DMP:   6    -0.677699870419E+03   -0.17528E-02   -0.59687E-02  2552   0.151E-01  -0.490E-03
DMP:   7    -0.677704181553E+03   -0.43111E-02   -0.34678E-02  2552   0.613E-02   0.664E-02
DMP:   8    -0.677706556312E+03   -0.23748E-02   -0.11649E-02  2552   0.169E-02   0.321E-02
DMP:   9    -0.677707257719E+03   -0.70141E-03   -0.24193E-03  2552   0.378E-03   0.593E-03
DMP:  10    -0.677707370579E+03   -0.11286E-03   -0.60505E-04  2552   0.167E-03  -0.403E-04
DMP:  11    -0.677707398413E+03   -0.27834E-04   -0.34235E-04  2552   0.897E-04  -0.108E-04
DMP:  12    -0.677707420163E+03   -0.21750E-04   -0.20485E-04  2552   0.422E-04   0.236E-04
DMP:  13    -0.677707434312E+03   -0.14150E-04   -0.95066E-05  2552   0.164E-04   0.192E-04
DMP:  14    -0.677707440678E+03   -0.63659E-05   -0.34429E-05  2552   0.562E-05   0.782E-05
   7 F= -.67770744E+03 E0= -.67768163E+03  d E =-.100788E+00  mag=     0.0268
       N       E                     dE             d eps       ncg     rms           ort
SDA:   1    -0.676271746662E+03    0.14357E+01   -0.12294E+01  2552   0.307E+01   0.000E+00
DMP:   2    -0.677207213289E+03   -0.93547E+00   -0.65577E+00  2552   0.103E+01   0.160E+01
DMP:   3    -0.677640211357E+03   -0.43300E+00   -0.16915E+00  2552   0.222E+00   0.526E+00
DMP:   4    -0.677728020348E+03   -0.87809E-01   -0.16283E-01  2552   0.345E-01   0.162E-01
DMP:   5    -0.677727290533E+03    0.72982E-03   -0.47047E-02  2552   0.287E-01  -0.444E-01
DMP:   6    -0.677729397638E+03   -0.21071E-02   -0.86671E-02  2552   0.221E-01  -0.123E-02
DMP:   7    -0.677735724455E+03   -0.63268E-02   -0.50043E-02  2552   0.870E-02   0.997E-02
DMP:   8    -0.677739145108E+03   -0.34207E-02   -0.15816E-02  2552   0.220E-02   0.460E-02
DMP:   9    -0.677740085024E+03   -0.93992E-03   -0.31726E-03  2552   0.509E-03   0.745E-03
DMP:  10    -0.677740226337E+03   -0.14131E-03   -0.77793E-04  2552   0.228E-03  -0.866E-04
DMP:  11    -0.677740260036E+03   -0.33699E-04   -0.46099E-04  2552   0.125E-03  -0.252E-04
DMP:  12    -0.677740290096E+03   -0.30060E-04   -0.28250E-04  2552   0.572E-04   0.350E-04
DMP:  13    -0.677740309795E+03   -0.19699E-04   -0.12958E-04  2552   0.219E-04   0.275E-04
DMP:  14    -0.677740318460E+03   -0.86645E-05   -0.46145E-05  2552   0.738E-05   0.109E-04
   8 F= -.67774032E+03 E0= -.67771438E+03  d E =-.328778E-01  mag=     0.0208
       N       E                     dE             d eps       ncg     rms           ort
SDA:   1    -0.675798987543E+03    0.19413E+01   -0.16358E+01  2552   0.409E+01   0.000E+00
DMP:   2    -0.677043370379E+03   -0.12444E+01   -0.87327E+00  2552   0.137E+01   0.213E+01
DMP:   3    -0.677619849909E+03   -0.57648E+00   -0.22543E+00  2552   0.297E+00   0.699E+00
DMP:   4    -0.677736564964E+03   -0.11672E+00   -0.21388E-01  2552   0.458E-01   0.200E-01
DMP:   5    -0.677735330480E+03    0.12345E-02   -0.62046E-02  2552   0.383E-01  -0.596E-01
DMP:   6    -0.677738100392E+03   -0.27699E-02   -0.11650E-01  2552   0.298E-01  -0.167E-02
DMP:   7    -0.677746612860E+03   -0.85125E-02   -0.67364E-02  2552   0.117E-01   0.134E-01
DMP:   8    -0.677751214556E+03   -0.46017E-02   -0.21129E-02  2552   0.292E-02   0.617E-02
DMP:   9    -0.677752465992E+03   -0.12514E-02   -0.41697E-03  2552   0.670E-03   0.974E-03
DMP:  10    -0.677752648406E+03   -0.18241E-03   -0.10173E-03  2552   0.304E-03  -0.130E-03
DMP:  11    -0.677752691596E+03   -0.43190E-04   -0.61243E-04  2552   0.167E-03  -0.371E-04
DMP:  12    -0.677752731637E+03   -0.40041E-04   -0.37952E-04  2552   0.769E-04   0.471E-04
DMP:  13    -0.677752758105E+03   -0.26468E-04   -0.17345E-04  2552   0.292E-04   0.370E-04
DMP:  14    -0.677752769677E+03   -0.11572E-04   -0.61059E-05  2552   0.975E-05   0.144E-04
DMP:  15    -0.677752773389E+03   -0.37120E-05   -0.16371E-05  2552   0.277E-05   0.345E-05
   9 F= -.67775277E+03 E0= -.67772673E+03  d E =-.453327E-01  mag=     0.0153
       N       E                     dE             d eps       ncg     rms           ort
SDA:   1    -0.676180295578E+03    0.15725E+01   -0.13365E+01  2552   0.334E+01   0.000E+00
DMP:   2    -0.677191152236E+03   -0.10109E+01   -0.70716E+00  2552   0.111E+01   0.171E+01
DMP:   3    -0.677659705392E+03   -0.46855E+00   -0.18898E+00  2552   0.253E+00   0.575E+00
DMP:   4    -0.677757965707E+03   -0.98260E-01   -0.16399E-01  2552   0.338E-01   0.189E-01
DMP:   5    -0.677755839920E+03    0.21258E-02   -0.49872E-02  2552   0.322E-01  -0.516E-01
DMP:   6    -0.677758136082E+03   -0.22962E-02   -0.95449E-02  2552   0.242E-01  -0.989E-03
DMP:   7    -0.677765040430E+03   -0.69043E-02   -0.54526E-02  2552   0.956E-02   0.107E-01
DMP:   8    -0.677768789994E+03   -0.37496E-02   -0.17711E-02  2552   0.247E-02   0.512E-02
DMP:   9    -0.677769841798E+03   -0.10518E-02   -0.34013E-03  2552   0.533E-03   0.830E-03
DMP:  10    -0.677769990267E+03   -0.14847E-03   -0.87297E-04  2552   0.260E-03  -0.108E-03
DMP:  11    -0.677770029107E+03   -0.38839E-04   -0.50075E-04  2552   0.134E-03  -0.235E-04
DMP:  12    -0.677770061353E+03   -0.32246E-04   -0.30522E-04  2552   0.626E-04   0.359E-04
DMP:  13    -0.677770082700E+03   -0.21347E-04   -0.14293E-04  2552   0.242E-04   0.301E-04
DMP:  14    -0.677770092194E+03   -0.94937E-05   -0.50056E-05  2552   0.799E-05   0.118E-04
  10 F= -.67777009E+03 E0= -.67774392E+03  d E =-.173188E-01  mag=     0.0115
       N       E                     dE             d eps       ncg     rms           ort
SDA:   1    -0.677619440467E+03    0.15064E+00   -0.12756E+00  2552   0.319E+00   0.000E+00
DMP:   2    -0.677715915259E+03   -0.96475E-01   -0.66453E-01  2552   0.104E+00   0.163E+00
DMP:   3    -0.677760187333E+03   -0.44272E-01   -0.18020E-01  2552   0.239E-01   0.552E-01
DMP:   4    -0.677769899418E+03   -0.97121E-02   -0.19615E-02  2552   0.356E-02   0.352E-02
DMP:   5    -0.677770034553E+03   -0.13513E-03   -0.49976E-03  2552   0.286E-02  -0.423E-02
DMP:   6    -0.677770251509E+03   -0.21696E-03   -0.79859E-03  2552   0.206E-02  -0.165E-03
DMP:   7    -0.677770823411E+03   -0.57190E-03   -0.47270E-03  2552   0.852E-03   0.864E-03
DMP:   8    -0.677771152048E+03   -0.32864E-03   -0.17086E-03  2552   0.251E-03   0.462E-03
DMP:   9    -0.677771257469E+03   -0.10542E-03   -0.38174E-04  2552   0.573E-04   0.998E-04
DMP:  10    -0.677771276390E+03   -0.18921E-04   -0.91951E-05  2552   0.233E-04  -0.942E-06
DMP:  11    -0.677771280653E+03   -0.42628E-05   -0.44850E-05  2552   0.119E-04  -0.174E-05
  11 F= -.67777128E+03 E0= -.67774507E+03  d E =-.185073E-01  mag=     0.0091
       N       E                     dE             d eps       ncg     rms           ort
SDA:   1    -0.677137220740E+03    0.63406E+00   -0.55175E+00  2552   0.138E+01   0.000E+00
DMP:   2    -0.677551533103E+03   -0.41431E+00   -0.28042E+00  2552   0.437E+00   0.692E+00
DMP:   3    -0.677734368391E+03   -0.18284E+00   -0.72217E-01  2552   0.991E-01   0.213E+00
DMP:   4    -0.677771979454E+03   -0.37611E-01   -0.81681E-02  2552   0.175E-01   0.754E-02
DMP:   5    -0.677772441997E+03   -0.46254E-03   -0.25245E-02  2552   0.132E-01  -0.181E-01
DMP:   6    -0.677773668518E+03   -0.12265E-02   -0.37046E-02  2552   0.933E-02  -0.178E-03
DMP:   7    -0.677776311943E+03   -0.26434E-02   -0.20758E-02  2552   0.368E-02   0.396E-02
DMP:   8    -0.677777721009E+03   -0.14091E-02   -0.69324E-03  2552   0.102E-02   0.186E-02
DMP:   9    -0.677778133908E+03   -0.41290E-03   -0.14664E-03  2552   0.240E-03   0.331E-03
DMP:  10    -0.677778200576E+03   -0.66669E-04   -0.35903E-04  2552   0.103E-03  -0.335E-04
DMP:  11    -0.677778216525E+03   -0.15949E-04   -0.20867E-04  2552   0.560E-04  -0.990E-05
DMP:  12    -0.677778229933E+03   -0.13408E-04   -0.12758E-04  2552   0.262E-04   0.148E-04
DMP:  13    -0.677778238738E+03   -0.88049E-05   -0.58405E-05  2552   0.100E-04   0.120E-04
  12 F= -.67777824E+03 E0= -.67775207E+03  d E =-.695808E-02  mag=     0.0070
       N       E                     dE             d eps       ncg     rms           ort
SDA:   1    -0.677775839549E+03    0.23904E-02   -0.21297E-02  2552   0.532E-02   0.000E+00
DMP:   2    -0.677777440312E+03   -0.16008E-02   -0.10605E-02  2552   0.163E-02   0.268E-02
DMP:   3    -0.677778142898E+03   -0.70259E-03   -0.28804E-03  2552   0.391E-03   0.862E-03
DMP:   4    -0.677778304303E+03   -0.16140E-03   -0.45634E-04  2552   0.808E-04   0.871E-04
DMP:   5    -0.677778318344E+03   -0.14041E-04   -0.11691E-04  2552   0.459E-04  -0.437E-04
DMP:   6    -0.677778323855E+03   -0.55103E-05   -0.11806E-04  2552   0.301E-04  -0.157E-05
DMP:   7    -0.677778332033E+03   -0.81779E-05   -0.68084E-05  2552   0.127E-04   0.114E-04
  13 F= -.67777833E+03 E0= -.67775217E+03  d E =-.705138E-02  mag=     0.0060
       N       E                     dE             d eps       ncg     rms           ort
SDA:   1    -0.677768812795E+03    0.95111E-02   -0.82665E-02  2552   0.207E-01   0.000E+00
DMP:   2    -0.677775003989E+03   -0.61912E-02   -0.40726E-02  2552   0.625E-02   0.103E-01
DMP:   3    -0.677777680865E+03   -0.26769E-02   -0.10863E-02  2552   0.149E-02   0.320E-02
DMP:   4    -0.677778280108E+03   -0.59924E-03   -0.16914E-03  2552   0.316E-03   0.281E-03
DMP:   5    -0.677778329050E+03   -0.48942E-04   -0.46885E-04  2552   0.185E-03  -0.178E-03
DMP:   6    -0.677778351980E+03   -0.22929E-04   -0.47515E-04  2552   0.120E-03  -0.238E-05
DMP:   7    -0.677778384840E+03   -0.32860E-04   -0.26649E-04  2552   0.492E-04   0.457E-04
DMP:   8    -0.677778402932E+03   -0.18092E-04   -0.10004E-04  2552   0.159E-04   0.239E-04
DMP:   9    -0.677778409192E+03   -0.62599E-05   -0.27363E-05  2552   0.445E-05   0.625E-05
  14 F= -.67777841E+03 E0= -.67775225E+03  d E =-.712854E-02  mag=     0.0050
       N       E                     dE             d eps       ncg     rms           ort
SDA:   1    -0.677340589863E+03    0.43781E+00   -0.37049E+00  2552   0.926E+00   0.000E+00
DMP:   2    -0.677622899220E+03   -0.28231E+00   -0.19602E+00  2552   0.305E+00   0.485E+00
DMP:   3    -0.677751588468E+03   -0.12869E+00   -0.49015E-01  2552   0.639E-01   0.153E+00
DMP:   4    -0.677777006549E+03   -0.25418E-01   -0.54258E-02  2552   0.118E-01   0.456E-02
DMP:   5    -0.677777345974E+03   -0.33942E-03   -0.16922E-02  2552   0.876E-02  -0.119E-01
DMP:   6    -0.677778164393E+03   -0.81842E-03   -0.25136E-02  2552   0.634E-02  -0.138E-03
DMP:   7    -0.677779984942E+03   -0.18205E-02   -0.14472E-02  2552   0.254E-02   0.282E-02
DMP:   8    -0.677780970005E+03   -0.98506E-03   -0.47433E-03  2552   0.686E-03   0.131E-02
DMP:   9    -0.677781253383E+03   -0.28338E-03   -0.10014E-03  2552   0.162E-03   0.231E-03
DMP:  10    -0.677781299260E+03   -0.45877E-04   -0.24303E-04  2552   0.688E-04  -0.211E-04
DMP:  11    -0.677781310259E+03   -0.10999E-04   -0.14615E-04  2552   0.387E-04  -0.558E-05
DMP:  12    -0.677781319755E+03   -0.94964E-05   -0.88339E-05  2552   0.179E-04   0.110E-04
  15 F= -.67778132E+03 E0= -.67775510E+03  d E =-.291056E-02  mag=     0.0039
       N       E                     dE             d eps       ncg     rms           ort
SDA:   1    -0.677772196327E+03    0.91139E-02   -0.77453E-02  2552   0.194E-01   0.000E+00
DMP:   2    -0.677778071433E+03   -0.58751E-02   -0.39465E-02  2552   0.604E-02   0.100E-01
DMP:   3    -0.677780671122E+03   -0.25997E-02   -0.10039E-02  2552   0.131E-02   0.313E-02
DMP:   4    -0.677781216068E+03   -0.54495E-03   -0.14813E-03  2552   0.288E-03   0.215E-03
DMP:   5    -0.677781257082E+03   -0.41013E-04   -0.45394E-04  2552   0.176E-03  -0.165E-03
DMP:   6    -0.677781280318E+03   -0.23236E-04   -0.45936E-04  2552   0.114E-03   0.271E-05
DMP:   7    -0.677781312561E+03   -0.32243E-04   -0.25690E-04  2552   0.465E-04   0.463E-04
DMP:   8    -0.677781330037E+03   -0.17476E-04   -0.93706E-05  2552   0.146E-04   0.231E-04
DMP:   9    -0.677781335917E+03   -0.58798E-05   -0.25681E-05  2552   0.416E-05   0.592E-05
  16 F= -.67778134E+03 E0= -.67775512E+03  d E =-.292673E-02  mag=     0.0032
       N       E                     dE             d eps       ncg     rms           ort
SDA:   1    -0.677780155606E+03    0.11744E-02   -0.10009E-02  2552   0.250E-02   0.000E+00
DMP:   2    -0.677780915885E+03   -0.76028E-03   -0.51323E-03  2552   0.787E-03   0.130E-02
DMP:   3    -0.677781256953E+03   -0.34107E-03   -0.13614E-03  2552   0.179E-03   0.422E-03
DMP:   4    -0.677781332823E+03   -0.75870E-04   -0.21441E-04  2552   0.387E-04   0.389E-04
DMP:   5    -0.677781339583E+03   -0.67600E-05   -0.56741E-05  2552   0.217E-04  -0.198E-04
  17 F= -.67778134E+03 E0= -.67775512E+03  d E =-.293039E-02  mag=     0.0028
       N       E                     dE             d eps       ncg     rms           ort
SDA:   1    -0.677779939787E+03    0.13930E-02   -0.11906E-02  2552   0.298E-02   0.000E+00
DMP:   2    -0.677780838066E+03   -0.89828E-03   -0.59516E-03  2552   0.909E-03   0.151E-02
DMP:   3    -0.677781232007E+03   -0.39394E-03   -0.16093E-03  2552   0.218E-03   0.482E-03
DMP:   4    -0.677781323181E+03   -0.91174E-04   -0.28082E-04  2552   0.498E-04   0.534E-04
DMP:   5    -0.677781333105E+03   -0.99237E-05   -0.68700E-05  2552   0.250E-04  -0.206E-04
  18 F= -.67778133E+03 E0= -.67775511E+03  d E =-.292391E-02  mag=     0.0025
       N       E                     dE             d eps       ncg     rms           ort
SDA:   1    -0.677781196098E+03    0.12708E-03   -0.12412E-03  2552   0.310E-03   0.000E+00
DMP:   2    -0.677781287341E+03   -0.91243E-04   -0.56446E-04  2552   0.854E-04   0.146E-03
DMP:   3    -0.677781323980E+03   -0.36639E-04   -0.16083E-04  2552   0.242E-04   0.420E-04
DMP:   4    -0.677781333444E+03   -0.94647E-05   -0.35687E-05  2552   0.623E-05   0.704E-05
  19 F= -.67778133E+03 E0= -.67775511E+03  d E =-.292425E-02  mag=     0.0022
       N       E                     dE             d eps       ncg     rms           ort
SDA:   1    -0.677556138005E+03    0.22519E+00   -0.18575E+00  2552   0.464E+00   0.000E+00
DMP:   2    -0.677699877988E+03   -0.14374E+00   -0.10260E+00  2552   0.159E+00   0.254E+00
DMP:   3    -0.677767998289E+03   -0.68120E-01   -0.25064E-01  2552   0.305E-01   0.841E-01
DMP:   4    -0.677780973329E+03   -0.12975E-01   -0.25185E-02  2552   0.545E-02   0.222E-02
DMP:   5    -0.677781046225E+03   -0.72895E-04   -0.81519E-03  2552   0.430E-02  -0.593E-02
DMP:   6    -0.677781444303E+03   -0.39808E-03   -0.12744E-02  2552   0.320E-02  -0.478E-04
DMP:   7    -0.677782385085E+03   -0.94078E-03   -0.75736E-03  2552   0.131E-02   0.152E-02
DMP:   8    -0.677782904115E+03   -0.51903E-03   -0.24185E-03  2552   0.336E-03   0.702E-03
DMP:   9    -0.677783048726E+03   -0.14461E-03   -0.49120E-04  2552   0.776E-04   0.118E-03
DMP:  10    -0.677783071188E+03   -0.22462E-04   -0.11763E-04  2552   0.334E-04  -0.106E-04
DMP:  11    -0.677783076526E+03   -0.53380E-05   -0.73868E-05  2552   0.195E-04  -0.266E-05
  20 F= -.67778308E+03 E0= -.67775682E+03  d E =-.174308E-02  mag=     0.0018
