       N       E                     dE             d eps       ncg     rms          rms(c)
DAV:   1     0.646152337560E+02    0.64615E+02   -0.48007E+03   480   0.691E+02
DAV:   2    -0.332393201156E+01   -0.67939E+02   -0.64600E+02   708   0.152E+02
DAV:   3    -0.716536627312E+01   -0.38414E+01   -0.38265E+01   608   0.393E+01
DAV:   4    -0.719706073407E+01   -0.31694E-01   -0.31687E-01   564   0.449E+00
DAV:   5    -0.719744784617E+01   -0.38711E-03   -0.38710E-03   616   0.464E-01    0.256E+00
DAV:   6    -0.689450364014E+01    0.30294E+00   -0.51606E-01   556   0.424E+00    0.203E+00
DAV:   7    -0.685527320240E+01    0.39230E-01   -0.16653E-01   632   0.236E+00    0.104E+00
DAV:   8    -0.685395967428E+01    0.13135E-02   -0.11274E-02   616   0.793E-01    0.133E-01
DAV:   9    -0.685410216479E+01   -0.14249E-03   -0.21413E-03   628   0.318E-01    0.115E-01
DAV:  10    -0.685419025725E+01   -0.88092E-04   -0.15304E-04   584   0.101E-01    0.227E-02
DAV:  11    -0.685420206029E+01   -0.11803E-04   -0.29959E-05   604   0.380E-02    0.539E-03
DAV:  12    -0.685420190540E+01    0.15490E-06   -0.49564E-06   592   0.144E-02
   1 F= -.68542019E+01 E0= -.68542019E+01  d E =0.000000E+00
 Linear response reoptimize wavefunctions
DAV:   1    -0.685420178543E+01    0.11997E-06   -0.21450E-07   600   0.340E-03
DAV:   2    -0.685420178586E+01   -0.42883E-09   -0.42887E-09   596   0.456E-04
DAV:   3    -0.685420178587E+01   -0.57128E-11   -0.58136E-11   404   0.524E-05
 Linear response G [H, r] |phi>, progress :
  Direction:   1
       N       E                     dE             d eps       ncg     rms
RMM:   1    -0.607878130954E+02   -0.60788E+02    0.15893E+02   975   0.809E+01
RMM:   2    -0.585154159505E+02    0.22724E+01   -0.39186E+00   853   0.150E+01
RMM:   3    -0.586098179694E+02   -0.94402E-01   -0.68911E-02   877   0.187E+00
RMM:   4    -0.586115065082E+02   -0.16885E-02   -0.32748E-03   916   0.347E-01
RMM:   5    -0.586116113645E+02   -0.10486E-03   -0.11717E-04   921   0.604E-02
RMM:   6    -0.586116137364E+02   -0.23719E-05   -0.16572E-06   905   0.132E-02
RMM:   7    -0.586116137886E+02   -0.52236E-07    0.28573E-06   775   0.454E-03
 Linear response G [H, r] |phi>, progress :
  Direction:   2
       N       E                     dE             d eps       ncg     rms
RMM:   1    -0.661434719384E+02   -0.66143E+02    0.12345E+02   993   0.823E+01
RMM:   2    -0.638043716212E+02    0.23391E+01   -0.39349E+00   881   0.152E+01
RMM:   3    -0.638936425837E+02   -0.89271E-01   -0.72747E-02   887   0.189E+00
RMM:   4    -0.638951429059E+02   -0.15003E-02   -0.29547E-03   931   0.322E-01
RMM:   5    -0.638952191980E+02   -0.76292E-04   -0.14041E-04   934   0.571E-02
RMM:   6    -0.638952201677E+02   -0.96967E-06   -0.26890E-05   920   0.122E-02
RMM:   7    -0.638952196726E+02    0.49508E-06   -0.17421E-05   790   0.412E-03
RMM:   8    -0.638952196798E+02   -0.71499E-08   -0.31391E-05   641   0.276E-03
RMM:   9    -0.638952197590E+02   -0.79201E-07   -0.40411E-05   592   0.261E-03
RMM:  10    -0.638952196929E+02    0.66077E-07   -0.47710E-05   594   0.261E-03
RMM:  11    -0.638952195186E+02    0.17433E-06   -0.15638E-04   585   0.261E-03
 Linear response G [H, r] |phi>, progress :
  Direction:   3
       N       E                     dE             d eps       ncg     rms
RMM:   1    -0.718792096614E+02   -0.71879E+02    0.83585E+01   953   0.820E+01
RMM:   2    -0.713265252562E+02    0.55268E+00   -0.38095E+00   838   0.148E+01
RMM:   3    -0.714109118888E+02   -0.84387E-01   -0.65701E-02   854   0.178E+00
RMM:   4    -0.714120971499E+02   -0.11853E-02   -0.23181E-03   908   0.293E-01
RMM:   5    -0.714121511023E+02   -0.53952E-04   -0.77097E-05   912   0.498E-02
RMM:   6    -0.714121513111E+02   -0.20884E-06    0.23616E-06   889   0.102E-02
 Linear response to external field (no local field effect), progress :
  Direction:   1
       N       E                     dE             d eps       ncg     rms          rms(c)
RMM:   1    -0.329003486163E+00   -0.32900E+00   -0.83427E-01   976   0.321E+00
RMM:   2    -0.329167582960E+00   -0.16410E-03   -0.58451E-03   869   0.445E-01
RMM:   3    -0.329213356898E+00   -0.45774E-04   -0.78026E-05   883   0.422E-02
RMM:   4    -0.329214532752E+00   -0.11759E-05   -0.22027E-06   811   0.628E-03
RMM:   5    -0.329214562865E+00   -0.30113E-07   -0.95492E-08   619   0.118E-03
 Linear response to external field (no local field effect), progress :
  Direction:   2
       N       E                     dE             d eps       ncg     rms          rms(c)
RMM:   1    -0.401556722107E+00   -0.40156E+00   -0.10775E+00   968   0.345E+00
RMM:   2    -0.401486114104E+00    0.70608E-04   -0.79532E-03   876   0.519E-01
RMM:   3    -0.401542247713E+00   -0.56134E-04   -0.10128E-04   894   0.495E-02
RMM:   4    -0.401543658225E+00   -0.14105E-05   -0.28814E-06   840   0.750E-03
RMM:   5    -0.401543697406E+00   -0.39181E-07   -0.12264E-07   676   0.135E-03
 Linear response to external field (no local field effect), progress :
  Direction:   3
       N       E                     dE             d eps       ncg     rms          rms(c)
RMM:   1    -0.535486040820E+00   -0.53549E+00   -0.16055E+00   945   0.379E+00
RMM:   2    -0.536372809431E+00   -0.88677E-03   -0.95465E-03   849   0.513E-01
RMM:   3    -0.536450902784E+00   -0.78093E-04   -0.12265E-04   871   0.520E-02
RMM:   4    -0.536452600848E+00   -0.16981E-05   -0.31867E-06   800   0.791E-03
RMM:   5    -0.536452643487E+00   -0.42639E-07   -0.12445E-07   642   0.138E-03
 Linear response to external field, progress :
  Direction:   1
       N       E                     dE             d eps       ncg     rms          rms(c)
RMM:   1    -0.421958492879E+00   -0.42196E+00   -0.11719E+00  1922   0.348E+00
RMM:   2    -0.422341545768E+00   -0.38305E-03   -0.77792E-03  1716   0.492E-01    0.138E+00
RMM:   3    -0.379521383923E+00    0.42820E-01   -0.75327E-02  1688   0.147E+00    0.672E-01
RMM:   4    -0.389147921031E+00   -0.96265E-02   -0.42002E-02  1713   0.111E+00    0.213E-01
RMM:   5    -0.401828561389E+00   -0.12681E-01   -0.12340E-03  1740   0.291E-01    0.230E-02
RMM:   6    -0.401963427040E+00   -0.13487E-03   -0.47296E-05  1791   0.376E-02    0.115E-02
RMM:   7    -0.402564026965E+00   -0.60060E-03   -0.12007E-05  1783   0.241E-02    0.350E-03
RMM:   8    -0.402706633052E+00   -0.14261E-03   -0.25221E-06  1759   0.970E-03    0.226E-03
RMM:   9    -0.402718058533E+00   -0.11425E-04   -0.74237E-07  1700   0.414E-03    0.233E-04
RMM:  10    -0.402720792405E+00   -0.27339E-05   -0.37468E-08  1380   0.119E-03    0.154E-04
RMM:  11    -0.402719608977E+00    0.11834E-05   -0.12778E-08   925   0.546E-04    0.578E-05
RMM:  12    -0.402718937289E+00    0.67169E-06    0.80808E-09   864   0.585E-04    0.370E-05
 Linear response to external field, progress :
  Direction:   2
       N       E                     dE             d eps       ncg     rms          rms(c)
RMM:   1    -0.422040110565E+00   -0.42204E+00   -0.11727E+00  1920   0.348E+00
RMM:   2    -0.422342348693E+00   -0.30224E-03   -0.77768E-03  1719   0.492E-01    0.138E+00
RMM:   3    -0.379519438886E+00    0.42823E-01   -0.75440E-02  1691   0.147E+00    0.672E-01
RMM:   4    -0.389154039827E+00   -0.96346E-02   -0.42178E-02  1715   0.112E+00    0.213E-01
RMM:   5    -0.401836514312E+00   -0.12682E-01   -0.12381E-03  1740   0.292E-01    0.231E-02
RMM:   6    -0.401962056535E+00   -0.12554E-03   -0.48209E-05  1792   0.378E-02    0.115E-02
RMM:   7    -0.402563789863E+00   -0.60173E-03   -0.12021E-05  1782   0.241E-02    0.350E-03
RMM:   8    -0.402707451339E+00   -0.14366E-03   -0.24833E-06  1762   0.968E-03    0.226E-03
RMM:   9    -0.402718565117E+00   -0.11114E-04   -0.72589E-07  1700   0.415E-03    0.235E-04
RMM:  10    -0.402721236362E+00   -0.26712E-05   -0.30729E-08  1366   0.119E-03    0.150E-04
RMM:  11    -0.402720079952E+00    0.11564E-05   -0.89423E-09   933   0.556E-04    0.538E-05
RMM:  12    -0.402719466619E+00    0.61333E-06   -0.88280E-09   872   0.587E-04    0.333E-05
 Linear response to external field, progress :
  Direction:   3
       N       E                     dE             d eps       ncg     rms          rms(c)
RMM:   1    -0.422047553339E+00   -0.42205E+00   -0.11727E+00  1919   0.348E+00
RMM:   2    -0.422341444631E+00   -0.29389E-03   -0.77786E-03  1712   0.491E-01    0.138E+00
RMM:   3    -0.379524365498E+00    0.42817E-01   -0.75398E-02  1688   0.147E+00    0.672E-01
RMM:   4    -0.389152684552E+00   -0.96283E-02   -0.42109E-02  1712   0.111E+00    0.213E-01
RMM:   5    -0.401837610219E+00   -0.12685E-01   -0.12413E-03  1735   0.292E-01    0.230E-02
RMM:   6    -0.401959630703E+00   -0.12202E-03   -0.48480E-05  1790   0.377E-02    0.115E-02
RMM:   7    -0.402563038218E+00   -0.60341E-03   -0.12163E-05  1772   0.242E-02    0.350E-03
RMM:   8    -0.402706553057E+00   -0.14351E-03   -0.25517E-06  1755   0.971E-03    0.228E-03
RMM:   9    -0.402718040817E+00   -0.11488E-04   -0.77221E-07  1694   0.417E-03    0.232E-04
RMM:  10    -0.402720787186E+00   -0.27464E-05   -0.67343E-08  1373   0.119E-03    0.154E-04
RMM:  11    -0.402719607348E+00    0.11798E-05   -0.17517E-08   927   0.542E-04    0.566E-05
RMM:  12    -0.402718965721E+00    0.64163E-06   -0.52631E-08   862   0.580E-04    0.366E-05
 Linear response DOF=            2
 Linear response progress:
  Degree of freedom:   1/  2
       N       E                     dE             d eps       ncg     rms          rms(c)
RMM:   1    -0.166856520125E+00   -0.16686E+00    0.10069E-01  1846   0.194E+00
RMM:   2    -0.168899755371E+00   -0.20432E-02   -0.26481E-03  1526   0.355E-01    0.219E-02
RMM:   3    -0.169044475317E+00   -0.14472E-03   -0.59255E-05  1724   0.534E-02    0.105E-02
RMM:   4    -0.169072307211E+00   -0.27832E-04   -0.91210E-06  1764   0.200E-02    0.346E-03
RMM:   5    -0.169089425876E+00   -0.17119E-04   -0.30141E-07  1821   0.451E-03    0.491E-04
RMM:   6    -0.169092350396E+00   -0.29245E-05   -0.18518E-08  1842   0.947E-04    0.229E-04
RMM:   7    -0.169092401290E+00   -0.50894E-07   -0.84922E-09  1770   0.314E-04    0.653E-05
 Linear response progress:
  Degree of freedom:   2/  2
       N       E                     dE             d eps       ncg     rms          rms(c)
RMM:   1    -0.199926532757E+00   -0.19993E+00   -0.59230E-02  1997   0.257E+00
RMM:   2    -0.192813607822E+00    0.71129E-02   -0.60681E-03  1549   0.412E-01    0.514E-02
RMM:   3    -0.193222715214E+00   -0.40911E-03   -0.16277E-04  1634   0.688E-02    0.280E-02
RMM:   4    -0.193655521307E+00   -0.43281E-03   -0.94440E-05  1587   0.506E-02    0.122E-02
RMM:   5    -0.193599685682E+00    0.55836E-04   -0.68223E-06  1702   0.164E-02    0.196E-03
RMM:   6    -0.193637377893E+00   -0.37692E-04   -0.96273E-07  1731   0.445E-03    0.106E-03
RMM:   7    -0.193632410619E+00    0.49673E-05   -0.53217E-08  1757   0.134E-03    0.383E-04
RMM:   8    -0.193633947156E+00   -0.15365E-05   -0.24732E-08  1713   0.756E-04    0.109E-04
RMM:   9    -0.193634272143E+00   -0.32499E-06   -0.14159E-08  1751   0.228E-04    0.141E-05
 Linear response finished
