 vasp.6.5.1 10Mar25 (build May 13 2025 11:33:44) complex                         
 executed on              LinuxNV date 2026.05.13  01:43:50
 running    2 mpi-ranks, on    1 nodes
 distrk:  each k-point on    1 cores,    2 groups
 distr:  one band on NCORE=   1 cores,    1 groups
 Offloading initialized ...    2 GPUs detected


--------------------------------------------------------------------------------------------------------


 INCAR:
   ALGO = Normal
   PREC = Normal
   LREAL = False
   EDIFF = 1e-06
   ENCUT = 262.472
   LASPH = True
   NELM = 100
   ISIF = 0
   IBRION = 8
   NSW = 1
   ISMEAR = -5
   SIGMA = 0.1
   LWAVE = False
   LCHARG = False
   LORBIT = 10
   LEPSILON = True
   GGA = Ps
   KPAR = 4

 POTCAR:    PAW_PBE Cs_sv 08Apr2002               
 POTCAR:    PAW_PBE Cl 06Sep2000                  
 POTCAR:    PAW_PBE Cs_sv 08Apr2002               
   SHA256 =  c1463496f0f6037ed62c6012a8013a89ee9ad6ffb38599dcd6c079e7ed31779b Cs_sv/POTCAR          
   COPYR  = (c) Copyright 08Apr2002 Georg Kresse                                                    
   COPYR  = This file is part of the software VASP. Any use, copying, and all other rights are regul
   COPYR  = If you do not have a valid VASP license, you may not use, copy or distribute this file. 
   VRHFIN =Cs: 5s5p6s                                                                               
   LEXCH  = PE                                                                                      
   EATOM  =   555.6835 eV,   40.8416 Ry                                                             
                                                                                                    
   TITEL  = PAW_PBE Cs_sv 08Apr2002                                                                 
   LULTRA =        F    use ultrasoft PP ?                                                          
   IUNSCR =        1    unscreen: 0-lin 1-nonlin 2-no                                               
   RPACOR =    2.200    partial core radius                                                         
   POMASS =  132.900; ZVAL   =    9.000    mass and valenz                                          
   RCORE  =    2.500    outmost cutoff radius                                                       
   RWIGS  =    2.500; RWIGS  =    1.323    wigner-seitz radius (au A)                               
   ENMAX  =  220.318; ENMIN  =  165.238 eV                                                          
   RCLOC  =    2.207    cutoff for local pot                                                        
   LCOR   =        T    correct aug charges                                                         
   LPAW   =        T    paw PP                                                                      
   EAUG   =  407.933                                                                                
   DEXC   =    0.000                                                                                
   RMAX   =    2.554    core radius for proj-oper                                                   
   RAUG   =    1.300    factor for augmentation sphere                                              
   RDEP   =    2.590    radius for radial grids                                                     
   RDEPT  =    2.117    core radius for aug-charge                                                  
                                                                                                    
   Atomic configuration                                                                             
   13 entries                                                                                       
     n  l   j            E        occ.                                                              
     1  0  0.50    -35790.1377   2.0000                                                             
     2  0  0.50     -5613.6201   2.0000                                                             
     2  1  1.50     -5035.0101   6.0000                                                             
     3  0  0.50     -1167.0767   2.0000                                                             
     3  1  1.50      -980.9754   6.0000                                                             
     3  2  2.50      -708.0703  10.0000                                                             
     4  0  0.50      -220.2386   2.0000                                                             
     4  1  1.50      -160.7596   6.0000                                                             
     4  2  2.50       -74.2354  10.0000                                                             
     5  0  0.50       -26.7287   2.0000                                                             
     6  0  0.50        -2.0862   1.0000                                                             
     5  1  1.50       -13.5159   6.0000                                                             
     5  2  2.50        -0.4136   0.0000                                                             
   Description                                                                                      
     l       E           TYP  RCUT    TYP  RCUT                                                     
     0    -26.7287425     23  1.900                                                                 
     0     -2.0862306     23  1.900                                                                 
     1    -13.5158719     23  2.500                                                                 
     1     -2.7211652     23  2.500                                                                 
     2     -0.4136171     23  2.500                                                                 
  local pseudopotential read in
  partial core-charges read in
  partial kinetic energy density read in
  atomic valenz-charges read in
  non local Contribution for L=            0  read in
    real space projection operators read in
  non local Contribution for L=            0  read in
    real space projection operators read in
  non local Contribution for L=            1  read in
    real space projection operators read in
  non local Contribution for L=            1  read in
    real space projection operators read in
  non local Contribution for L=            2  read in
    real space projection operators read in
    PAW grid and wavefunctions read in
 
   number of l-projection  operators is LMAX  =            5
   number of lm-projection operators is LMMAX =           13
 
 POTCAR:    PAW_PBE Cl 06Sep2000                  
   SHA256 =  9f1b6e6ed4247ac726a768b330d26d7667cc3c95a39ff49c1d064c2d9dcce931 Cl/POTCAR             
   COPYR  = (c) Copyright 06Sep2000 Georg Kresse                                                    
   COPYR  = This file is part of the software VASP. Any use, copying, and all other rights are regul
   COPYR  = If you do not have a valid VASP license, you may not use, copy or distribute this file. 
   VRHFIN =Cl: s2p5                                                                                 
   LEXCH  = PE                                                                                      
   EATOM  =   409.7259 eV,   30.1140 Ry                                                             
                                                                                                    
   TITEL  = PAW_PBE Cl 06Sep2000                                                                    
   LULTRA =        F    use ultrasoft PP ?                                                          
   IUNSCR =        1    unscreen: 0-lin 1-nonlin 2-no                                               
   RPACOR =    1.500    partial core radius                                                         
   POMASS =   35.453; ZVAL   =    7.000    mass and valenz                                          
   RCORE  =    1.900    outmost cutoff radius                                                       
   RWIGS  =    2.100; RWIGS  =    1.111    wigner-seitz radius (au A)                               
   ENMAX  =  262.472; ENMIN  =  196.854 eV                                                          
   ICORE  =        2    local potential                                                             
   LCOR   =        T    correct aug charges                                                         
   LPAW   =        T    paw PP                                                                      
   EAUG   =  356.192                                                                                
   DEXC   =    0.000                                                                                
   RMAX   =    1.945    core radius for proj-oper                                                   
   RAUG   =    1.300    factor for augmentation sphere                                              
   RDEP   =    2.020    radius for radial grids                                                     
   RDEPT  =    1.678    core radius for aug-charge                                                  
                                                                                                    
   Atomic configuration                                                                             
    6 entries                                                                                       
     n  l   j            E        occ.                                                              
     1  0  0.50     -2751.1850   2.0000                                                             
     2  0  0.50      -252.6861   2.0000                                                             
     2  1  1.50      -191.6157   6.0000                                                             
     3  0  0.50       -20.6916   2.0000                                                             
     3  1  0.50        -8.5949   5.0000                                                             
     3  2  1.50        -8.1635   0.0000                                                             
   Description                                                                                      
     l       E           TYP  RCUT    TYP  RCUT                                                     
     0    -20.6915656     23  1.900                                                                 
     0    -22.0521482     23  1.900                                                                 
     1     -8.5948577     23  1.900                                                                 
     1     -5.3847331     23  1.900                                                                 
     2     -8.1634956     23  1.900                                                                 
  local pseudopotential read in
  partial core-charges read in
  partial kinetic energy density read in
  atomic valenz-charges read in
  non local Contribution for L=            0  read in
    real space projection operators read in
  non local Contribution for L=            0  read in
    real space projection operators read in
  non local Contribution for L=            1  read in
    real space projection operators read in
  non local Contribution for L=            1  read in
    real space projection operators read in
    PAW grid and wavefunctions read in
 
   number of l-projection  operators is LMAX  =            4
   number of lm-projection operators is LMMAX =            8
 
 -----------------------------------------------------------------------------
|                                                                             |
|               ----> ADVICE to this user running VASP <----                  |
|                                                                             |
|     You enforced a specific xc type in the INCAR file but a different       |
|     type was found in the POTCAR file.                                      |
|     I HOPE YOU KNOW WHAT YOU ARE DOING!                                     |
|                                                                             |
 -----------------------------------------------------------------------------

  PAW_PBE Cs_sv 08Apr2002               :
 energy of atom  1       EATOM= -555.6835
 kinetic energy error for atom=    0.0137 (will be added to EATOM!!)
  PAW_PBE Cl 06Sep2000                  :
 energy of atom  2       EATOM= -409.7259
 kinetic energy error for atom=    0.0483 (will be added to EATOM!!)
 
 
 POSCAR: Cs1 Cl1
  positions in direct lattice
  No initial velocities read in


 exchange-correlation table for PS
   RHO(1)=    0.500       N(1)  =     2000
   RHO(2)=  100.500       N(2)  =     4000
 


--------------------------------------------------------------------------------------------------------


 ion  position               nearest neighbor table
   1  0.000  0.000  0.000-
   2  0.500  0.500  0.500-
 
  LATTYP: Found a simple cubic cell.
 ALAT       =     4.0754486391
  
  Lattice vectors:
  
 A1 = (   4.0754486391,   0.0000000000,   0.0000000000)
 A2 = (   0.0000000000,   4.0754486391,   0.0000000000)
 A3 = (   0.0000000000,   0.0000000000,   4.0754486391)


Analysis of symmetry for initial positions (statically):
=====================================================================
 Subroutine PRICEL returns:
 Original cell was already a primitive cell.
 

 Routine SETGRP: Setting up the symmetry group for a 
 simple cubic supercell.


 Subroutine GETGRP returns: Found 48 space group operations
 (whereof 48 operations were pure point group operations)
 out of a pool of 48 trial point group operations.


The static configuration has the point symmetry O_h .


Analysis of symmetry for dynamics (positions and initial velocities):
=====================================================================
 Subroutine PRICEL returns:
 Original cell was already a primitive cell.
 

 Routine SETGRP: Setting up the symmetry group for a 
 simple cubic supercell.


 Subroutine GETGRP returns: Found 48 space group operations
 (whereof 48 operations were pure point group operations)
 out of a pool of 48 trial point group operations.


The dynamic configuration has the point symmetry O_h .


 Subroutine INISYM returns: Found 48 space group operations
 (whereof 48 operations are pure point group operations),
 and found     1 'primitive' translations


----------------------------------------------------------------------------------------

                                     Primitive cell                                     

  volume of cell :      67.6903

  direct lattice vectors                    reciprocal lattice vectors
     4.075448639  0.000000000  0.000000000     0.245371759  0.000000000  0.000000000
     0.000000000  4.075448639  0.000000000     0.000000000  0.245371759  0.000000000
     0.000000000  0.000000000  4.075448639     0.000000000  0.000000000  0.245371759

  length of vectors
     4.075448639  4.075448639  4.075448639     0.245371759  0.245371759  0.245371759

  position of ions in fractional coordinates (direct lattice)
     0.000000000  0.000000000  0.000000000
     0.500000000  0.500000000  0.500000000

  ion indices of the primitive-cell ions
   primitive index   ion index
                 1           1
                 2           2

----------------------------------------------------------------------------------------

 
 
 KPOINTS: Num irrep kpoints: 20                   

Automatic generation of k-mesh.
 Grid dimensions read from file:
 generate k-points for:    8    8    8

 Generating k-lattice:

  Cartesian coordinates                     Fractional coordinates (reciprocal lattice)
     0.030671470  0.000000000  0.000000000     0.125000000  0.000000000  0.000000000
     0.000000000  0.030671470  0.000000000     0.000000000  0.125000000  0.000000000
     0.000000000  0.000000000  0.030671470     0.000000000  0.000000000  0.125000000

  Length of vectors
     0.030671470  0.030671470  0.030671470

  Shift w.r.t. Gamma in fractional coordinates (k-lattice)
     0.500000000  0.500000000  0.500000000

 TETIRR: Found    229 inequivalent tetrahedra from     3072
 
 Subroutine IBZKPT returns following result:
 ===========================================
 
 Found     20 irreducible k-points:
 
 Following reciprocal coordinates:
            Coordinates               Weight
  0.062500  0.062500  0.062500      8.000000
  0.187500  0.062500  0.062500     24.000000
  0.312500  0.062500  0.062500     24.000000
  0.437500  0.062500  0.062500     24.000000
  0.187500  0.187500  0.062500     24.000000
  0.312500  0.187500  0.062500     48.000000
  0.437500  0.187500  0.062500     48.000000
  0.312500  0.312500  0.062500     24.000000
  0.437500  0.312500  0.062500     48.000000
  0.437500  0.437500  0.062500     24.000000
  0.187500  0.187500  0.187500      8.000000
  0.312500  0.187500  0.187500     24.000000
  0.437500  0.187500  0.187500     24.000000
  0.312500  0.312500  0.187500     24.000000
  0.437500  0.312500  0.187500     48.000000
  0.437500  0.437500  0.187500     24.000000
  0.312500  0.312500  0.312500      8.000000
  0.437500  0.312500  0.312500     24.000000
  0.437500  0.437500  0.312500     24.000000
  0.437500  0.437500  0.437500      8.000000
 
 Following cartesian coordinates:
            Coordinates               Weight
  0.015336  0.015336  0.015336      8.000000
  0.046007  0.015336  0.015336     24.000000
  0.076679  0.015336  0.015336     24.000000
  0.107350  0.015336  0.015336     24.000000
  0.046007  0.046007  0.015336     24.000000
  0.076679  0.046007  0.015336     48.000000
  0.107350  0.046007  0.015336     48.000000
  0.076679  0.076679  0.015336     24.000000
  0.107350  0.076679  0.015336     48.000000
  0.107350  0.107350  0.015336     24.000000
  0.046007  0.046007  0.046007      8.000000
  0.076679  0.046007  0.046007     24.000000
  0.107350  0.046007  0.046007     24.000000
  0.076679  0.076679  0.046007     24.000000
  0.107350  0.076679  0.046007     48.000000
  0.107350  0.107350  0.046007     24.000000
  0.076679  0.076679  0.076679      8.000000
  0.107350  0.076679  0.076679     24.000000
  0.107350  0.107350  0.076679     24.000000
  0.107350  0.107350  0.107350      8.000000
 
 
 Subroutine IBZKPT_HF returns following result:
 ==============================================
 
 Found    512 k-points in 1st BZ
 the following    512 k-points will be used (e.g. in the exchange kernel)
 Following reciprocal coordinates:   # in IRBZ
  0.062500  0.062500  0.062500    0.00195313   1 t-inv F
  0.187500  0.062500  0.062500    0.00195313   2 t-inv F
  0.312500  0.062500  0.062500    0.00195313   3 t-inv F
  0.437500  0.062500  0.062500    0.00195313   4 t-inv F
  0.187500  0.187500  0.062500    0.00195313   5 t-inv F
  0.312500  0.187500  0.062500    0.00195313   6 t-inv F
  0.437500  0.187500  0.062500    0.00195313   7 t-inv F
  0.312500  0.312500  0.062500    0.00195313   8 t-inv F
  0.437500  0.312500  0.062500    0.00195313   9 t-inv F
  0.437500  0.437500  0.062500    0.00195313  10 t-inv F
  0.187500  0.187500  0.187500    0.00195313  11 t-inv F
  0.312500  0.187500  0.187500    0.00195313  12 t-inv F
  0.437500  0.187500  0.187500    0.00195313  13 t-inv F
  0.312500  0.312500  0.187500    0.00195313  14 t-inv F
  0.437500  0.312500  0.187500    0.00195313  15 t-inv F
  0.437500  0.437500  0.187500    0.00195313  16 t-inv F
  0.312500  0.312500  0.312500    0.00195313  17 t-inv F
  0.437500  0.312500  0.312500    0.00195313  18 t-inv F
  0.437500  0.437500  0.312500    0.00195313  19 t-inv F
  0.437500  0.437500  0.437500    0.00195313  20 t-inv F
 -0.062500 -0.062500 -0.062500    0.00195313   1 t-inv F
 -0.062500  0.062500  0.062500    0.00195313   1 t-inv F
  0.062500 -0.062500 -0.062500    0.00195313   1 t-inv F
 -0.062500 -0.062500  0.062500    0.00195313   1 t-inv F
  0.062500  0.062500 -0.062500    0.00195313   1 t-inv F
  0.062500 -0.062500  0.062500    0.00195313   1 t-inv F
 -0.062500  0.062500 -0.062500    0.00195313   1 t-inv F
 -0.187500 -0.062500 -0.062500    0.00195313   2 t-inv F
  0.062500  0.187500  0.062500    0.00195313   2 t-inv F
 -0.062500 -0.187500 -0.062500    0.00195313   2 t-inv F
  0.062500  0.062500  0.187500    0.00195313   2 t-inv F
 -0.062500 -0.062500 -0.187500    0.00195313   2 t-inv F
 -0.062500  0.187500  0.062500    0.00195313   2 t-inv F
  0.062500 -0.187500 -0.062500    0.00195313   2 t-inv F
 -0.187500  0.062500  0.062500    0.00195313   2 t-inv F
  0.187500 -0.062500 -0.062500    0.00195313   2 t-inv F
 -0.062500  0.062500  0.187500    0.00195313   2 t-inv F
  0.062500 -0.062500 -0.187500    0.00195313   2 t-inv F
 -0.187500 -0.062500  0.062500    0.00195313   2 t-inv F
  0.187500  0.062500 -0.062500    0.00195313   2 t-inv F
 -0.062500 -0.187500  0.062500    0.00195313   2 t-inv F
  0.062500  0.187500 -0.062500    0.00195313   2 t-inv F
 -0.062500 -0.062500  0.187500    0.00195313   2 t-inv F
  0.062500  0.062500 -0.187500    0.00195313   2 t-inv F
  0.062500 -0.187500  0.062500    0.00195313   2 t-inv F
 -0.062500  0.187500 -0.062500    0.00195313   2 t-inv F
  0.187500 -0.062500  0.062500    0.00195313   2 t-inv F
 -0.187500  0.062500 -0.062500    0.00195313   2 t-inv F
  0.062500 -0.062500  0.187500    0.00195313   2 t-inv F
 -0.062500  0.062500 -0.187500    0.00195313   2 t-inv F
 -0.312500 -0.062500 -0.062500    0.00195313   3 t-inv F
  0.062500  0.312500  0.062500    0.00195313   3 t-inv F
 -0.062500 -0.312500 -0.062500    0.00195313   3 t-inv F
  0.062500  0.062500  0.312500    0.00195313   3 t-inv F
 -0.062500 -0.062500 -0.312500    0.00195313   3 t-inv F
 -0.062500  0.312500  0.062500    0.00195313   3 t-inv F
  0.062500 -0.312500 -0.062500    0.00195313   3 t-inv F
 -0.312500  0.062500  0.062500    0.00195313   3 t-inv F
  0.312500 -0.062500 -0.062500    0.00195313   3 t-inv F
 -0.062500  0.062500  0.312500    0.00195313   3 t-inv F
  0.062500 -0.062500 -0.312500    0.00195313   3 t-inv F
 -0.312500 -0.062500  0.062500    0.00195313   3 t-inv F
  0.312500  0.062500 -0.062500    0.00195313   3 t-inv F
 -0.062500 -0.312500  0.062500    0.00195313   3 t-inv F
  0.062500  0.312500 -0.062500    0.00195313   3 t-inv F
 -0.062500 -0.062500  0.312500    0.00195313   3 t-inv F
  0.062500  0.062500 -0.312500    0.00195313   3 t-inv F
  0.062500 -0.312500  0.062500    0.00195313   3 t-inv F
 -0.062500  0.312500 -0.062500    0.00195313   3 t-inv F
  0.312500 -0.062500  0.062500    0.00195313   3 t-inv F
 -0.312500  0.062500 -0.062500    0.00195313   3 t-inv F
  0.062500 -0.062500  0.312500    0.00195313   3 t-inv F
 -0.062500  0.062500 -0.312500    0.00195313   3 t-inv F
 -0.437500 -0.062500 -0.062500    0.00195313   4 t-inv F
  0.062500  0.437500  0.062500    0.00195313   4 t-inv F
 -0.062500 -0.437500 -0.062500    0.00195313   4 t-inv F
  0.062500  0.062500  0.437500    0.00195313   4 t-inv F
 -0.062500 -0.062500 -0.437500    0.00195313   4 t-inv F
 -0.062500  0.437500  0.062500    0.00195313   4 t-inv F
  0.062500 -0.437500 -0.062500    0.00195313   4 t-inv F
 -0.437500  0.062500  0.062500    0.00195313   4 t-inv F
  0.437500 -0.062500 -0.062500    0.00195313   4 t-inv F
 -0.062500  0.062500  0.437500    0.00195313   4 t-inv F
  0.062500 -0.062500 -0.437500    0.00195313   4 t-inv F
 -0.437500 -0.062500  0.062500    0.00195313   4 t-inv F
  0.437500  0.062500 -0.062500    0.00195313   4 t-inv F
 -0.062500 -0.437500  0.062500    0.00195313   4 t-inv F
  0.062500  0.437500 -0.062500    0.00195313   4 t-inv F
 -0.062500 -0.062500  0.437500    0.00195313   4 t-inv F
  0.062500  0.062500 -0.437500    0.00195313   4 t-inv F
  0.062500 -0.437500  0.062500    0.00195313   4 t-inv F
 -0.062500  0.437500 -0.062500    0.00195313   4 t-inv F
  0.437500 -0.062500  0.062500    0.00195313   4 t-inv F
 -0.437500  0.062500 -0.062500    0.00195313   4 t-inv F
  0.062500 -0.062500  0.437500    0.00195313   4 t-inv F
 -0.062500  0.062500 -0.437500    0.00195313   4 t-inv F
 -0.187500 -0.187500 -0.062500    0.00195313   5 t-inv F
  0.062500  0.187500  0.187500    0.00195313   5 t-inv F
 -0.062500 -0.187500 -0.187500    0.00195313   5 t-inv F
  0.187500  0.062500  0.187500    0.00195313   5 t-inv F
 -0.187500 -0.062500 -0.187500    0.00195313   5 t-inv F
 -0.187500  0.187500  0.062500    0.00195313   5 t-inv F
  0.187500 -0.187500 -0.062500    0.00195313   5 t-inv F
 -0.187500  0.062500  0.187500    0.00195313   5 t-inv F
  0.187500 -0.062500 -0.187500    0.00195313   5 t-inv F
 -0.062500  0.187500  0.187500    0.00195313   5 t-inv F
  0.062500 -0.187500 -0.187500    0.00195313   5 t-inv F
 -0.187500 -0.187500  0.062500    0.00195313   5 t-inv F
  0.187500  0.187500 -0.062500    0.00195313   5 t-inv F
 -0.062500 -0.187500  0.187500    0.00195313   5 t-inv F
  0.062500  0.187500 -0.187500    0.00195313   5 t-inv F
 -0.187500 -0.062500  0.187500    0.00195313   5 t-inv F
  0.187500  0.062500 -0.187500    0.00195313   5 t-inv F
  0.187500 -0.187500  0.062500    0.00195313   5 t-inv F
 -0.187500  0.187500 -0.062500    0.00195313   5 t-inv F
  0.187500 -0.062500  0.187500    0.00195313   5 t-inv F
 -0.187500  0.062500 -0.187500    0.00195313   5 t-inv F
  0.062500 -0.187500  0.187500    0.00195313   5 t-inv F
 -0.062500  0.187500 -0.187500    0.00195313   5 t-inv F
 -0.312500 -0.187500 -0.062500    0.00195313   6 t-inv F
  0.062500  0.312500  0.187500    0.00195313   6 t-inv F
 -0.062500 -0.312500 -0.187500    0.00195313   6 t-inv F
  0.187500  0.062500  0.312500    0.00195313   6 t-inv F
 -0.187500 -0.062500 -0.312500    0.00195313   6 t-inv F
 -0.187500  0.312500  0.062500    0.00195313   6 t-inv F
  0.187500 -0.312500 -0.062500    0.00195313   6 t-inv F
 -0.312500  0.062500  0.187500    0.00195313   6 t-inv F
  0.312500 -0.062500 -0.187500    0.00195313   6 t-inv F
 -0.062500  0.187500  0.312500    0.00195313   6 t-inv F
  0.062500 -0.187500 -0.312500    0.00195313   6 t-inv F
 -0.312500 -0.187500  0.062500    0.00195313   6 t-inv F
  0.312500  0.187500 -0.062500    0.00195313   6 t-inv F
 -0.062500 -0.312500  0.187500    0.00195313   6 t-inv F
  0.062500  0.312500 -0.187500    0.00195313   6 t-inv F
 -0.187500 -0.062500  0.312500    0.00195313   6 t-inv F
  0.187500  0.062500 -0.312500    0.00195313   6 t-inv F
  0.187500 -0.312500  0.062500    0.00195313   6 t-inv F
 -0.187500  0.312500 -0.062500    0.00195313   6 t-inv F
  0.312500 -0.062500  0.187500    0.00195313   6 t-inv F
 -0.312500  0.062500 -0.187500    0.00195313   6 t-inv F
  0.062500 -0.187500  0.312500    0.00195313   6 t-inv F
 -0.062500  0.187500 -0.312500    0.00195313   6 t-inv F
  0.062500 -0.312500 -0.187500    0.00195313   6 t-inv F
 -0.062500  0.312500  0.187500    0.00195313   6 t-inv F
  0.187500 -0.062500 -0.312500    0.00195313   6 t-inv F
 -0.187500  0.062500  0.312500    0.00195313   6 t-inv F
  0.312500 -0.187500 -0.062500    0.00195313   6 t-inv F
 -0.312500  0.187500  0.062500    0.00195313   6 t-inv F
  0.062500  0.187500 -0.312500    0.00195313   6 t-inv F
 -0.062500 -0.187500  0.312500    0.00195313   6 t-inv F
  0.187500  0.312500 -0.062500    0.00195313   6 t-inv F
 -0.187500 -0.312500  0.062500    0.00195313   6 t-inv F
  0.312500  0.062500 -0.187500    0.00195313   6 t-inv F
 -0.312500 -0.062500  0.187500    0.00195313   6 t-inv F
 -0.187500  0.062500 -0.312500    0.00195313   6 t-inv F
  0.187500 -0.062500  0.312500    0.00195313   6 t-inv F
 -0.312500  0.187500 -0.062500    0.00195313   6 t-inv F
  0.312500 -0.187500  0.062500    0.00195313   6 t-inv F
 -0.062500  0.312500 -0.187500    0.00195313   6 t-inv F
  0.062500 -0.312500  0.187500    0.00195313   6 t-inv F
 -0.312500 -0.062500 -0.187500    0.00195313   6 t-inv F
  0.312500  0.062500  0.187500    0.00195313   6 t-inv F
 -0.187500 -0.312500 -0.062500    0.00195313   6 t-inv F
  0.187500  0.312500  0.062500    0.00195313   6 t-inv F
 -0.062500 -0.187500 -0.312500    0.00195313   6 t-inv F
  0.062500  0.187500  0.312500    0.00195313   6 t-inv F
 -0.437500 -0.187500 -0.062500    0.00195313   7 t-inv F
  0.062500  0.437500  0.187500    0.00195313   7 t-inv F
 -0.062500 -0.437500 -0.187500    0.00195313   7 t-inv F
  0.187500  0.062500  0.437500    0.00195313   7 t-inv F
 -0.187500 -0.062500 -0.437500    0.00195313   7 t-inv F
 -0.187500  0.437500  0.062500    0.00195313   7 t-inv F
  0.187500 -0.437500 -0.062500    0.00195313   7 t-inv F
 -0.437500  0.062500  0.187500    0.00195313   7 t-inv F
  0.437500 -0.062500 -0.187500    0.00195313   7 t-inv F
 -0.062500  0.187500  0.437500    0.00195313   7 t-inv F
  0.062500 -0.187500 -0.437500    0.00195313   7 t-inv F
 -0.437500 -0.187500  0.062500    0.00195313   7 t-inv F
  0.437500  0.187500 -0.062500    0.00195313   7 t-inv F
 -0.062500 -0.437500  0.187500    0.00195313   7 t-inv F
  0.062500  0.437500 -0.187500    0.00195313   7 t-inv F
 -0.187500 -0.062500  0.437500    0.00195313   7 t-inv F
  0.187500  0.062500 -0.437500    0.00195313   7 t-inv F
  0.187500 -0.437500  0.062500    0.00195313   7 t-inv F
 -0.187500  0.437500 -0.062500    0.00195313   7 t-inv F
  0.437500 -0.062500  0.187500    0.00195313   7 t-inv F
 -0.437500  0.062500 -0.187500    0.00195313   7 t-inv F
  0.062500 -0.187500  0.437500    0.00195313   7 t-inv F
 -0.062500  0.187500 -0.437500    0.00195313   7 t-inv F
  0.062500 -0.437500 -0.187500    0.00195313   7 t-inv F
 -0.062500  0.437500  0.187500    0.00195313   7 t-inv F
  0.187500 -0.062500 -0.437500    0.00195313   7 t-inv F
 -0.187500  0.062500  0.437500    0.00195313   7 t-inv F
  0.437500 -0.187500 -0.062500    0.00195313   7 t-inv F
 -0.437500  0.187500  0.062500    0.00195313   7 t-inv F
  0.062500  0.187500 -0.437500    0.00195313   7 t-inv F
 -0.062500 -0.187500  0.437500    0.00195313   7 t-inv F
  0.187500  0.437500 -0.062500    0.00195313   7 t-inv F
 -0.187500 -0.437500  0.062500    0.00195313   7 t-inv F
  0.437500  0.062500 -0.187500    0.00195313   7 t-inv F
 -0.437500 -0.062500  0.187500    0.00195313   7 t-inv F
 -0.187500  0.062500 -0.437500    0.00195313   7 t-inv F
  0.187500 -0.062500  0.437500    0.00195313   7 t-inv F
 -0.437500  0.187500 -0.062500    0.00195313   7 t-inv F
  0.437500 -0.187500  0.062500    0.00195313   7 t-inv F
 -0.062500  0.437500 -0.187500    0.00195313   7 t-inv F
  0.062500 -0.437500  0.187500    0.00195313   7 t-inv F
 -0.437500 -0.062500 -0.187500    0.00195313   7 t-inv F
  0.437500  0.062500  0.187500    0.00195313   7 t-inv F
 -0.187500 -0.437500 -0.062500    0.00195313   7 t-inv F
  0.187500  0.437500  0.062500    0.00195313   7 t-inv F
 -0.062500 -0.187500 -0.437500    0.00195313   7 t-inv F
  0.062500  0.187500  0.437500    0.00195313   7 t-inv F
 -0.312500 -0.312500 -0.062500    0.00195313   8 t-inv F
  0.062500  0.312500  0.312500    0.00195313   8 t-inv F
 -0.062500 -0.312500 -0.312500    0.00195313   8 t-inv F
  0.312500  0.062500  0.312500    0.00195313   8 t-inv F
 -0.312500 -0.062500 -0.312500    0.00195313   8 t-inv F
 -0.312500  0.312500  0.062500    0.00195313   8 t-inv F
  0.312500 -0.312500 -0.062500    0.00195313   8 t-inv F
 -0.312500  0.062500  0.312500    0.00195313   8 t-inv F
  0.312500 -0.062500 -0.312500    0.00195313   8 t-inv F
 -0.062500  0.312500  0.312500    0.00195313   8 t-inv F
  0.062500 -0.312500 -0.312500    0.00195313   8 t-inv F
 -0.312500 -0.312500  0.062500    0.00195313   8 t-inv F
  0.312500  0.312500 -0.062500    0.00195313   8 t-inv F
 -0.062500 -0.312500  0.312500    0.00195313   8 t-inv F
  0.062500  0.312500 -0.312500    0.00195313   8 t-inv F
 -0.312500 -0.062500  0.312500    0.00195313   8 t-inv F
  0.312500  0.062500 -0.312500    0.00195313   8 t-inv F
  0.312500 -0.312500  0.062500    0.00195313   8 t-inv F
 -0.312500  0.312500 -0.062500    0.00195313   8 t-inv F
  0.312500 -0.062500  0.312500    0.00195313   8 t-inv F
 -0.312500  0.062500 -0.312500    0.00195313   8 t-inv F
  0.062500 -0.312500  0.312500    0.00195313   8 t-inv F
 -0.062500  0.312500 -0.312500    0.00195313   8 t-inv F
 -0.437500 -0.312500 -0.062500    0.00195313   9 t-inv F
  0.062500  0.437500  0.312500    0.00195313   9 t-inv F
 -0.062500 -0.437500 -0.312500    0.00195313   9 t-inv F
  0.312500  0.062500  0.437500    0.00195313   9 t-inv F
 -0.312500 -0.062500 -0.437500    0.00195313   9 t-inv F
 -0.312500  0.437500  0.062500    0.00195313   9 t-inv F
  0.312500 -0.437500 -0.062500    0.00195313   9 t-inv F
 -0.437500  0.062500  0.312500    0.00195313   9 t-inv F
  0.437500 -0.062500 -0.312500    0.00195313   9 t-inv F
 -0.062500  0.312500  0.437500    0.00195313   9 t-inv F
  0.062500 -0.312500 -0.437500    0.00195313   9 t-inv F
 -0.437500 -0.312500  0.062500    0.00195313   9 t-inv F
  0.437500  0.312500 -0.062500    0.00195313   9 t-inv F
 -0.062500 -0.437500  0.312500    0.00195313   9 t-inv F
  0.062500  0.437500 -0.312500    0.00195313   9 t-inv F
 -0.312500 -0.062500  0.437500    0.00195313   9 t-inv F
  0.312500  0.062500 -0.437500    0.00195313   9 t-inv F
  0.312500 -0.437500  0.062500    0.00195313   9 t-inv F
 -0.312500  0.437500 -0.062500    0.00195313   9 t-inv F
  0.437500 -0.062500  0.312500    0.00195313   9 t-inv F
 -0.437500  0.062500 -0.312500    0.00195313   9 t-inv F
  0.062500 -0.312500  0.437500    0.00195313   9 t-inv F
 -0.062500  0.312500 -0.437500    0.00195313   9 t-inv F
  0.062500 -0.437500 -0.312500    0.00195313   9 t-inv F
 -0.062500  0.437500  0.312500    0.00195313   9 t-inv F
  0.312500 -0.062500 -0.437500    0.00195313   9 t-inv F
 -0.312500  0.062500  0.437500    0.00195313   9 t-inv F
  0.437500 -0.312500 -0.062500    0.00195313   9 t-inv F
 -0.437500  0.312500  0.062500    0.00195313   9 t-inv F
  0.062500  0.312500 -0.437500    0.00195313   9 t-inv F
 -0.062500 -0.312500  0.437500    0.00195313   9 t-inv F
  0.312500  0.437500 -0.062500    0.00195313   9 t-inv F
 -0.312500 -0.437500  0.062500    0.00195313   9 t-inv F
  0.437500  0.062500 -0.312500    0.00195313   9 t-inv F
 -0.437500 -0.062500  0.312500    0.00195313   9 t-inv F
 -0.312500  0.062500 -0.437500    0.00195313   9 t-inv F
  0.312500 -0.062500  0.437500    0.00195313   9 t-inv F
 -0.437500  0.312500 -0.062500    0.00195313   9 t-inv F
  0.437500 -0.312500  0.062500    0.00195313   9 t-inv F
 -0.062500  0.437500 -0.312500    0.00195313   9 t-inv F
  0.062500 -0.437500  0.312500    0.00195313   9 t-inv F
 -0.437500 -0.062500 -0.312500    0.00195313   9 t-inv F
  0.437500  0.062500  0.312500    0.00195313   9 t-inv F
 -0.312500 -0.437500 -0.062500    0.00195313   9 t-inv F
  0.312500  0.437500  0.062500    0.00195313   9 t-inv F
 -0.062500 -0.312500 -0.437500    0.00195313   9 t-inv F
  0.062500  0.312500  0.437500    0.00195313   9 t-inv F
 -0.437500 -0.437500 -0.062500    0.00195313  10 t-inv F
  0.062500  0.437500  0.437500    0.00195313  10 t-inv F
 -0.062500 -0.437500 -0.437500    0.00195313  10 t-inv F
  0.437500  0.062500  0.437500    0.00195313  10 t-inv F
 -0.437500 -0.062500 -0.437500    0.00195313  10 t-inv F
 -0.437500  0.437500  0.062500    0.00195313  10 t-inv F
  0.437500 -0.437500 -0.062500    0.00195313  10 t-inv F
 -0.437500  0.062500  0.437500    0.00195313  10 t-inv F
  0.437500 -0.062500 -0.437500    0.00195313  10 t-inv F
 -0.062500  0.437500  0.437500    0.00195313  10 t-inv F
  0.062500 -0.437500 -0.437500    0.00195313  10 t-inv F
 -0.437500 -0.437500  0.062500    0.00195313  10 t-inv F
  0.437500  0.437500 -0.062500    0.00195313  10 t-inv F
 -0.062500 -0.437500  0.437500    0.00195313  10 t-inv F
  0.062500  0.437500 -0.437500    0.00195313  10 t-inv F
 -0.437500 -0.062500  0.437500    0.00195313  10 t-inv F
  0.437500  0.062500 -0.437500    0.00195313  10 t-inv F
  0.437500 -0.437500  0.062500    0.00195313  10 t-inv F
 -0.437500  0.437500 -0.062500    0.00195313  10 t-inv F
  0.437500 -0.062500  0.437500    0.00195313  10 t-inv F
 -0.437500  0.062500 -0.437500    0.00195313  10 t-inv F
  0.062500 -0.437500  0.437500    0.00195313  10 t-inv F
 -0.062500  0.437500 -0.437500    0.00195313  10 t-inv F
 -0.187500 -0.187500 -0.187500    0.00195313  11 t-inv F
 -0.187500  0.187500  0.187500    0.00195313  11 t-inv F
  0.187500 -0.187500 -0.187500    0.00195313  11 t-inv F
 -0.187500 -0.187500  0.187500    0.00195313  11 t-inv F
  0.187500  0.187500 -0.187500    0.00195313  11 t-inv F
  0.187500 -0.187500  0.187500    0.00195313  11 t-inv F
 -0.187500  0.187500 -0.187500    0.00195313  11 t-inv F
 -0.312500 -0.187500 -0.187500    0.00195313  12 t-inv F
  0.187500  0.312500  0.187500    0.00195313  12 t-inv F
 -0.187500 -0.312500 -0.187500    0.00195313  12 t-inv F
  0.187500  0.187500  0.312500    0.00195313  12 t-inv F
 -0.187500 -0.187500 -0.312500    0.00195313  12 t-inv F
 -0.187500  0.312500  0.187500    0.00195313  12 t-inv F
  0.187500 -0.312500 -0.187500    0.00195313  12 t-inv F
 -0.312500  0.187500  0.187500    0.00195313  12 t-inv F
  0.312500 -0.187500 -0.187500    0.00195313  12 t-inv F
 -0.187500  0.187500  0.312500    0.00195313  12 t-inv F
  0.187500 -0.187500 -0.312500    0.00195313  12 t-inv F
 -0.312500 -0.187500  0.187500    0.00195313  12 t-inv F
  0.312500  0.187500 -0.187500    0.00195313  12 t-inv F
 -0.187500 -0.312500  0.187500    0.00195313  12 t-inv F
  0.187500  0.312500 -0.187500    0.00195313  12 t-inv F
 -0.187500 -0.187500  0.312500    0.00195313  12 t-inv F
  0.187500  0.187500 -0.312500    0.00195313  12 t-inv F
  0.187500 -0.312500  0.187500    0.00195313  12 t-inv F
 -0.187500  0.312500 -0.187500    0.00195313  12 t-inv F
  0.312500 -0.187500  0.187500    0.00195313  12 t-inv F
 -0.312500  0.187500 -0.187500    0.00195313  12 t-inv F
  0.187500 -0.187500  0.312500    0.00195313  12 t-inv F
 -0.187500  0.187500 -0.312500    0.00195313  12 t-inv F
 -0.437500 -0.187500 -0.187500    0.00195313  13 t-inv F
  0.187500  0.437500  0.187500    0.00195313  13 t-inv F
 -0.187500 -0.437500 -0.187500    0.00195313  13 t-inv F
  0.187500  0.187500  0.437500    0.00195313  13 t-inv F
 -0.187500 -0.187500 -0.437500    0.00195313  13 t-inv F
 -0.187500  0.437500  0.187500    0.00195313  13 t-inv F
  0.187500 -0.437500 -0.187500    0.00195313  13 t-inv F
 -0.437500  0.187500  0.187500    0.00195313  13 t-inv F
  0.437500 -0.187500 -0.187500    0.00195313  13 t-inv F
 -0.187500  0.187500  0.437500    0.00195313  13 t-inv F
  0.187500 -0.187500 -0.437500    0.00195313  13 t-inv F
 -0.437500 -0.187500  0.187500    0.00195313  13 t-inv F
  0.437500  0.187500 -0.187500    0.00195313  13 t-inv F
 -0.187500 -0.437500  0.187500    0.00195313  13 t-inv F
  0.187500  0.437500 -0.187500    0.00195313  13 t-inv F
 -0.187500 -0.187500  0.437500    0.00195313  13 t-inv F
  0.187500  0.187500 -0.437500    0.00195313  13 t-inv F
  0.187500 -0.437500  0.187500    0.00195313  13 t-inv F
 -0.187500  0.437500 -0.187500    0.00195313  13 t-inv F
  0.437500 -0.187500  0.187500    0.00195313  13 t-inv F
 -0.437500  0.187500 -0.187500    0.00195313  13 t-inv F
  0.187500 -0.187500  0.437500    0.00195313  13 t-inv F
 -0.187500  0.187500 -0.437500    0.00195313  13 t-inv F
 -0.312500 -0.312500 -0.187500    0.00195313  14 t-inv F
  0.187500  0.312500  0.312500    0.00195313  14 t-inv F
 -0.187500 -0.312500 -0.312500    0.00195313  14 t-inv F
  0.312500  0.187500  0.312500    0.00195313  14 t-inv F
 -0.312500 -0.187500 -0.312500    0.00195313  14 t-inv F
 -0.312500  0.312500  0.187500    0.00195313  14 t-inv F
  0.312500 -0.312500 -0.187500    0.00195313  14 t-inv F
 -0.312500  0.187500  0.312500    0.00195313  14 t-inv F
  0.312500 -0.187500 -0.312500    0.00195313  14 t-inv F
 -0.187500  0.312500  0.312500    0.00195313  14 t-inv F
  0.187500 -0.312500 -0.312500    0.00195313  14 t-inv F
 -0.312500 -0.312500  0.187500    0.00195313  14 t-inv F
  0.312500  0.312500 -0.187500    0.00195313  14 t-inv F
 -0.187500 -0.312500  0.312500    0.00195313  14 t-inv F
  0.187500  0.312500 -0.312500    0.00195313  14 t-inv F
 -0.312500 -0.187500  0.312500    0.00195313  14 t-inv F
  0.312500  0.187500 -0.312500    0.00195313  14 t-inv F
  0.312500 -0.312500  0.187500    0.00195313  14 t-inv F
 -0.312500  0.312500 -0.187500    0.00195313  14 t-inv F
  0.312500 -0.187500  0.312500    0.00195313  14 t-inv F
 -0.312500  0.187500 -0.312500    0.00195313  14 t-inv F
  0.187500 -0.312500  0.312500    0.00195313  14 t-inv F
 -0.187500  0.312500 -0.312500    0.00195313  14 t-inv F
 -0.437500 -0.312500 -0.187500    0.00195313  15 t-inv F
  0.187500  0.437500  0.312500    0.00195313  15 t-inv F
 -0.187500 -0.437500 -0.312500    0.00195313  15 t-inv F
  0.312500  0.187500  0.437500    0.00195313  15 t-inv F
 -0.312500 -0.187500 -0.437500    0.00195313  15 t-inv F
 -0.312500  0.437500  0.187500    0.00195313  15 t-inv F
  0.312500 -0.437500 -0.187500    0.00195313  15 t-inv F
 -0.437500  0.187500  0.312500    0.00195313  15 t-inv F
  0.437500 -0.187500 -0.312500    0.00195313  15 t-inv F
 -0.187500  0.312500  0.437500    0.00195313  15 t-inv F
  0.187500 -0.312500 -0.437500    0.00195313  15 t-inv F
 -0.437500 -0.312500  0.187500    0.00195313  15 t-inv F
  0.437500  0.312500 -0.187500    0.00195313  15 t-inv F
 -0.187500 -0.437500  0.312500    0.00195313  15 t-inv F
  0.187500  0.437500 -0.312500    0.00195313  15 t-inv F
 -0.312500 -0.187500  0.437500    0.00195313  15 t-inv F
  0.312500  0.187500 -0.437500    0.00195313  15 t-inv F
  0.312500 -0.437500  0.187500    0.00195313  15 t-inv F
 -0.312500  0.437500 -0.187500    0.00195313  15 t-inv F
  0.437500 -0.187500  0.312500    0.00195313  15 t-inv F
 -0.437500  0.187500 -0.312500    0.00195313  15 t-inv F
  0.187500 -0.312500  0.437500    0.00195313  15 t-inv F
 -0.187500  0.312500 -0.437500    0.00195313  15 t-inv F
  0.187500 -0.437500 -0.312500    0.00195313  15 t-inv F
 -0.187500  0.437500  0.312500    0.00195313  15 t-inv F
  0.312500 -0.187500 -0.437500    0.00195313  15 t-inv F
 -0.312500  0.187500  0.437500    0.00195313  15 t-inv F
  0.437500 -0.312500 -0.187500    0.00195313  15 t-inv F
 -0.437500  0.312500  0.187500    0.00195313  15 t-inv F
  0.187500  0.312500 -0.437500    0.00195313  15 t-inv F
 -0.187500 -0.312500  0.437500    0.00195313  15 t-inv F
  0.312500  0.437500 -0.187500    0.00195313  15 t-inv F
 -0.312500 -0.437500  0.187500    0.00195313  15 t-inv F
  0.437500  0.187500 -0.312500    0.00195313  15 t-inv F
 -0.437500 -0.187500  0.312500    0.00195313  15 t-inv F
 -0.312500  0.187500 -0.437500    0.00195313  15 t-inv F
  0.312500 -0.187500  0.437500    0.00195313  15 t-inv F
 -0.437500  0.312500 -0.187500    0.00195313  15 t-inv F
  0.437500 -0.312500  0.187500    0.00195313  15 t-inv F
 -0.187500  0.437500 -0.312500    0.00195313  15 t-inv F
  0.187500 -0.437500  0.312500    0.00195313  15 t-inv F
 -0.437500 -0.187500 -0.312500    0.00195313  15 t-inv F
  0.437500  0.187500  0.312500    0.00195313  15 t-inv F
 -0.312500 -0.437500 -0.187500    0.00195313  15 t-inv F
  0.312500  0.437500  0.187500    0.00195313  15 t-inv F
 -0.187500 -0.312500 -0.437500    0.00195313  15 t-inv F
  0.187500  0.312500  0.437500    0.00195313  15 t-inv F
 -0.437500 -0.437500 -0.187500    0.00195313  16 t-inv F
  0.187500  0.437500  0.437500    0.00195313  16 t-inv F
 -0.187500 -0.437500 -0.437500    0.00195313  16 t-inv F
  0.437500  0.187500  0.437500    0.00195313  16 t-inv F
 -0.437500 -0.187500 -0.437500    0.00195313  16 t-inv F
 -0.437500  0.437500  0.187500    0.00195313  16 t-inv F
  0.437500 -0.437500 -0.187500    0.00195313  16 t-inv F
 -0.437500  0.187500  0.437500    0.00195313  16 t-inv F
  0.437500 -0.187500 -0.437500    0.00195313  16 t-inv F
 -0.187500  0.437500  0.437500    0.00195313  16 t-inv F
  0.187500 -0.437500 -0.437500    0.00195313  16 t-inv F
 -0.437500 -0.437500  0.187500    0.00195313  16 t-inv F
  0.437500  0.437500 -0.187500    0.00195313  16 t-inv F
 -0.187500 -0.437500  0.437500    0.00195313  16 t-inv F
  0.187500  0.437500 -0.437500    0.00195313  16 t-inv F
 -0.437500 -0.187500  0.437500    0.00195313  16 t-inv F
  0.437500  0.187500 -0.437500    0.00195313  16 t-inv F
  0.437500 -0.437500  0.187500    0.00195313  16 t-inv F
 -0.437500  0.437500 -0.187500    0.00195313  16 t-inv F
  0.437500 -0.187500  0.437500    0.00195313  16 t-inv F
 -0.437500  0.187500 -0.437500    0.00195313  16 t-inv F
  0.187500 -0.437500  0.437500    0.00195313  16 t-inv F
 -0.187500  0.437500 -0.437500    0.00195313  16 t-inv F
 -0.312500 -0.312500 -0.312500    0.00195313  17 t-inv F
 -0.312500  0.312500  0.312500    0.00195313  17 t-inv F
  0.312500 -0.312500 -0.312500    0.00195313  17 t-inv F
 -0.312500 -0.312500  0.312500    0.00195313  17 t-inv F
  0.312500  0.312500 -0.312500    0.00195313  17 t-inv F
  0.312500 -0.312500  0.312500    0.00195313  17 t-inv F
 -0.312500  0.312500 -0.312500    0.00195313  17 t-inv F
 -0.437500 -0.312500 -0.312500    0.00195313  18 t-inv F
  0.312500  0.437500  0.312500    0.00195313  18 t-inv F
 -0.312500 -0.437500 -0.312500    0.00195313  18 t-inv F
  0.312500  0.312500  0.437500    0.00195313  18 t-inv F
 -0.312500 -0.312500 -0.437500    0.00195313  18 t-inv F
 -0.312500  0.437500  0.312500    0.00195313  18 t-inv F
  0.312500 -0.437500 -0.312500    0.00195313  18 t-inv F
 -0.437500  0.312500  0.312500    0.00195313  18 t-inv F
  0.437500 -0.312500 -0.312500    0.00195313  18 t-inv F
 -0.312500  0.312500  0.437500    0.00195313  18 t-inv F
  0.312500 -0.312500 -0.437500    0.00195313  18 t-inv F
 -0.437500 -0.312500  0.312500    0.00195313  18 t-inv F
  0.437500  0.312500 -0.312500    0.00195313  18 t-inv F
 -0.312500 -0.437500  0.312500    0.00195313  18 t-inv F
  0.312500  0.437500 -0.312500    0.00195313  18 t-inv F
 -0.312500 -0.312500  0.437500    0.00195313  18 t-inv F
  0.312500  0.312500 -0.437500    0.00195313  18 t-inv F
  0.312500 -0.437500  0.312500    0.00195313  18 t-inv F
 -0.312500  0.437500 -0.312500    0.00195313  18 t-inv F
  0.437500 -0.312500  0.312500    0.00195313  18 t-inv F
 -0.437500  0.312500 -0.312500    0.00195313  18 t-inv F
  0.312500 -0.312500  0.437500    0.00195313  18 t-inv F
 -0.312500  0.312500 -0.437500    0.00195313  18 t-inv F
 -0.437500 -0.437500 -0.312500    0.00195313  19 t-inv F
  0.312500  0.437500  0.437500    0.00195313  19 t-inv F
 -0.312500 -0.437500 -0.437500    0.00195313  19 t-inv F
  0.437500  0.312500  0.437500    0.00195313  19 t-inv F
 -0.437500 -0.312500 -0.437500    0.00195313  19 t-inv F
 -0.437500  0.437500  0.312500    0.00195313  19 t-inv F
  0.437500 -0.437500 -0.312500    0.00195313  19 t-inv F
 -0.437500  0.312500  0.437500    0.00195313  19 t-inv F
  0.437500 -0.312500 -0.437500    0.00195313  19 t-inv F
 -0.312500  0.437500  0.437500    0.00195313  19 t-inv F
  0.312500 -0.437500 -0.437500    0.00195313  19 t-inv F
 -0.437500 -0.437500  0.312500    0.00195313  19 t-inv F
  0.437500  0.437500 -0.312500    0.00195313  19 t-inv F
 -0.312500 -0.437500  0.437500    0.00195313  19 t-inv F
  0.312500  0.437500 -0.437500    0.00195313  19 t-inv F
 -0.437500 -0.312500  0.437500    0.00195313  19 t-inv F
  0.437500  0.312500 -0.437500    0.00195313  19 t-inv F
  0.437500 -0.437500  0.312500    0.00195313  19 t-inv F
 -0.437500  0.437500 -0.312500    0.00195313  19 t-inv F
  0.437500 -0.312500  0.437500    0.00195313  19 t-inv F
 -0.437500  0.312500 -0.437500    0.00195313  19 t-inv F
  0.312500 -0.437500  0.437500    0.00195313  19 t-inv F
 -0.312500  0.437500 -0.437500    0.00195313  19 t-inv F
 -0.437500 -0.437500 -0.437500    0.00195313  20 t-inv F
 -0.437500  0.437500  0.437500    0.00195313  20 t-inv F
  0.437500 -0.437500 -0.437500    0.00195313  20 t-inv F
 -0.437500 -0.437500  0.437500    0.00195313  20 t-inv F
  0.437500  0.437500 -0.437500    0.00195313  20 t-inv F
  0.437500 -0.437500  0.437500    0.00195313  20 t-inv F
 -0.437500  0.437500 -0.437500    0.00195313  20 t-inv F


--------------------------------------------------------------------------------------------------------




 Dimension of arrays:
   k-points           NKPTS =     20   k-points in BZ     NKDIM =     20   number of bands    NBANDS=     12
   number of dos      NEDOS =    301   number of ions     NIONS =      2
   non local maximal  LDIM  =      5   non local SUM 2l+1 LMDIM =     13
   total plane-waves  NPLWV =   4096
   max r-space proj   IRMAX =      1   max aug-charges    IRDMAX=   3224
   dimension x,y,z NGX =    16 NGY =   16 NGZ =   16
   dimension x,y,z NGXF=    32 NGYF=   32 NGZF=   32
   support grid    NGXF=    32 NGYF=   32 NGZF=   32
   ions per type =               1   1
   NGX,Y,Z   is equivalent  to a cutoff of   6.53,  6.53,  6.53 a.u.
   NGXF,Y,Z  is equivalent  to a cutoff of  13.05, 13.05, 13.05 a.u.

 SYSTEM =  unknown system                          
 POSCAR =  Cs1 Cl1                                 

 Startparameter for this run:
   NWRITE =      2    write-flag & timer
   PREC   = normal    normal or accurate (medium, high low for compatibility)
   ISTART =      0    job   : 0-new  1-cont  2-samecut
   ICHARG =      2    charge: 1-file 2-atom 10-const
   ISPIN  =      1    spin polarized calculation?
   LNONCOLLINEAR =      F non collinear calculations
   LSORBIT =      F    spin-orbit coupling
   INIWAV =      1    electr: 0-lowe 1-rand  2-diag
   LASPH  =      T    aspherical Exc in radial PAW
 Electronic Relaxation 1
   ENCUT  =  262.5 eV  19.29 Ry    4.39 a.u.   5.38  5.38  5.38*2*pi/ulx,y,z
   ENINI  =  262.5     initial cutoff
   ENAUG  =  407.9 eV  augmentation charge cutoff
   NELM   =    100;   NELMIN=  2; NELMDL= -5     # of ELM steps 
   EDIFF  = 0.1E-05   stopping-criterion for ELM
   LREAL  =      F    real-space projection
   NLSPLINE    = F    spline interpolate recip. space projectors
   LCOMPAT=      F    compatible to vasp.4.4
   GGA_COMPAT  = T    GGA compatible to vasp.4.4-vasp.4.6
   LMAXPAW     = -100 max onsite density
   LMAXMIX     =    2 max onsite mixed and CHGCAR
   VOSKOWN=      0    Vosko Wilk Nusair interpolation
   ROPT   =    0.00000   0.00000
 Ionic relaxation
   EDIFFG = 0.1E-04   stopping-criterion for IOM
   NSW    =      1    number of steps for IOM
   NBLOCK =      1;   KBLOCK =      1    inner block; outer block 
   IBRION =      8    ionic relax: 0-MD 1-quasi-New 2-CG
   NFREE  =      0    steps in history (QN), initial steepest desc. (CG)
   ISIF   =      0    stress and relaxation
   IWAVPR =     11    prediction:  0-non 1-charg 2-wave 3-comb
   ISYM   =      2    0-nonsym 1-usesym 2-fastsym
   LCORR  =      T    Harris-Foulkes like correction to forces

   POTIM  = 0.5000    time-step for ionic-motion
   TEIN   =    0.0    initial temperature
   TEBEG  =    0.0;   TEEND  =   0.0 temperature during run
   SMASS  =  -3.00    Nose mass-parameter (am)
   estimated Nose-frequenzy (Omega)   =  0.10E-29 period in steps = 0.13E+47 mass=  -0.380E-27a.u.
   SCALEE = 1.0000    scale energy and forces
   NPACO  =    256;   APACO  = 10.0  distance and # of slots for P.C.
   PSTRESS=    0.0 pullay stress

  Mass of Ions in am
   POMASS = 132.90 35.45
  Ionic Valenz
   ZVAL   =   9.00  7.00
  Atomic Wigner-Seitz radii
   RWIGS  =  -1.00 -1.00
  virtual crystal weights 
   VCA    =   1.00  1.00
   NELECT =      16.0000    total number of electrons
   NUPDOWN=      -1.0000    fix difference up-down

 DOS related values:
   EMIN   =  10.00;   EMAX   =-10.00  energy-range for DOS
   EFERMI =   0.00;   METHOD = LEGACY      
   ISMEAR =    -5;   SIGMA  =   0.10  broadening in eV -4-tet -1-fermi 0-gaus
   EFERMI_NEDOS =   21; number of points for ismear=-14 and -15

 Electronic relaxation 2 (details)
   IALGO  =     38    algorithm
   LDIAG  =      T    sub-space diagonalisation (order eigenvalues)
   LSUBROT=      F    optimize rotation matrix (better conditioning)
   LROBUST=      F    robust break criterion during scf (extrapolated energy error)
   ISEARCH=      0    line search for conjugate gradient (0, 1=use gradient)
   TURBO    =      0    0=normal 1=particle mesh
   IRESTART =      0    0=no restart 2=restart with 2 vectors
   NREBOOT  =      0    no. of reboots
   NMIN     =      0    reboot dimension
   EREF     =   0.00    reference energy to select bands
   IMIX   =      4    mixing-type and parameters
     AMIX     =   0.40;   BMIX     =  1.00
     AMIX_MAG =   1.60;   BMIX_MAG =  1.00
     AMIN     =   0.10
     WC   =   100.;   INIMIX=   1;  MIXPRE=   1;  MAXMIX= -45

 Intra band minimization:
   WEIMIN = 0.0010     energy-eigenvalue tresh-hold
   EBREAK =  0.21E-07  absolut break condition
   DEPER  =   0.30     relativ break condition  

   TIME   =   0.40     timestep for ELM

  volume/ion in A,a.u.               =      33.85       228.40
  Fermi-wavevector in a.u.,A,eV,Ry     =   1.012215  1.912809 13.940244  1.024579
  Thomas-Fermi vector in A             =   2.145311
 
 Write flags
   LWAVE        =      F    write WAVECAR
   LDOWNSAMPLE  =      F    k-point downsampling of WAVECAR
   LCHARG       =      F    write CHGCAR
   LVTOT        =      F    write LOCPOT, total local potential
   LVHAR        =      F    write LOCPOT, Hartree potential only
   WRT_POTENTIAL= false  ! write potential to hdf5 file
   LELF         =      F    write electronic localiz. function (ELF)
   LORBIT       =     10    0 simple, 1 ext, 2 COOP (PROOUT), +10 PAW based schemes


 Python interface
   PLUGINS active      =      F    recompile with -DPLUGINS to activate
 
 Dipole corrections
   LMONO      =      F    monopole corrections only (constant potential shift)
   LDIPOL     =      F    correct potential (dipole corrections)
   IDIPOL     =      0    1-x, 2-y, 3-z, 4-all directions 
   EPSILON    =  1.0000000 bulk dielectric constant
   LVACPOTAV  =      F  vacuum potentials using an averaging scheme for the charge density
   VACPOTFLAT =  0.1000000 required flatness to determine vacuum potential
 
Coulomb truncation method
  LTRUNCATE          =      F  Coulomb kernel truncation to be used

 
 Exchange correlation treatment:
   GGA     = PS    functional components
   XC_C    = 1    coefficients multiplying the functional components
   LIBXC   =     F    Libxc                    
   VOSKOWN =     0    Vosko Wilk Nusair interpolation
   LHFCALC =     F    Hartree Fock is set to
   LHFONE  =     F    Hartree Fock one center treatment
   AEXX    =    0.0000 exact exchange contribution

 Parameters of functionals:
   PS:
     No parameter
 
 Van der Waals corrections
   IVDW    =     0    specifies the selected vdW correction

 Linear response parameters
   LEPSILON=     T    determine dielectric tensor
   LRPA    =     F    only Hartree local field effects (RPA)
   LNABLA  =     F    use nabla operator in PAW spheres
   LVEL    =     F    velocity operator in full k-point grid
   CSHIFT  =0.1000    complex shift for real part using Kramers Kronig
   OMEGAMAX=  -1.0    maximum frequency
   DEG_THRESHOLD= 0.2000000E-02 threshold for treating states as degnerate
   RTIME   =   -0.100 relaxation time in fs
  (WPLASMAI=    0.000 imaginary part of plasma frequency in eV, 0.658/RTIME)
   DFIELD  = 0.0000000 0.0000000 0.0000000 field for delta impulse in time
 
  Optional k-point grid parameters
   LKPOINTS_OPT  =     F    use optional k-point grid
   KPOINTS_OPT_MODE=     1    mode for optional k-point grid
 
 Orbital magnetization related:
   ORBITALMAG=     F  switch on orbital magnetization
   LCHIMAG   =     F  perturbation theory with respect to B field
   DQ        =  0.001000  dq finite difference perturbation B field
   LLRAUG    =     F  two centre corrections for induced B field
   LBONE     =     F  B-component reconstruction in AE one-centre
   LVGVCALC  =     T  calculate vGv susceptibility
   LVGVAPPL  =     F  apply vGv susceptibility instead of pGv for G=0

 Random number generation:
   RANDOM_GENERATOR = DEFAULT
   PCG_SEED         = not used


--------------------------------------------------------------------------------------------------------


 linear response using symmetry
 charge density and potential will be updated during run
 non-spin polarized calculation
 Variant of blocked Davidson
 Davidson routine will perform the subspace rotation
 perform sub-space diagonalisation
    after iterative eigenvector-optimisation
 modified Broyden-mixing scheme, WC =      100.0
 initial mixing is a Kerker type mixing with AMIX =  0.4000 and BMIX =      1.0000
 Hartree-type preconditioning will be used
 using additional bands             4
 reciprocal scheme for non local part
 use partial core corrections
 calculate Harris-corrections to forces 
   (improved forces if not selfconsistent)
 use gradient corrections 
 use of overlap-Matrix (Vanderbilt PP)
 Fermi weights with tetrahedron method with Bloechl corrections


--------------------------------------------------------------------------------------------------------


  energy-cutoff  :      262.47
  volume of cell :       67.69
      direct lattice vectors                 reciprocal lattice vectors
     4.075448639  0.000000000  0.000000000     0.245371759  0.000000000  0.000000000
     0.000000000  4.075448639  0.000000000     0.000000000  0.245371759  0.000000000
     0.000000000  0.000000000  4.075448639     0.000000000  0.000000000  0.245371759

  length of vectors
     4.075448639  4.075448639  4.075448639     0.245371759  0.245371759  0.245371759


 
 k-points in units of 2pi/SCALE and weight: Num irrep kpoints: 20                   
   0.01533573  0.01533573  0.01533573       0.016
   0.04600720  0.01533573  0.01533573       0.047
   0.07667867  0.01533573  0.01533573       0.047
   0.10735014  0.01533573  0.01533573       0.047
   0.04600720  0.04600720  0.01533573       0.047
   0.07667867  0.04600720  0.01533573       0.094
   0.10735014  0.04600720  0.01533573       0.094
   0.07667867  0.07667867  0.01533573       0.047
   0.10735014  0.07667867  0.01533573       0.094
   0.10735014  0.10735014  0.01533573       0.047
   0.04600720  0.04600720  0.04600720       0.016
   0.07667867  0.04600720  0.04600720       0.047
   0.10735014  0.04600720  0.04600720       0.047
   0.07667867  0.07667867  0.04600720       0.047
   0.10735014  0.07667867  0.04600720       0.094
   0.10735014  0.10735014  0.04600720       0.047
   0.07667867  0.07667867  0.07667867       0.016
   0.10735014  0.07667867  0.07667867       0.047
   0.10735014  0.10735014  0.07667867       0.047
   0.10735014  0.10735014  0.10735014       0.016
 
 k-points in reciprocal lattice and weights: Num irrep kpoints: 20                   
   0.06250000  0.06250000  0.06250000       0.016
   0.18750000  0.06250000  0.06250000       0.047
   0.31250000  0.06250000  0.06250000       0.047
   0.43750000  0.06250000  0.06250000       0.047
   0.18750000  0.18750000  0.06250000       0.047
   0.31250000  0.18750000  0.06250000       0.094
   0.43750000  0.18750000  0.06250000       0.094
   0.31250000  0.31250000  0.06250000       0.047
   0.43750000  0.31250000  0.06250000       0.094
   0.43750000  0.43750000  0.06250000       0.047
   0.18750000  0.18750000  0.18750000       0.016
   0.31250000  0.18750000  0.18750000       0.047
   0.43750000  0.18750000  0.18750000       0.047
   0.31250000  0.31250000  0.18750000       0.047
   0.43750000  0.31250000  0.18750000       0.094
   0.43750000  0.43750000  0.18750000       0.047
   0.31250000  0.31250000  0.31250000       0.016
   0.43750000  0.31250000  0.31250000       0.047
   0.43750000  0.43750000  0.31250000       0.047
   0.43750000  0.43750000  0.43750000       0.016
 
 position of ions in fractional coordinates (direct lattice) 
   0.00000000  0.00000000  0.00000000
   0.50000000  0.50000000  0.50000000
 
 position of ions in cartesian coordinates  (Angst):
   0.00000000  0.00000000  0.00000000
   2.03772432  2.03772432  2.03772432
 


--------------------------------------------------------------------------------------------------------


 k-point     1 :   0.0625 0.0625 0.0625  plane waves:     655
 k-point     2 :   0.1875 0.0625 0.0625  plane waves:     668
 k-point     3 :   0.3125 0.0625 0.0625  plane waves:     658
 k-point     4 :   0.4375 0.0625 0.0625  plane waves:     651
 k-point     5 :   0.1875 0.1875 0.0625  plane waves:     666
 k-point     6 :   0.3125 0.1875 0.0625  plane waves:     653
 k-point     7 :   0.4375 0.1875 0.0625  plane waves:     650
 k-point     8 :   0.3125 0.3125 0.0625  plane waves:     653
 k-point     9 :   0.4375 0.3125 0.0625  plane waves:     653
 k-point    10 :   0.4375 0.4375 0.0625  plane waves:     654
 k-point    11 :   0.1875 0.1875 0.1875  plane waves:     663
 k-point    12 :   0.3125 0.1875 0.1875  plane waves:     655
 k-point    13 :   0.4375 0.1875 0.1875  plane waves:     650
 k-point    14 :   0.3125 0.3125 0.1875  plane waves:     657
 k-point    15 :   0.4375 0.3125 0.1875  plane waves:     652
 k-point    16 :   0.4375 0.4375 0.1875  plane waves:     647
 k-point    17 :   0.3125 0.3125 0.3125  plane waves:     645
 k-point    18 :   0.4375 0.3125 0.3125  plane waves:     648
 k-point    19 :   0.4375 0.4375 0.3125  plane waves:     657
 k-point    20 :   0.4375 0.4375 0.4375  plane waves:     654

 maximum and minimum number of plane-waves per node :       668      645

 maximum number of plane-waves:       668
 maximum index in each direction: 
   IXMAX=    5   IYMAX=    5   IZMAX=    5
   IXMIN=   -5   IYMIN=   -5   IZMIN=   -5


 serial   3D FFT for wavefunctions
 parallel 3D FFT for charge:
    minimum data exchange during FFTs selected (reduces bandwidth)


 total amount of memory used by VASP MPI-rank0    38729. kBytes
=======================================================================

   base                                    :      30000. kBytes
   nonl-proj                               :       2800. kBytes
   fftplans                                :       1184. kBytes
   grid                                    :       2084. kBytes
   one-center                              :         16. kBytes
   wavefun                                 :       2645. kBytes
 
     INWAV:  cpu time      0.0001: real time      0.0002
 Broyden mixing: mesh for mixing (old mesh)
   NGX = 11   NGY = 11   NGZ = 11
  (NGX  = 32   NGY  = 32   NGZ  = 32)
  gives a total of   1331 points

 initial charge density was supplied:
 charge density of overlapping atoms calculated
 number of electron      16.0000000 magnetization 
 keeping initial charge density in first step


--------------------------------------------------------------------------------------------------------


 Maximum index for augmentation-charges          2945 (set IRDMAX)


--------------------------------------------------------------------------------------------------------


 First call to EWALD:  gamma=   0.435
 Maximum number of real-space cells   3x   3x   3
 Maximum number of reciprocal cells   3x   3x   3

    FEWALD:  cpu time      0.0008: real time      0.0008


--------------------------------------- Ionic step        1  -------------------------------------------




--------------------------------------- Iteration      1(   1)  ---------------------------------------


    POTLOK:  cpu time      0.0230: real time      0.0232
    SETDIJ:  cpu time      0.0540: real time      0.0543
     EDDAV:  cpu time      0.2998: real time      0.3008
 BZINTS: Fermi energy:    8.705666;   16.000000 electrons
         Band energy:-0.364315E+02;  BLOECHL correction:   -0.218673
       DOS:  cpu time      0.0148: real time      0.0149
    --------------------------------------------
      LOOP:  cpu time      0.3917: real time      0.3932

 eigenvalue-minimisations  :   480
 total energy-change (2. order) : 0.6461523E+02  (-0.4800703E+03)
 number of electron      16.0000000 magnetization 
 augmentation part       16.0000000 magnetization 

 Free energy of the ion-electron system (eV)
  ---------------------------------------------------
  alpha Z        PSCENC =        54.34366693
  Ewald energy   TEWEN  =      -830.13603332
  -Hartree energ DENC   =      -126.29286671
  -exchange      EXHF   =         0.00000000
  -V(xc)+E(xc)   XCENC  =        31.46207719
  PAW double counting   =       749.47380581     -742.20009777
  entropy T*S    EENTRO =         0.00000000
  eigenvalues    EBANDS =       -36.43153819
  atomic energy  EATOM  =       964.39621982
  Solvation  Ediel_sol  =         0.00000000
  ---------------------------------------------------
  free energy    TOTEN  =        64.61523376 eV

  energy without entropy =       64.61523376  energy(sigma->0) =       64.61523376


--------------------------------------------------------------------------------------------------------




--------------------------------------- Iteration      1(   2)  ---------------------------------------


     EDDAV:  cpu time      0.1448: real time      0.1455
 BZINTS: Fermi energy:   -0.206878;   16.000000 electrons
         Band energy:-0.104371E+03;  BLOECHL correction:    0.000000
       DOS:  cpu time      0.0035: real time      0.0035
    --------------------------------------------
      LOOP:  cpu time      0.1483: real time      0.1490

 eigenvalue-minimisations  :   708
 total energy-change (2. order) :-0.6793917E+02  (-0.6459973E+02)
 number of electron      16.0000000 magnetization 
 augmentation part       16.0000000 magnetization 

 Free energy of the ion-electron system (eV)
  ---------------------------------------------------
  alpha Z        PSCENC =        54.34366693
  Ewald energy   TEWEN  =      -830.13603332
  -Hartree energ DENC   =      -126.29286671
  -exchange      EXHF   =         0.00000000
  -V(xc)+E(xc)   XCENC  =        31.46207719
  PAW double counting   =       749.47380581     -742.20009777
  entropy T*S    EENTRO =         0.00000000
  eigenvalues    EBANDS =      -104.37070396
  atomic energy  EATOM  =       964.39621982
  Solvation  Ediel_sol  =         0.00000000
  ---------------------------------------------------
  free energy    TOTEN  =        -3.32393201 eV

  energy without entropy =       -3.32393201  energy(sigma->0) =       -3.32393201


--------------------------------------------------------------------------------------------------------




--------------------------------------- Iteration      1(   3)  ---------------------------------------


     EDDAV:  cpu time      0.1279: real time      0.1286
 BZINTS: Fermi energy:   -1.210004;   16.000000 electrons
         Band energy:-0.108212E+03;  BLOECHL correction:    0.000000
       DOS:  cpu time      0.0029: real time      0.0029
    --------------------------------------------
      LOOP:  cpu time      0.1309: real time      0.1315

 eigenvalue-minimisations  :   608
 total energy-change (2. order) :-0.3841434E+01  (-0.3826466E+01)
 number of electron      16.0000000 magnetization 
 augmentation part       16.0000000 magnetization 

 Free energy of the ion-electron system (eV)
  ---------------------------------------------------
  alpha Z        PSCENC =        54.34366693
  Ewald energy   TEWEN  =      -830.13603332
  -Hartree energ DENC   =      -126.29286671
  -exchange      EXHF   =         0.00000000
  -V(xc)+E(xc)   XCENC  =        31.46207719
  PAW double counting   =       749.47380581     -742.20009777
  entropy T*S    EENTRO =         0.00000000
  eigenvalues    EBANDS =      -108.21213822
  atomic energy  EATOM  =       964.39621982
  Solvation  Ediel_sol  =         0.00000000
  ---------------------------------------------------
  free energy    TOTEN  =        -7.16536627 eV

  energy without entropy =       -7.16536627  energy(sigma->0) =       -7.16536627


--------------------------------------------------------------------------------------------------------




--------------------------------------- Iteration      1(   4)  ---------------------------------------


     EDDAV:  cpu time      0.1213: real time      0.1219
 BZINTS: Fermi energy:   -1.224048;   16.000000 electrons
         Band energy:-0.108244E+03;  BLOECHL correction:    0.000000
       DOS:  cpu time      0.0029: real time      0.0029
    --------------------------------------------
      LOOP:  cpu time      0.1242: real time      0.1248

 eigenvalue-minimisations  :   564
 total energy-change (2. order) :-0.3169446E-01  (-0.3168657E-01)
 number of electron      16.0000000 magnetization 
 augmentation part       16.0000000 magnetization 

 Free energy of the ion-electron system (eV)
  ---------------------------------------------------
  alpha Z        PSCENC =        54.34366693
  Ewald energy   TEWEN  =      -830.13603332
  -Hartree energ DENC   =      -126.29286671
  -exchange      EXHF   =         0.00000000
  -V(xc)+E(xc)   XCENC  =        31.46207719
  PAW double counting   =       749.47380581     -742.20009777
  entropy T*S    EENTRO =         0.00000000
  eigenvalues    EBANDS =      -108.24383268
  atomic energy  EATOM  =       964.39621982
  Solvation  Ediel_sol  =         0.00000000
  ---------------------------------------------------
  free energy    TOTEN  =        -7.19706073 eV

  energy without entropy =       -7.19706073  energy(sigma->0) =       -7.19706073


--------------------------------------------------------------------------------------------------------




--------------------------------------- Iteration      1(   5)  ---------------------------------------


     EDDAV:  cpu time      0.1330: real time      0.1337
 BZINTS: Fermi energy:   -1.224194;   16.000000 electrons
         Band energy:-0.108244E+03;  BLOECHL correction:    0.000000
       DOS:  cpu time      0.0029: real time      0.0030
    CHARGE:  cpu time      0.1992: real time      0.2196
    MIXING:  cpu time      0.0007: real time      0.0008
    --------------------------------------------
      LOOP:  cpu time      0.3359: real time      0.3571

 eigenvalue-minimisations  :   616
 total energy-change (2. order) :-0.3871121E-03  (-0.3870962E-03)
 number of electron      16.0000002 magnetization 
 augmentation part       -2.9474449 magnetization 

 Broyden mixing:
  rms(total) = 0.25568E+00    rms(broyden)= 0.25561E+00
  rms(prec ) = 0.72559E+00
  weight for this iteration     100.00

 Free energy of the ion-electron system (eV)
  ---------------------------------------------------
  alpha Z        PSCENC =        54.34366693
  Ewald energy   TEWEN  =      -830.13603332
  -Hartree energ DENC   =      -126.29286671
  -exchange      EXHF   =         0.00000000
  -V(xc)+E(xc)   XCENC  =        31.46207719
  PAW double counting   =       749.47380581     -742.20009777
  entropy T*S    EENTRO =         0.00000000
  eigenvalues    EBANDS =      -108.24421979
  atomic energy  EATOM  =       964.39621982
  Solvation  Ediel_sol  =         0.00000000
  ---------------------------------------------------
  free energy    TOTEN  =        -7.19744785 eV

  energy without entropy =       -7.19744785  energy(sigma->0) =       -7.19744785


--------------------------------------------------------------------------------------------------------




--------------------------------------- Iteration      1(   6)  ---------------------------------------


    POTLOK:  cpu time      0.0036: real time      0.0039
    SETDIJ:  cpu time      0.0444: real time      0.0446
     EDDAV:  cpu time      0.1204: real time      0.1208
 BZINTS: Fermi energy:   -0.492709;   16.000000 electrons
         Band energy:-0.104845E+03;  BLOECHL correction:    0.000000
       DOS:  cpu time      0.0029: real time      0.0029
    CHARGE:  cpu time      0.0146: real time      0.0147
    MIXING:  cpu time      0.0008: real time      0.0008
    --------------------------------------------
      LOOP:  cpu time      0.1868: real time      0.1877

 eigenvalue-minimisations  :   556
 total energy-change (2. order) : 0.3029442E+00  (-0.5160633E-01)
 number of electron      16.0000004 magnetization 
 augmentation part       -2.9422041 magnetization 

 Broyden mixing:
  rms(total) = 0.20287E+00    rms(broyden)= 0.20281E+00
  rms(prec ) = 0.34800E+00
  weight for this iteration     100.00

 eigenvalues of (default mixing * dielectric matrix)
  average eigenvalue GAMMA=   0.9370
  0.9370

 Free energy of the ion-electron system (eV)
  ---------------------------------------------------
  alpha Z        PSCENC =        54.34366693
  Ewald energy   TEWEN  =      -830.13603332
  -Hartree energ DENC   =      -129.55009558
  -exchange      EXHF   =         0.00000000
  -V(xc)+E(xc)   XCENC  =        31.75519374
  PAW double counting   =       804.08502280     -796.94329492
  entropy T*S    EENTRO =         0.00000000
  eigenvalues    EBANDS =      -104.84518311
  atomic energy  EATOM  =       964.39621982
  Solvation  Ediel_sol  =         0.00000000
  ---------------------------------------------------
  free energy    TOTEN  =        -6.89450364 eV

  energy without entropy =       -6.89450364  energy(sigma->0) =       -6.89450364


--------------------------------------------------------------------------------------------------------




--------------------------------------- Iteration      1(   7)  ---------------------------------------


    POTLOK:  cpu time      0.0035: real time      0.0037
    SETDIJ:  cpu time      0.0418: real time      0.0419
     EDDAV:  cpu time      0.1305: real time      0.1309
 BZINTS: Fermi energy:   -0.136800;   16.000000 electrons
         Band energy:-0.103791E+03;  BLOECHL correction:    0.000000
       DOS:  cpu time      0.0029: real time      0.0029
    CHARGE:  cpu time      0.0145: real time      0.0146
    MIXING:  cpu time      0.0007: real time      0.0007
    --------------------------------------------
      LOOP:  cpu time      0.1939: real time      0.1946

 eigenvalue-minimisations  :   632
 total energy-change (2. order) : 0.3923044E-01  (-0.1665317E-01)
 number of electron      16.0000005 magnetization 
 augmentation part       -2.9492130 magnetization 

 Broyden mixing:
  rms(total) = 0.10419E+00    rms(broyden)= 0.10417E+00
  rms(prec ) = 0.15164E+00
  weight for this iteration     100.00

 eigenvalues of (default mixing * dielectric matrix)
  average eigenvalue GAMMA=   1.6407
  1.6407  1.6407

 Free energy of the ion-electron system (eV)
  ---------------------------------------------------
  alpha Z        PSCENC =        54.34366693
  Ewald energy   TEWEN  =      -830.13603332
  -Hartree energ DENC   =      -130.59874947
  -exchange      EXHF   =         0.00000000
  -V(xc)+E(xc)   XCENC  =        31.87591639
  PAW double counting   =       869.25871449     -862.20362914
  entropy T*S    EENTRO =         0.00000000
  eigenvalues    EBANDS =      -103.79137890
  atomic energy  EATOM  =       964.39621982
  Solvation  Ediel_sol  =         0.00000000
  ---------------------------------------------------
  free energy    TOTEN  =        -6.85527320 eV

  energy without entropy =       -6.85527320  energy(sigma->0) =       -6.85527320


--------------------------------------------------------------------------------------------------------




--------------------------------------- Iteration      1(   8)  ---------------------------------------


    POTLOK:  cpu time      0.0036: real time      0.0038
    SETDIJ:  cpu time      0.0410: real time      0.0411
     EDDAV:  cpu time      0.1332: real time      0.1337
 BZINTS: Fermi energy:   -0.141541;   16.000000 electrons
         Band energy:-0.103979E+03;  BLOECHL correction:    0.000000
       DOS:  cpu time      0.0029: real time      0.0029
    CHARGE:  cpu time      0.0144: real time      0.0145
    MIXING:  cpu time      0.0007: real time      0.0007
    --------------------------------------------
      LOOP:  cpu time      0.1959: real time      0.1967

 eigenvalue-minimisations  :   616
 total energy-change (2. order) : 0.1313528E-02  (-0.1127357E-02)
 number of electron      16.0000005 magnetization 
 augmentation part       -2.9537244 magnetization 

 Broyden mixing:
  rms(total) = 0.13263E-01    rms(broyden)= 0.13263E-01
  rms(prec ) = 0.37890E-01
  weight for this iteration     100.00

 eigenvalues of (default mixing * dielectric matrix)
  average eigenvalue GAMMA=   1.5340
  2.0965  1.0279  1.4775

 Free energy of the ion-electron system (eV)
  ---------------------------------------------------
  alpha Z        PSCENC =        54.34366693
  Ewald energy   TEWEN  =      -830.13603332
  -Hartree energ DENC   =      -130.35011016
  -exchange      EXHF   =         0.00000000
  -V(xc)+E(xc)   XCENC  =        31.88692957
  PAW double counting   =       909.42829736     -902.44415020
  entropy T*S    EENTRO =         0.00000000
  eigenvalues    EBANDS =      -103.97877967
  atomic energy  EATOM  =       964.39621982
  Solvation  Ediel_sol  =         0.00000000
  ---------------------------------------------------
  free energy    TOTEN  =        -6.85395967 eV

  energy without entropy =       -6.85395967  energy(sigma->0) =       -6.85395967


--------------------------------------------------------------------------------------------------------




--------------------------------------- Iteration      1(   9)  ---------------------------------------


    POTLOK:  cpu time      0.0036: real time      0.0038
    SETDIJ:  cpu time      0.0407: real time      0.0408
     EDDAV:  cpu time      0.1280: real time      0.1284
 BZINTS: Fermi energy:   -0.115898;   16.000000 electrons
         Band energy:-0.103755E+03;  BLOECHL correction:    0.000000
       DOS:  cpu time      0.0026: real time      0.0026
    CHARGE:  cpu time      0.0145: real time      0.0146
    MIXING:  cpu time      0.0007: real time      0.0007
    --------------------------------------------
      LOOP:  cpu time      0.1901: real time      0.1909

 eigenvalue-minimisations  :   628
 total energy-change (2. order) :-0.1424905E-03  (-0.2141325E-03)
 number of electron      16.0000005 magnetization 
 augmentation part       -2.9537803 magnetization 

 Broyden mixing:
  rms(total) = 0.11536E-01    rms(broyden)= 0.11535E-01
  rms(prec ) = 0.14597E-01
  weight for this iteration     100.00

 eigenvalues of (default mixing * dielectric matrix)
  average eigenvalue GAMMA=   1.7359
  2.5226  2.1479  0.9554  1.3176

 Free energy of the ion-electron system (eV)
  ---------------------------------------------------
  alpha Z        PSCENC =        54.34366693
  Ewald energy   TEWEN  =      -830.13603332
  -Hartree energ DENC   =      -130.56565133
  -exchange      EXHF   =         0.00000000
  -V(xc)+E(xc)   XCENC  =        31.91229446
  PAW double counting   =       918.63130530     -911.68059729
  entropy T*S    EENTRO =         0.00000000
  eigenvalues    EBANDS =      -103.75530674
  atomic energy  EATOM  =       964.39621982
  Solvation  Ediel_sol  =         0.00000000
  ---------------------------------------------------
  free energy    TOTEN  =        -6.85410216 eV

  energy without entropy =       -6.85410216  energy(sigma->0) =       -6.85410216


--------------------------------------------------------------------------------------------------------




--------------------------------------- Iteration      1(  10)  ---------------------------------------


    POTLOK:  cpu time      0.0036: real time      0.0038
    SETDIJ:  cpu time      0.0407: real time      0.0409
     EDDAV:  cpu time      0.1261: real time      0.1265
 BZINTS: Fermi energy:   -0.110152;   16.000000 electrons
         Band energy:-0.103731E+03;  BLOECHL correction:    0.000000
       DOS:  cpu time      0.0026: real time      0.0026
    CHARGE:  cpu time      0.0144: real time      0.0148
    MIXING:  cpu time      0.0007: real time      0.0007
    --------------------------------------------
      LOOP:  cpu time      0.1880: real time      0.1893

 eigenvalue-minimisations  :   584
 total energy-change (2. order) :-0.8809246E-04  (-0.1530354E-04)
 number of electron      16.0000005 magnetization 
 augmentation part       -2.9535970 magnetization 

 Broyden mixing:
  rms(total) = 0.22659E-02    rms(broyden)= 0.22658E-02
  rms(prec ) = 0.36149E-02
  weight for this iteration     100.00

[...]
      2       0.0020      0.00000
      3      -0.0003      0.00000
      4      -0.0003      0.00000
      5      -0.0003      0.00000
      6       0.0015      0.00000
      7       0.0017      0.00000
      8       0.0017      0.00000
      9       0.0002      0.00000
     10       0.0003      0.00000
     11       0.0003      0.00000
     12      -0.0135      0.00000

 k-point  22 :       0.0625    0.3125    0.0625
  band No.  band energies     occupation 
      1      -0.0003      0.00000
      2       0.0020      0.00000
      3      -0.0003      0.00000
      4      -0.0003      0.00000
      5      -0.0003      0.00000
      6       0.0014      0.00000
      7       0.0017      0.00000
      8       0.0017      0.00000
      9       0.0001      0.00000
     10       0.0004      0.00000
     11       0.0004      0.00000
     12      -0.0002      0.00000

 k-point  23 :       0.0625    0.4375    0.0625
  band No.  band energies     occupation 
      1      -0.0003      0.00000
      2       0.0020      0.00000
      3      -0.0003      0.00000
      4      -0.0003      0.00000
      5      -0.0003      0.00000
      6       0.0013      0.00000
      7       0.0017      0.00000
      8       0.0017      0.00000
      9      -0.0001      0.00000
     10       0.0004      0.00000
     11       0.0005      0.00000
     12       0.0007      0.00000

 k-point  24 :       0.0625    0.1875    0.1875
  band No.  band energies     occupation 
      1      -0.0003      0.00000
      2       0.0020      0.00000
      3      -0.0003      0.00000
      4      -0.0003      0.00000
      5      -0.0003      0.00000
      6       0.0015      0.00000
      7       0.0015      0.00000
      8       0.0019      0.00000
      9       0.0002      0.00000
     10       0.0007      0.00000
     11      -0.0001      0.00000
     12       0.0002      0.00000

 k-point  25 :       0.0625    0.3125    0.1875
  band No.  band energies     occupation 
      1      -0.0003      0.00000
      2       0.0020      0.00000
      3      -0.0003      0.00000
      4      -0.0003      0.00000
      5      -0.0003      0.00000
      6       0.0014      0.00000
      7       0.0016      0.00000
      8       0.0018      0.00000
      9       0.0001      0.00000
     10       0.0006      0.00000
     11       0.0001      0.00000
     12       0.0001      0.00000

 k-point  26 :       0.1875    0.0625    0.3125
  band No.  band energies     occupation 
      1      -0.0003      0.00000
      2       0.0020      0.00000
      3      -0.0003      0.00000
      4      -0.0002      0.00000
      5      -0.0004      0.00000
      6       0.0015      0.00000
      7       0.0018      0.00000
      8       0.0016      0.00000
      9       0.0000      0.00000
     10       0.0003      0.00000
     11       0.0002      0.00000
     12       0.0002      0.00000

 k-point  27 :       0.0625    0.4375    0.1875
  band No.  band energies     occupation 
      1      -0.0003      0.00000
      2       0.0020      0.00000
      3      -0.0003      0.00000
      4      -0.0003      0.00000
      5      -0.0003      0.00000
      6       0.0013      0.00000
      7       0.0016      0.00000
      8       0.0018      0.00000
      9       0.0000      0.00000
     10       0.0007      0.00000
     11       0.0002      0.00000
     12       0.0002      0.00000

 k-point  28 :       0.1875    0.0625    0.4375
  band No.  band energies     occupation 
      1      -0.0003      0.00000
      2       0.0020      0.00000
      3      -0.0003      0.00000
      4      -0.0002      0.00000
      5      -0.0004      0.00000
      6       0.0013      0.00000
      7       0.0018      0.00000
      8       0.0017      0.00000
      9      -0.0001      0.00000
     10       0.0003      0.00000
     11       0.0003      0.00000
     12       0.0004      0.00000

 k-point  29 :       0.0625    0.3125    0.3125
  band No.  band energies     occupation 
      1      -0.0003      0.00000
      2       0.0021      0.00000
      3      -0.0003      0.00000
      4      -0.0003      0.00000
      5      -0.0003      0.00000
      6       0.0014      0.00000
      7       0.0014      0.00000
      8       0.0019      0.00000
      9       0.0002      0.00000
     10       0.0008      0.00000
     11       0.0000      0.00000
     12      -0.0000      0.00000

 k-point  30 :       0.0625    0.4375    0.3125
  band No.  band energies     occupation 
      1      -0.0003      0.00000
      2       0.0021      0.00000
      3      -0.0003      0.00000
      4      -0.0003      0.00000
      5      -0.0003      0.00000
      6       0.0014      0.00000
      7       0.0015      0.00000
      8       0.0019      0.00000
      9       0.0001      0.00000
     10       0.0008      0.00000
     11       0.0001      0.00000
     12       0.0001      0.00000

 k-point  31 :       0.3125    0.0625    0.4375
  band No.  band energies     occupation 
      1      -0.0004      0.00000
      2       0.0021      0.00000
      3      -0.0003      0.00000
      4      -0.0002      0.00000
      5      -0.0004      0.00000
      6       0.0014      0.00000
      7       0.0018      0.00000
      8       0.0016      0.00000
      9      -0.0000      0.00000
     10       0.0002      0.00000
     11       0.0001      0.00000
     12       0.0001      0.00000

 k-point  32 :       0.0625    0.4375    0.4375
  band No.  band energies     occupation 
      1      -0.0003      0.00000
      2       0.0021      0.00000
      3      -0.0003      0.00000
      4      -0.0003      0.00000
      5      -0.0003      0.00000
      6       0.0014      0.00000
      7       0.0014      0.00000
      8       0.0020      0.00000
      9       0.0002      0.00000
     10       0.0007      0.00000
     11       0.0000      0.00000
     12       0.0000      0.00000

 k-point  33 :       0.1875    0.3125    0.1875
  band No.  band energies     occupation 
      1      -0.0003      0.00000
      2       0.0021      0.00000
      3      -0.0003      0.00000
      4      -0.0003      0.00000
      5      -0.0003      0.00000
      6       0.0014      0.00000
      7       0.0017      0.00000
      8       0.0017      0.00000
      9       0.0001      0.00000
     10       0.0004      0.00000
     11       0.0002      0.00000
     12       0.0004      0.00000

 k-point  34 :       0.1875    0.4375    0.1875
  band No.  band energies     occupation 
      1      -0.0003      0.00000
      2       0.0021      0.00000
      3      -0.0003      0.00000
      4      -0.0003      0.00000
      5      -0.0003      0.00000
      6       0.0013      0.00000
      7       0.0017      0.00000
      8       0.0017      0.00000
      9      -0.0001      0.00000
     10       0.0003      0.00000
     11       0.0002      0.00000
     12       0.0007      0.00000

 k-point  35 :       0.1875    0.3125    0.3125
  band No.  band energies     occupation 
      1      -0.0003      0.00000
      2       0.0021      0.00000
      3      -0.0003      0.00000
      4      -0.0003      0.00000
      5      -0.0002      0.00000
      6       0.0015      0.00000
      7       0.0014      0.00000
      8       0.0018      0.00000
      9       0.0002      0.00000
     10       0.0005      0.00000
     11       0.0001      0.00000
     12       0.0003      0.00000

 k-point  36 :       0.1875    0.4375    0.3125
  band No.  band energies     occupation 
      1      -0.0004      0.00000
      2       0.0021      0.00000
      3      -0.0003      0.00000
      4      -0.0003      0.00000
      5      -0.0003      0.00000
      6       0.0015      0.00000
      7       0.0015      0.00000
      8       0.0018      0.00000
      9       0.0006      0.00000
     10       0.0001      0.00000
     11       0.0001      0.00000
     12       0.0004      0.00000

 k-point  37 :       0.3125    0.1875    0.4375
  band No.  band energies     occupation 
      1      -0.0004      0.00000
      2       0.0021      0.00000
      3      -0.0003      0.00000
      4      -0.0002      0.00000
      5      -0.0004      0.00000
      6       0.0015      0.00000
      7       0.0016      0.00000
      8       0.0017      0.00000
      9       0.0003      0.00000
     10      -0.0000      0.00000
     11       0.0001      0.00000
     12       0.0005      0.00000

 k-point  38 :       0.1875    0.4375    0.4375
  band No.  band energies     occupation 
      1      -0.0004      0.00000
      2       0.0021      0.00000
      3      -0.0003      0.00000
      4      -0.0003      0.00000
      5      -0.0003      0.00000
      6       0.0015      0.00000
      7       0.0014      0.00000
      8       0.0018      0.00000
      9       0.0008      0.00000
     10       0.0001      0.00000
     11       0.0001      0.00000
     12       0.0002      0.00000

 k-point  39 :       0.3125    0.4375    0.3125
  band No.  band energies     occupation 
      1      -0.0004      0.00000
      2       0.0021      0.00000
      3      -0.0003      0.00000
      4      -0.0003      0.00000
      5      -0.0003      0.00000
      6       0.0016      0.00000
      7       0.0014      0.00000
      8       0.0016      0.00000
      9       0.0004      0.00000
     10       0.0002      0.00000
     11       0.0005      0.00000
     12       0.0001      0.00000

 k-point  40 :       0.3125    0.4375    0.4375
  band No.  band energies     occupation 
      1      -0.0004      0.00000
      2       0.0021      0.00000
      3      -0.0003      0.00000
      4      -0.0003      0.00000
      5      -0.0002      0.00000
      6       0.0015      0.00000
      7       0.0014      0.00000
      8       0.0017      0.00000
      9       0.0006      0.00000
     10       0.0004      0.00000
     11       0.0003      0.00000
     12       0.0002      0.00000


------------------------ aborting loop because EDIFF is reached ----------------------------------------


    FORLOC:  cpu time      0.0002: real time      0.0002
    FORNL :  cpu time      0.0244: real time      0.0245
    FORCOR:  cpu time      0.0485: real time      0.0486
    OFIELD:  cpu time      0.0009: real time      0.0009
    FORLOC:  cpu time      0.0002: real time      0.0002
    FORNL :  cpu time      0.0245: real time      0.0246
    FORCOR:  cpu time      0.0485: real time      0.0487
    OFIELD:  cpu time      0.0008: real time      0.0008
    FORLOC:  cpu time      0.0002: real time      0.0002
    FORNL :  cpu time      0.0244: real time      0.0245
    FORCOR:  cpu time      0.0486: real time      0.0487
    OFIELD:  cpu time      0.0009: real time      0.0009
    FORLOC:  cpu time      0.0002: real time      0.0002
    FORNL :  cpu time      0.0244: real time      0.0244
    FORCOR:  cpu time      0.0487: real time      0.0488
    OFIELD:  cpu time      0.0009: real time      0.0009


 POSITION                   FORCE-CONSTANT FOR ION    2 DIRECTION 1 (eV/Angst/Angst)
 -----------------------------------------------------------------------------------
      0.00000      0.00000      0.00000         0.818999     -0.000000     -0.000000
      2.03772      2.03772      2.03772        -0.818999      0.000000      0.000000
 -----------------------------------------------------------------------------------
    total drift:                                0.000000      0.000000      0.000000


 BORN EFFECTIVE CHARGE FOR ION    2 DIRECTION 1 :  -1.303   0.000   0.000
                   rigid augmentation           :   0.947   0.000   0.000
                   ionic contribution           :   7.000   0.000   0.000
                   Berry contribution           :  -9.250   0.000   0.000


--------------------------------------------------------------------------------------------------------


  LATTYP: Found a simple cubic cell.
 ALAT       =     4.0754486391
  
  Lattice vectors:
  
 A1 = (   4.0754486391,   0.0000000000,   0.0000000000)
 A2 = (   0.0000000000,   4.0754486391,   0.0000000000)
 A3 = (   0.0000000000,   0.0000000000,   4.0754486391)


Analysis of symmetry for initial positions (statically):
=====================================================================
 Subroutine PRICEL returns:
 Original cell was already a primitive cell.
 

 Routine SETGRP: Setting up the symmetry group for a 
 simple cubic supercell.


 Subroutine GETGRP returns: Found 48 space group operations
 (whereof 48 operations were pure point group operations)
 out of a pool of 48 trial point group operations.


The static configuration has the point symmetry O_h .


Analysis of symmetry for dynamics (positions and initial velocities):
=====================================================================
 Subroutine PRICEL returns:
 Original cell was already a primitive cell.
 

 Routine SETGRP: Setting up the symmetry group for a 
 simple cubic supercell.


 Subroutine GETGRP returns: Found 48 space group operations
 (whereof 48 operations were pure point group operations)
 out of a pool of 48 trial point group operations.


The dynamic configuration has the point symmetry O_h .


 Subroutine INISYM returns: Found 48 space group operations
 (whereof 48 operations are pure point group operations),
 and found     1 'primitive' translations



--------------------------------------------------------------------------------------------------------




 MACROSCOPIC STATIC DIELECTRIC TENSOR (including local field effects in DFT)
 ------------------------------------------------------
           2.962311     0.000000     0.000000
          -0.000000     2.962311     0.000000
          -0.000000    -0.000000     2.962311
 ------------------------------------------------------


 PIEZOELECTRIC TENSOR (including local field effects)  for field in x, y, z        (e  Angst)
          XX          YY          ZZ          XY          YZ          ZX
  --------------------------------------------------------------------------------
  x     0.00000     0.00000     0.00000     0.00000     0.00000     0.00000
  y     0.00000     0.00000     0.00000     0.00000     0.00000     0.00000
  z     0.00000     0.00000     0.00000     0.00000     0.00000     0.00000

 PIEZOELECTRIC TENSOR (including local field effects)  for field in x, y, z        (C/m^2)
          XX          YY          ZZ          XY          YZ          ZX
  --------------------------------------------------------------------------------
  x     0.00000     0.00000     0.00000     0.00000     0.00000     0.00000
  y     0.00000     0.00000     0.00000     0.00000     0.00000     0.00000
  z     0.00000     0.00000     0.00000     0.00000     0.00000     0.00000
 
 BORN EFFECTIVE CHARGES (including local field effects) (in |e|, cummulative output)
 ---------------------------------------------------------------------------------
 ion    1
    1     1.32126     0.00000    -0.00000
    2    -0.00000     1.32126    -0.00000
    3     0.00000     0.00000     1.32126
 ion    2
    1    -1.32126    -0.00000    -0.00000
    2     0.00000    -1.32126     0.00000
    3    -0.00000     0.00000    -1.32126


--------------------------------------------------------------------------------------------------------


 
 SECOND DERIVATIVES (NOT SYMMETRIZED)
 ------------------------------------
               1X          1Y          1Z          2X          2Y          2Z 
  1X    -1.148717   -0.000000    0.000000    1.148717    0.000000   -0.000000
  1Y    -0.000000   -1.148717   -0.000000    0.000000    1.148717    0.000000
  1Z    -0.000000   -0.000000   -1.148717    0.000000    0.000000    1.148717
  2X     0.818999   -0.000000    0.000000   -0.818999    0.000000   -0.000000
  2Y    -0.000000    0.818999    0.000000    0.000000   -0.818999   -0.000000
  2Z    -0.000000   -0.000000    0.818999    0.000000    0.000000   -0.818999
 
 
 Eigenvectors and eigenvalues of the dynamical matrix
 ----------------------------------------------------
 
 
   1 f  =    2.793296 THz    17.550799 2PiTHz   93.174339 cm-1    11.552141 meV
             X         Y         Z           dx          dy          dz
      0.000000  0.000000  0.000000     0.506507   -0.135264    0.000000  
      2.037724  2.037724  2.037724    -0.822728    0.219712    0.000000  
 
   2 f  =    2.793296 THz    17.550799 2PiTHz   93.174339 cm-1    11.552141 meV
             X         Y         Z           dx          dy          dz
      0.000000  0.000000  0.000000     0.000000    0.000000   -0.524257  
      2.037724  2.037724  2.037724    -0.000000    0.000000    0.851560  
 
   3 f  =    2.793296 THz    17.550799 2PiTHz   93.174339 cm-1    11.552141 meV
             X         Y         Z           dx          dy          dz
      0.000000  0.000000  0.000000    -0.135264   -0.506507    0.000000  
      2.037724  2.037724  2.037724     0.219712    0.822728    0.000000  
 
   4 f/i=    0.210140 THz     1.320345 2PiTHz    7.009500 cm-1     0.869067 meV
             X         Y         Z           dx          dy          dz
      0.000000  0.000000  0.000000    -0.000000   -0.000000    0.851560  
      2.037724  2.037724  2.037724     0.000000    0.000000    0.524257  
 
   5 f/i=    0.210140 THz     1.320345 2PiTHz    7.009500 cm-1     0.869067 meV
             X         Y         Z           dx          dy          dz
      0.000000  0.000000  0.000000    -0.779051    0.343851    0.000000  
      2.037724  2.037724  2.037724    -0.479618    0.211690    0.000000  
 
   6 f/i=    0.210140 THz     1.320345 2PiTHz    7.009500 cm-1     0.869067 meV
             X         Y         Z           dx          dy          dz
      0.000000  0.000000  0.000000    -0.343851   -0.779051    0.000000  
      2.037724  2.037724  2.037724    -0.211690   -0.479618    0.000000  
 


--------------------------------------------------------------------------------------------------------




 MACROSCOPIC STATIC DIELECTRIC TENSOR IONIC CONTRIBUTION
 ------------------------------------------------------
           4.678103    -0.000000     0.000000
           0.000000     4.678103    -0.000000
           0.000000    -0.000000     4.678103
 ------------------------------------------------------



--------------------------------------------------------------------------------------------------------


     LOOP+:  cpu time     41.9032: real time     42.6192
    4ORBIT:  cpu time      0.0000: real time      0.0000



 total charge

# of ion       s       p       d       tot
------------------------------------------
    1        1.966   4.702   0.035   6.703
    2        1.581   3.553   0.000   5.134
--------------------------------------------------
tot          3.547   8.255   0.035  11.837
 
 BZINTS: Fermi energy:   -0.109196;   16.000000 electrons
         Band energy:-0.103739E+03;  BLOECHL correction:    0.000000

 total amount of memory used by VASP MPI-rank0    38729. kBytes
=======================================================================

   base                                    :      30000. kBytes
   nonl-proj                               :       2800. kBytes
   fftplans                                :       1184. kBytes
   grid                                    :       2084. kBytes
   one-center                              :         16. kBytes
   wavefun                                 :       2645. kBytes
 
  
  
 General timing and accounting informations for this job:
 ========================================================
  
                  Total CPU time used (sec):       43.973
                            User time (sec):       42.258
                          System time (sec):        1.715
                         Elapsed time (sec):       45.795
  
                   Maximum memory used (kb):     2048260.
                   Average memory used (kb):          N/A
  
                          Minor page faults:       301492
                          Major page faults:           41
                 Voluntary context switches:         8103
