<?xml version="1.0" encoding="ISO-8859-1"?>
<modeling>
 <generator>
  <i name="program" type="string">vasp </i>
  <i name="version" type="string">6.5.1  </i>
  <i name="subversion" type="string">10Mar25 (build May 13 2025 11:33:44) complex                          parallel </i>
  <i name="platform" type="string">LinuxNV </i>
  <i name="date" type="string">2026 05 13 </i>
  <i name="time" type="string">01:43:50 </i>
 </generator>
 <incar>
  <i type="string" name="PREC">Normal</i>
  <i type="string" name="ALGO">Normal</i>
  <i type="int" name="NELM">   100</i>
  <i type="int" name="IBRION">     8</i>
  <i name="EDIFF">      0.00000100</i>
  <i type="int" name="NSW">     1</i>
  <i type="int" name="ISIF">     0</i>
  <i name="ENCUT">    262.47200000</i>
  <i type="logical" name="LREAL"> F  </i>
  <i type="int" name="ISMEAR">    -5</i>
  <i name="SIGMA">      0.10000000</i>
  <i type="logical" name="LWAVE"> F  </i>
  <i type="logical" name="LCHARG"> F  </i>
  <i type="int" name="LORBIT">    10</i>
  <i type="logical" name="LASPH"> T  </i>
  <i type="string" name="GGA">Ps</i>
  <i type="logical" name="LEPSILON"> T  </i>
 </incar>
 <primitive_cell>
  <structure name="primitive_cell" >
   <crystal>
    <varray name="basis" >
     <v>       4.07544864       0.00000000       0.00000000 </v>
     <v>       0.00000000       4.07544864       0.00000000 </v>
     <v>       0.00000000       0.00000000       4.07544864 </v>
    </varray>
    <i name="volume">     67.69027413 </i>
    <varray name="rec_basis" >
     <v>       0.24537176       0.00000000       0.00000000 </v>
     <v>       0.00000000       0.24537176       0.00000000 </v>
     <v>       0.00000000       0.00000000       0.24537176 </v>
    </varray>
   </crystal>
   <varray name="positions" >
    <v>       0.00000000       0.00000000       0.00000000 </v>
    <v>       0.50000000       0.50000000       0.50000000 </v>
   </varray>
  </structure>
  <varray name="primitive_index" >
   <v type="int" >        1 </v>
   <v type="int" >        2 </v>
  </varray>
 </primitive_cell>
 <kpoints>
  <generation param="Gamma">
   <v type="int" name="divisions">       8        8        8 </v>
   <v name="usershift">      0.50000000       0.50000000       0.50000000 </v>
   <v name="genvec1">      0.12500000       0.00000000       0.00000000 </v>
   <v name="genvec2">      0.00000000       0.12500000       0.00000000 </v>
   <v name="genvec3">      0.00000000       0.00000000       0.12500000 </v>
   <v name="shift">      0.50000000       0.50000000       0.50000000 </v>
  </generation>
  <varray name="kpointlist" >
   <v>       0.06250000       0.06250000       0.06250000 </v>
   <v>       0.18750000       0.06250000       0.06250000 </v>
   <v>       0.31250000       0.06250000       0.06250000 </v>
   <v>       0.43750000       0.06250000       0.06250000 </v>
   <v>       0.18750000       0.18750000       0.06250000 </v>
   <v>       0.31250000       0.18750000       0.06250000 </v>
   <v>       0.43750000       0.18750000       0.06250000 </v>
   <v>       0.31250000       0.31250000       0.06250000 </v>
   <v>       0.43750000       0.31250000       0.06250000 </v>
   <v>       0.43750000       0.43750000       0.06250000 </v>
   <v>       0.18750000       0.18750000       0.18750000 </v>
   <v>       0.31250000       0.18750000       0.18750000 </v>
   <v>       0.43750000       0.18750000       0.18750000 </v>
   <v>       0.31250000       0.31250000       0.18750000 </v>
   <v>       0.43750000       0.31250000       0.18750000 </v>
   <v>       0.43750000       0.43750000       0.18750000 </v>
   <v>       0.31250000       0.31250000       0.31250000 </v>
   <v>       0.43750000       0.31250000       0.31250000 </v>
   <v>       0.43750000       0.43750000       0.31250000 </v>
   <v>       0.43750000       0.43750000       0.43750000 </v>
  </varray>
  <varray name="weights" >
   <v>       0.01562500 </v>
   <v>       0.04687500 </v>
   <v>       0.04687500 </v>
   <v>       0.04687500 </v>
   <v>       0.04687500 </v>
   <v>       0.09375000 </v>
   <v>       0.09375000 </v>
   <v>       0.04687500 </v>
   <v>       0.09375000 </v>
   <v>       0.04687500 </v>
   <v>       0.01562500 </v>
   <v>       0.04687500 </v>
   <v>       0.04687500 </v>
   <v>       0.04687500 </v>
   <v>       0.09375000 </v>
   <v>       0.04687500 </v>
   <v>       0.01562500 </v>
   <v>       0.04687500 </v>
   <v>       0.04687500 </v>
   <v>       0.01562500 </v>
  </varray>
  <varray name="tetrahedronlist"  type="int" >
   <v type="int" >       12       11       12       12       14 </v>
   <v type="int" >       12       12       12       14       14 </v>
   <v type="int" >       12       12       14       14       17 </v>
   <v type="int" >       12       12       13       14       15 </v>
   <v type="int" >       12       12       14       14       15 </v>
   <v type="int" >       12       14       14       15       17 </v>
   <v type="int" >       12       13       14       15       15 </v>
   <v type="int" >       24       14       15       15       18 </v>
   <v type="int" >       24       14       15       17       18 </v>
   <v type="int" >        6       13       13       15       15 </v>
   <v type="int" >       12       13       15       15       15 </v>
   <v type="int" >       12       15       15       15       18 </v>
   <v type="int" >        6       15       15       18       18 </v>
   <v type="int" >       24        5        6       11       12 </v>
   <v type="int" >       12        6       11       12       12 </v>
   <v type="int" >       12        6       12       12       14 </v>
   <v type="int" >       24        5        6        6       12 </v>
   <v type="int" >       12        6        6        8       12 </v>
   <v type="int" >       12        6        8       12       14 </v>
   <v type="int" >        6        5        5        6        6 </v>
   <v type="int" >       12        5        6        6        6 </v>
   <v type="int" >       12        6        6        6        8 </v>
   <v type="int" >        6        6        6        8        8 </v>
   <v type="int" >       12       14       15       16       17 </v>
   <v type="int" >       12       15       16       17       18 </v>
   <v type="int" >       12       16       17       18       19 </v>
   <v type="int" >       24       15       15       16       18 </v>
   <v type="int" >       12       15       16       16       18 </v>
   <v type="int" >       12       16       16       18       19 </v>
   <v type="int" >       12       15       16       18       18 </v>
   <v type="int" >       12       16       18       18       19 </v>
   <v type="int" >       12       16       18       19       19 </v>
   <v type="int" >       12       15       16       18       19 </v>
   <v type="int" >       12       15       17       18       18 </v>
   <v type="int" >       24       15       18       18       19 </v>
   <v type="int" >       12       12       13       14       17 </v>
   <v type="int" >       12       13       14       15       17 </v>
   <v type="int" >       12       13       15       17       18 </v>
   <v type="int" >       12        6        7       12       14 </v>
   <v type="int" >       12        7       12       13       14 </v>
   <v type="int" >       12        7       13       14       15 </v>
   <v type="int" >       12        6        7        8       14 </v>
   <v type="int" >       12        7        8        9       14 </v>
   <v type="int" >       12        7        9       14       15 </v>
   <v type="int" >       12        6        6        7        8 </v>
   <v type="int" >       12        6        7        7        8 </v>
   <v type="int" >       12        7        7        8        9 </v>
   <v type="int" >       12        6        7        8        8 </v>
   <v type="int" >       12        7        8        8        9 </v>
   <v type="int" >       12        7        8        9        9 </v>
   <v type="int" >       12        6        8       12       13 </v>
   <v type="int" >       12        6        7        8       13 </v>
   <v type="int" >       12        7        8        9       13 </v>
   <v type="int" >       12        8       12       13       14 </v>
   <v type="int" >       12        8       13       14       15 </v>
   <v type="int" >       12        8        9       13       15 </v>
   <v type="int" >       12       16       16       16       19 </v>
   <v type="int" >       12       16       16       19       19 </v>
   <v type="int" >       12       16       19       19       19 </v>
   <v type="int" >       12       15       15       16       19 </v>
   <v type="int" >       12       15       16       16       19 </v>
   <v type="int" >       12       15       16       19       19 </v>
   <v type="int" >       12       15       15       18       19 </v>
   <v type="int" >       12       15       18       19       19 </v>
   <v type="int" >       12       13       13       15       18 </v>
   <v type="int" >       12       13       15       15       18 </v>
   <v type="int" >       12       13       15       18       18 </v>
   <v type="int" >       12        7        7       13       15 </v>
   <v type="int" >       12        7       13       13       15 </v>
   <v type="int" >       12        7       13       15       15 </v>
   <v type="int" >       12        7        7        9       15 </v>
   <v type="int" >       12        7        9        9       15 </v>
   <v type="int" >       12        7        9       15       15 </v>
   <v type="int" >       24        7        7        7        9 </v>
   <v type="int" >       24        7        7        9        9 </v>
   <v type="int" >       24        7        9        9        9 </v>
   <v type="int" >       12        7        9       13       13 </v>
   <v type="int" >       12        7        7        9       13 </v>
   <v type="int" >       12        7        9        9       13 </v>
   <v type="int" >       12        9       13       13       15 </v>
   <v type="int" >       12        9       13       15       15 </v>
   <v type="int" >       12        9        9       13       15 </v>
   <v type="int" >       12       14       15       16       19 </v>
   <v type="int" >       12       14       15       18       19 </v>
   <v type="int" >       12       14       17       18       19 </v>
   <v type="int" >       12       12       13       15       18 </v>
   <v type="int" >       12       12       14       15       18 </v>
   <v type="int" >       12       12       14       17       18 </v>
   <v type="int" >       12        6        7       13       15 </v>
   <v type="int" >       12        6       12       13       15 </v>
   <v type="int" >       12        6       12       14       15 </v>
   <v type="int" >       12        6        7        9       15 </v>
   <v type="int" >       12        6        8        9       15 </v>
   <v type="int" >       12        6        8       14       15 </v>
   <v type="int" >       12        6        7        7        9 </v>
   <v type="int" >       12        6        6        7        9 </v>
   <v type="int" >       12        6        6        8        9 </v>
   <v type="int" >       12        6        7        9        9 </v>
   <v type="int" >       12        6        8        9        9 </v>
   <v type="int" >       12        6        8        8        9 </v>
   <v type="int" >       12        7        9       12       13 </v>
   <v type="int" >       12        6        7        9       12 </v>
   <v type="int" >       12        6        8        9       12 </v>
   <v type="int" >       12        9       12       13       15 </v>
   <v type="int" >       12        9       12       14       15 </v>
   <v type="int" >       12        8        9       12       14 </v>
   <v type="int" >       12       11       12       14       17 </v>
   <v type="int" >       12        5        6       12       14 </v>
   <v type="int" >       12        5       11       12       14 </v>
   <v type="int" >       12        5        6        8       14 </v>
   <v type="int" >       12        5        6        6        8 </v>
   <v type="int" >       12        5        5        6        8 </v>
   <v type="int" >       12        5        6        8        8 </v>
   <v type="int" >       12        6        8       11       12 </v>
   <v type="int" >       12        5        6        8       11 </v>
   <v type="int" >       12        8       11       12       14 </v>
   <v type="int" >       12        2        5       11       12 </v>
   <v type="int" >       12        2        5        6       12 </v>
   <v type="int" >       12        2        3        6       12 </v>
   <v type="int" >       24        2        5        5        6 </v>
   <v type="int" >       12        2        2        5        6 </v>
   <v type="int" >       12        2        2        3        6 </v>
   <v type="int" >       12        2        5        6        6 </v>
   <v type="int" >       12        2        3        6        6 </v>
   <v type="int" >       12        2        3        3        6 </v>
   <v type="int" >       12        5        5        6       11 </v>
   <v type="int" >       12        2        3        5        6 </v>
   <v type="int" >       24        3        5        6        6 </v>
   <v type="int" >       12        2        2        2        3 </v>
   <v type="int" >       12        2        2        3        3 </v>
   <v type="int" >       12        2        3        3        3 </v>
   <v type="int" >       12        2        3        5        5 </v>
   <v type="int" >       12        2        2        3        5 </v>
   <v type="int" >       12        2        3        3        5 </v>
   <v type="int" >       12        3        5        5        6 </v>
   <v type="int" >       12        3        3        5        6 </v>
   <v type="int" >       12        2        3        5       11 </v>
   <v type="int" >       12        3        5        6       11 </v>
   <v type="int" >       12        3        6       11       12 </v>
   <v type="int" >       12       17       18       18       19 </v>
   <v type="int" >       18       18       18       19       19 </v>
   <v type="int" >       24       18       19       19       20 </v>
   <v type="int" >       12       18       19       19       19 </v>
   <v type="int" >       24       19       19       19       20 </v>
   <v type="int" >       18       19       19       20       20 </v>
   <v type="int" >       12        8        9       14       15 </v>
   <v type="int" >       12        9       14       15       15 </v>
   <v type="int" >       24        9       15       15       16 </v>
   <v type="int" >       12        8        9        9       15 </v>
   <v type="int" >       24        9        9       10       15 </v>
   <v type="int" >       12        9       10       15       16 </v>
   <v type="int" >        6        8        8        9        9 </v>
   <v type="int" >       12        8        9        9        9 </v>
   <v type="int" >       36        9        9        9       10 </v>
   <v type="int" >       30        9        9       10       10 </v>
   <v type="int" >       12       19       20       20       20 </v>
   <v type="int" >       12       18       18       19       20 </v>
   <v type="int" >       12       18       19       20       20 </v>
   <v type="int" >       12        9        9       15       16 </v>
   <v type="int" >       12        9       15       16       16 </v>
   <v type="int" >       12        9        9       10       16 </v>
   <v type="int" >       12        9       10       10       16 </v>
   <v type="int" >       12        9       10       16       16 </v>
   <v type="int" >       24        9       10       10       10 </v>
   <v type="int" >       12        9       10       15       15 </v>
   <v type="int" >       12        9       10       10       15 </v>
   <v type="int" >       12       10       15       15       16 </v>
   <v type="int" >       12       10       15       16       16 </v>
   <v type="int" >       12       10       10       15       16 </v>
   <v type="int" >       12       17       18       19       20 </v>
   <v type="int" >       12        8        9       15       16 </v>
   <v type="int" >       12        8       14       15       16 </v>
   <v type="int" >       12        8        9       10       16 </v>
   <v type="int" >       12        8        9        9       10 </v>
   <v type="int" >       12        8        8        9       10 </v>
   <v type="int" >       12        8        9       10       10 </v>
   <v type="int" >       12        9       10       14       15 </v>
   <v type="int" >       12        8        9       10       14 </v>
   <v type="int" >       12       10       14       15       16 </v>
   <v type="int" >       12        3        6       12       13 </v>
   <v type="int" >       12        3        6        7       13 </v>
   <v type="int" >       12        3        4        7       13 </v>
   <v type="int" >       24        3        6        6        7 </v>
   <v type="int" >       12        3        3        6        7 </v>
   <v type="int" >       12        3        3        4        7 </v>
   <v type="int" >       12        3        6        7        7 </v>
   <v type="int" >       12        3        4        7        7 </v>
   <v type="int" >       12        3        4        4        7 </v>
   <v type="int" >       12        6        6        7       12 </v>
   <v type="int" >       12        3        4        6        7 </v>
   <v type="int" >       12        6        7       12       13 </v>
   <v type="int" >       12        6        7        7       13 </v>
   <v type="int" >       24        4        6        7        7 </v>
   <v type="int" >       12        3        3        3        4 </v>
   <v type="int" >       12        3        3        4        4 </v>
   <v type="int" >       12        3        4        4        4 </v>
   <v type="int" >       12        3        4        6        6 </v>
   <v type="int" >       12        3        3        4        6 </v>
   <v type="int" >       12        3        4        4        6 </v>
   <v type="int" >       12        4        6        6        7 </v>
   <v type="int" >       12        4        4        6        7 </v>
   <v type="int" >       12        3        4        6       12 </v>
   <v type="int" >       12        4        6        7       12 </v>
   <v type="int" >       12        4        7       12       13 </v>
   <v type="int" >        6       20       20       20       20 </v>
   <v type="int" >       12       10       10       16       16 </v>
   <v type="int" >       12       10       16       16       16 </v>
   <v type="int" >       12       10       10       10       16 </v>
   <v type="int" >       18       10       10       10       10 </v>
   <v type="int" >       12        4        7       13       13 </v>
   <v type="int" >       12        4        7        7       13 </v>
   <v type="int" >       12        4        4        7       13 </v>
   <v type="int" >       36        4        7        7        7 </v>
   <v type="int" >       30        4        4        7        7 </v>
   <v type="int" >       24        4        4        4        7 </v>
   <v type="int" >       12        7        7        7       13 </v>
   <v type="int" >        6        7        7       13       13 </v>
   <v type="int" >       18        4        4        4        4 </v>
   <v type="int" >       12        2        5        5       11 </v>
   <v type="int" >       18        2        2        5        5 </v>
   <v type="int" >       24        1        2        2        5 </v>
   <v type="int" >       12        2        2        2        5 </v>
   <v type="int" >       24        1        2        2        2 </v>
   <v type="int" >       18        1        1        2        2 </v>
   <v type="int" >       12        1        1        1        2 </v>
   <v type="int" >       12        1        2        5        5 </v>
   <v type="int" >       12        1        1        2        5 </v>
   <v type="int" >       12        1        2        5       11 </v>
   <v type="int" >        6        1        1        1        1 </v>
  </varray>
  <i name="volumeweight">      0.00032552 </i>
 </kpoints>
 <parameters>
  <separator name="general" >
   <i type="string" name="SYSTEM">unknown system</i>
   <i type="logical" name="LCOMPAT"> F  </i>
  </separator>
  <separator name="electronic" >
   <i type="string" name="PREC">normal</i>
   <i name="ENMAX">    262.47200000</i>
   <i name="ENAUG">    407.93300000</i>
   <i name="EDIFF">      0.00000100</i>
   <i type="int" name="IALGO">    38</i>
   <i type="int" name="IWAVPR">    11</i>
   <i type="int" name="NBANDS">    12</i>
   <i type="int" name="NBANDSLOW">    -1</i>
   <i type="int" name="NBANDSHIGH">    -1</i>
   <i name="NELECT">     16.00000000</i>
   <i type="int" name="TURBO">     0</i>
   <i type="int" name="IRESTART">     0</i>
   <i type="int" name="NREBOOT">     0</i>
   <i type="int" name="NMIN">     0</i>
   <i name="EREF">      0.00000000</i>
   <separator name="electronic smearing" >
    <i type="int" name="ISMEAR">    -5</i>
    <i name="SIGMA">      0.10000000</i>
    <i name="KSPACING">      0.50000000</i>
    <i type="logical" name="KGAMMA"> T  </i>
    <i type="logical" name="KBLOWUP"> T  </i>
   </separator>
   <separator name="electronic projectors" >
    <i type="logical" name="LREAL"> F  </i>
    <v name="ROPT">      0.00000000      0.00000000</v>
    <i type="int" name="LMAXPAW">  -100</i>
    <i type="int" name="LMAXMIX">     2</i>
    <i type="logical" name="NLSPLINE"> F  </i>
   </separator>
   <separator name="electronic startup" >
    <i type="int" name="ISTART">     0</i>
    <i type="int" name="ICHARG">     2</i>
    <i type="int" name="INIWAV">     1</i>
   </separator>
   <separator name="electronic spin" >
    <i type="int" name="ISPIN">     1</i>
    <i type="logical" name="LNONCOLLINEAR"> F  </i>
    <v name="MAGMOM">      1.00000000      1.00000000</v>
    <i name="NUPDOWN">     -1.00000000</i>
    <i type="logical" name="LSORBIT"> F  </i>
    <v name="SAXIS">      0.00000000      0.00000000      1.00000000</v>
    <i type="logical" name="LSPIRAL"> F  </i>
    <v name="QSPIRAL">      0.00000000      0.00000000      0.00000000</v>
    <i type="logical" name="LZEROZ"> F  </i>
   </separator>
   <separator name="electronic exchange-correlation" >
    <i type="logical" name="LASPH"> T  </i>
   </separator>
   <separator name="electronic convergence" >
    <i type="int" name="NELM">   100</i>
    <i type="int" name="NELMDL">    -5</i>
    <i type="int" name="NELMIN">     2</i>
    <i name="ENINI">    262.47200000</i>
    <separator name="electronic convergence detail" >
     <i type="logical" name="LDIAG"> T  </i>
     <i type="logical" name="LSUBROT"> F  </i>
     <i type="logical" name="LROBUST"> F  </i>
     <i type="int" name="ISEARCH">     0</i>
     <i name="WEIMIN">      0.00100000</i>
     <i name="EBREAK">      0.00000002</i>
     <i name="DEPER">      0.30000000</i>
     <i type="int" name="NRMM">     4</i>
     <i name="TIME">      0.40000000</i>
    </separator>
   </separator>
   <separator name="electronic mixer" >
    <i name="AMIX">      0.40000000</i>
    <i name="BMIX">      1.00000000</i>
    <i name="AMIN">      0.10000000</i>
    <i name="AMIX_MAG">      1.60000000</i>
    <i name="BMIX_MAG">      1.00000000</i>
    <separator name="electronic mixer details" >
     <i type="int" name="IMIX">     4</i>
     <i type="logical" name="MIXFIRST"> F  </i>
     <i type="int" name="MAXMIX">   -45</i>
     <i name="WC">    100.00000000</i>
     <i type="int" name="INIMIX">     1</i>
     <i type="int" name="MIXPRE">     1</i>
     <i type="int" name="MREMOVE">     5</i>
    </separator>
   </separator>
   <separator name="electronic dipolcorrection" >
    <i type="logical" name="LDIPOL"> F  </i>
    <i type="logical" name="LMONO"> F  </i>
    <i type="int" name="IDIPOL">     0</i>
    <i name="EPSILON">      1.00000000</i>
    <v name="DIPOL">   -100.00000000   -100.00000000   -100.00000000</v>
    <i name="EFIELD">      0.00000000</i>
    <i type="logical" name="LVACPOTAV"> F  </i>
   </separator>
  </separator>
  <separator name="grids" >
   <i type="int" name="NGX">    16</i>
   <i type="int" name="NGY">    16</i>
   <i type="int" name="NGZ">    16</i>
   <i type="int" name="NGXF">    32</i>
   <i type="int" name="NGYF">    32</i>
   <i type="int" name="NGZF">    32</i>
   <i type="logical" name="ADDGRID"> F  </i>
  </separator>
  <separator name="ionic" >
   <i type="int" name="NSW">     1</i>
   <i type="int" name="IBRION">     8</i>
   <i type="int" name="MDALGO">     0</i>
   <i type="int" name="ISIF">     0</i>
   <i name="PSTRESS">      0.00000000</i>
   <i name="EDIFFG">      0.00001000</i>
   <i type="int" name="NFREE">     0</i>
   <i name="POTIM">      0.50000000</i>
   <i name="SMASS">     -3.00000000</i>
   <i name="SCALEE">      1.00000000</i>
  </separator>
  <separator name="ionic md" >
   <i name="TEBEG">      0.00010000</i>
   <i name="TEEND">      0.00010000</i>
   <i type="int" name="NBLOCK">     1</i>
   <i type="int" name="KBLOCK">     1</i>
   <i type="int" name="NPACO">   256</i>
   <i name="APACO">     10.00000000</i>
  </separator>
  <separator name="symmetry" >
   <i type="int" name="ISYM">     2</i>
   <i name="SYMPREC">      0.00001000</i>
  </separator>
  <separator name="dos" >
   <i type="int" name="LORBIT">    10</i>
   <v name="RWIGS">     -1.00000000     -1.00000000</v>
   <i type="int" name="NEDOS">   301</i>
   <i name="EMIN">     10.00000000</i>
   <i name="EMAX">    -10.00000000</i>
   <i name="EFERMI">      0.00000000</i>
  </separator>
  <separator name="writing" >
   <i type="int" name="NWRITE">     2</i>
   <i type="logical" name="LWAVE"> F  </i>
   <i type="logical" name="LDOWNSAMPLE"> F  </i>
   <i type="logical" name="LCHARG"> F  </i>
   <i type="logical" name="LPARD"> F  </i>
   <i type="logical" name="LVTOT"> F  </i>
   <i type="logical" name="LVHAR"> F  </i>
   <i type="logical" name="LELF"> F  </i>
   <i type="logical" name="LOPTICS"> F  </i>
   <v name="STM">      0.00000000      0.00000000      0.00000000      0.00000000      0.00000000      0.00000000      0.00000000</v>
  </separator>
  <separator name="performance" >
   <i type="int" name="NPAR">     1</i>
   <i type="int" name="NSIM">     4</i>
   <i type="int" name="NBLK">    -1</i>
   <i type="logical" name="LPLANE"> T  </i>
   <i type="logical" name="LSCALAPACK"> T  </i>
   <i type="logical" name="LSCAAWARE"> F  </i>
   <i type="logical" name="LSCALU"> F  </i>
   <i type="logical" name="LASYNC"> F  </i>
   <i type="logical" name="LORBITALREAL"> F  </i>
  </separator>
  <separator name="miscellaneous" >
   <i type="int" name="IDIOT">     3</i>
   <i type="int" name="PHON_NSTRUCT">    -1</i>
   <i type="logical" name="LMUSIC"> F  </i>
   <v name="POMASS">    132.90000000     35.45300000</v>
   <v name="DARWINR">      0.00000000      0.00000000</v>
   <v name="DARWINV">      1.00000000      1.00000000</v>
   <i type="logical" name="LCORR"> T  </i>
  </separator>
  <i type="logical" name="GGA_COMPAT"> T  </i>
  <i type="logical" name="LBERRY"> F  </i>
  <i type="int" name="ICORELEVEL">     0</i>
  <i type="logical" name="LDAU"> F  </i>
  <i type="int" name="I_CONSTRAINED_M">     0</i>
  <separator name="electronic exchange-correlation" >
   <i type="string" name="GGA    ">PS</i>
   <i type="string" name="XC_C">1</i>
   <i type="int" name="VOSKOWN">     0</i>
   <i type="logical" name="LHFCALC"> F  </i>
   <i type="string" name="PRECFOCK"></i>
   <i type="logical" name="LSYMGRAD"> F  </i>
   <i type="logical" name="LHFONE"> F  </i>
   <i type="logical" name="LRHFCALC"> F  </i>
   <i type="logical" name="LTHOMAS"> F  </i>
   <i type="logical" name="LMODELHF"> F  </i>
   <i type="logical" name="LFOCKACE"> F  </i>
   <i name="ENCUT4O">     -1.00000000</i>
   <i type="int" name="EXXOEP">     0</i>
   <i type="int" name="FOURORBIT">     0</i>
   <i name="AEXX">      0.00000000</i>
   <i name="HFALPHA">      0.00000000</i>
   <i name="MCALPHA">      0.00000000</i>
   <i name="ALDAX">      1.00000000</i>
   <i name="AGGAX">      1.00000000</i>
   <i name="AMGGAX">      1.00000000</i>
   <i name="ALDAC">      1.00000000</i>
   <i name="AGGAC">      1.00000000</i>
   <i name="AMGGAC">      1.00000000</i>
   <i type="int" name="NKREDX">     1</i>
   <i type="int" name="NKREDY">     1</i>
   <i type="int" name="NKREDZ">     1</i>
   <i type="logical" name="SHIFTRED"> F  </i>
   <i type="logical" name="ODDONLY"> F  </i>
   <i type="logical" name="EVENONLY"> F  </i>
   <i type="int" name="LMAXFOCK">     0</i>
   <i type="int" name="NMAXFOCKAE">     0</i>
   <i type="logical" name="LFOCKAEDFT"> F  </i>
   <i name="HFSCREEN">      0.00000000</i>
   <i name="HFSCREENC">      0.00000000</i>
   <i type="int" name="NBANDSGWLOW">     0</i>
  </separator>
  <separator name="vdW DFT" >
   <i type="logical" name="LUSE_VDW"> F  </i>
   <i type="int" name="IVDW_NL">    -1</i>
   <i type="logical" name="LSPIN_VDW"> F  </i>
   <i name="ZAB_VDW">     -0.84910000</i>
   <i name="GAMMA_VDW">      1.39626340</i>
   <i name="ALPHA_VDW">      0.00000000</i>
   <i name="PARAM1">      0.12340000</i>
   <i name="PARAM2">      1.00000000</i>
   <i name="BPARAM">      6.30000000</i>
   <i name="CPARAM">      0.00930000</i>
  </separator>
  <separator name="model GW" >
   <i type="int" name="MODEL_GW">     0</i>
   <i name="MODEL_EPS0">     20.30708224</i>
   <i name="MODEL_ALPHA">      1.00000000</i>
  </separator>
  <separator name="linear response parameters" >
   <i type="logical" name="LEPSILON"> T  </i>
   <i type="logical" name="LRPA"> F  </i>
   <i type="logical" name="LNABLA"> F  </i>
   <i type="logical" name="LVEL"> F  </i>
   <i name="CSHIFT">      0.10000000</i>
   <i name="OMEGAMAX">     -1.00000000</i>
   <i name="DEG_THRESHOLD">      0.00200000</i>
   <i name="RTIME">     -0.10000000</i>
   <i name="WPLASMAI">      0.00000000</i>
   <v name="DFIELD">      0.00000000      0.00000000      0.00000000</v>
   <v name="WPLASMA">      0.00000000      0.00000000      0.00000000      0.00000000      0.00000000      0.00000000      0.00000000      0.00000000      0.00000000</v>
  </separator>
  <separator name="orbital magnetization" >
   <i type="logical" name="NUCIND"> F  </i>
   <v name="MAGPOS">      0.00000000      0.00000000      0.00000000</v>
   <i type="logical" name="LNICSALL"> T  </i>
   <i type="logical" name="ORBITALMAG"> F  </i>
   <i type="logical" name="LMAGBLOCH"> F  </i>
   <i type="logical" name="LCHIMAG"> F  </i>
   <i type="logical" name="LGAUGE"> T  </i>
   <i type="int" name="MAGATOM">     0</i>
   <v name="MAGDIPOL">      0.00000000      0.00000000      0.00000000</v>
   <v name="AVECCONST">      0.00000000      0.00000000      0.00000000</v>
  </separator>
  <separator name="response functions" >
   <i type="logical" name="LALL_IN_ONE"> F  </i>
   <i type="int" name="IALL_IN_ONE">    -1</i>
   <i type="int" name="NBANDS_WAVE">    -1</i>
   <i type="logical" name="LFINITE_TEMPERATURE"> F  </i>
   <i type="logical" name="LADDER"> F  </i>
   <i type="logical" name="LRPAFORCE"> F  </i>
   <i type="logical" name="LFXC"> F  </i>
   <i type="logical" name="LHARTREE"> T  </i>
   <i type="int" name="IBSE">     2</i>
   <v type="int" name="KPOINT">    -1     0     0     0</v>
   <i type="logical" name="LTCTC"> F  </i>
   <i type="logical" name="LTCTE"> F  </i>
   <i type="logical" name="LTETE"> F  </i>
   <i type="logical" name="LTRIPLET"> F  </i>
   <i type="logical" name="LFXCEPS"> F  </i>
   <i type="logical" name="LFXHEG"> F  </i>
   <i type="int" name="NATURALO">     2</i>
   <i type="logical" name="LHOLEGF"> F  </i>
   <i type="logical" name="L2ORDER"> F  </i>
   <i type="logical" name="LDMP1"> F  </i>
   <i type="logical" name="LMP2LT"> F  </i>
   <i type="logical" name="LSMP2LT"> F  </i>
   <i type="logical" name="LGWLF"> F  </i>
   <i name="ENCUTGW">     -1.60000002</i>
   <i name="ENCUTGWSOFT">     -1.60000002</i>
   <i name="ENCUTLF">     -1.00000000</i>
   <i type="logical" name="ESF_SPLINES"> F  </i>
   <i name="ESF_CONV">      0.01000000</i>
   <i type="int" name="ESF_NINTER">    15</i>
   <i type="int" name="LMAXMP2">    -1</i>
   <i name="SCISSOR">      0.00000000</i>
   <i type="int" name="NOMEGA">     0</i>
   <i type="int" name="NOMEGAR">     0</i>
   <i type="int" name="NBANDSGW">    -1</i>
   <i type="int" name="NBANDSO">    -1</i>
   <i type="int" name="NBANDSV">    -1</i>
   <i type="int" name="NELMGW">     1</i>
   <i type="int" name="NELMHF">     1</i>
   <i type="int" name="DIM">     3</i>
   <i type="int" name="IESPILON">     4</i>
   <i type="int" name="ANTIRES">     0</i>
   <i name="OMEGAMAX">    -30.00000000</i>
   <i name="OMEGAMIN">    -30.00000000</i>
   <i name="OMEGATL">   -200.00000000</i>
   <i type="int" name="OMEGAGRID">     0</i>
   <i name="CSHIFT">     -0.10000000</i>
   <i type="logical" name="LSELFENERGY"> F  </i>
   <i type="logical" name="LSPECTRAL"> F  </i>
   <i type="logical" name="LSPECTRALGW"> F  </i>
   <i type="logical" name="LSINGLES"> F  </i>
   <i type="logical" name="LFERMIGW"> F  </i>
   <i type="logical" name="ODDONLYGW"> F  </i>
   <i type="logical" name="EVENONLYGW"> F  </i>
   <i type="int" name="NKREDLFX">     1</i>
   <i type="int" name="NKREDLFY">     1</i>
   <i type="int" name="NKREDLFZ">     1</i>
   <i type="int" name="MAXMEM">  2800</i>
   <i type="int" name="TELESCOPE">     0</i>
   <i type="int" name="NTAUPAR">    -1</i>
   <i type="int" name="NOMEGAPAR">    -1</i>
   <i name="DAMP_NEWTON">      0.80000001</i>
   <i name="LAMBDA">      1.00000000</i>
  </separator>
  <separator name="External order field" >
   <i name="OFIELD_KAPPA">      0.00000000</i>
   <v name="OFIELD_K">      0.00000000      0.00000000      0.00000000</v>
   <i name="OFIELD_Q6_NEAR">      0.00000000</i>
   <i name="OFIELD_Q6_FAR">      0.00000000</i>
   <i name="OFIELD_A">      0.00000000</i>
  </separator>
  <separator name="optional k-points parameters" >
   <i type="int" name="KPOINTS_OPT_MODE">     1</i>
   <i type="logical" name="LKPOINTS_OPT"> F  </i>
  </separator>
 </parameters>
 <atominfo>
  <atoms>       2 </atoms>
  <types>       2 </types>
  <array name="atoms" >
   <dimension dim="1">ion</dimension>
   <field type="string">element</field>
   <field type="int">atomtype</field>
   <set>
    <rc><c>Cs</c><c>   1</c></rc>
    <rc><c>Cl</c><c>   2</c></rc>
   </set>
  </array>
  <array name="atomtypes" >
   <dimension dim="1">type</dimension>
   <field type="int">atomspertype</field>
   <field type="string">element</field>
   <field>mass</field>
   <field>valence</field>
   <field type="string">pseudopotential</field>
   <set>
    <rc><c>   1</c><c>Cs</c><c>    132.90000000</c><c>      9.00000000</c><c>  PAW_PBE Cs_sv 08Apr2002               </c></rc>
    <rc><c>   1</c><c>Cl</c><c>     35.45300000</c><c>      7.00000000</c><c>  PAW_PBE Cl 06Sep2000                  </c></rc>
   </set>
  </array>
 </atominfo>
 <structure name="initialpos" >
  <crystal>
   <varray name="basis" >
    <v>       4.07544864       0.00000000       0.00000000 </v>
    <v>       0.00000000       4.07544864       0.00000000 </v>
    <v>       0.00000000       0.00000000       4.07544864 </v>
   </varray>
   <i name="volume">     67.69027413 </i>
   <varray name="rec_basis" >
    <v>       0.24537176       0.00000000       0.00000000 </v>
    <v>       0.00000000       0.24537176       0.00000000 </v>
    <v>       0.00000000       0.00000000       0.24537176 </v>
   </varray>
  </crystal>
  <varray name="positions" >
   <v>       0.00000000       0.00000000       0.00000000 </v>
   <v>       0.50000000       0.50000000       0.50000000 </v>
  </varray>
 </structure>
 <calculation>
  <scstep>
   <time name="dav">    0.30    0.30</time>
   <time name="total">    0.39    0.39</time>
   <energy>
    <i name="alphaZ">     54.34366693 </i>
    <i name="ewald">   -830.13603332 </i>
    <i name="hartreedc">   -126.29286671 </i>
    <i name="XCdc">     31.46207719 </i>
    <i name="pawpsdc">    749.47380581 </i>
    <i name="pawaedc">   -742.20009777 </i>
    <i name="eentropy">      0.00000000 </i>
    <i name="bandstr">    -36.43153819 </i>
    <i name="atom">    964.39621982 </i>
    <i name="e_fr_energy">     64.61523376 </i>
    <i name="e_wo_entrp">     64.61523376 </i>
    <i name="e_0_energy">     64.61523376 </i>
   </energy>
  </scstep>
  <scstep>
   <time name="dav">    0.14    0.15</time>
   <time name="total">    0.15    0.15</time>
   <energy>
    <i name="e_fr_energy">     -3.32393201 </i>
    <i name="e_wo_entrp">     -3.32393201 </i>
    <i name="e_0_energy">     -3.32393201 </i>
   </energy>
  </scstep>
  <scstep>
   <time name="dav">    0.13    0.13</time>
   <time name="total">    0.13    0.13</time>
   <energy>
    <i name="e_fr_energy">     -7.16536627 </i>
    <i name="e_wo_entrp">     -7.16536627 </i>
    <i name="e_0_energy">     -7.16536627 </i>
   </energy>
  </scstep>
  <scstep>
   <time name="dav">    0.12    0.12</time>
   <time name="total">    0.12    0.12</time>
   <energy>
    <i name="e_fr_energy">     -7.19706073 </i>
    <i name="e_wo_entrp">     -7.19706073 </i>
    <i name="e_0_energy">     -7.19706073 </i>
   </energy>
  </scstep>
  <scstep>
   <time name="dav">    0.13    0.13</time>
   <time name="total">    0.34    0.36</time>
   <energy>
    <i name="e_fr_energy">     -7.19744785 </i>
    <i name="e_wo_entrp">     -7.19744785 </i>
    <i name="e_0_energy">     -7.19744785 </i>
   </energy>
  </scstep>
  <scstep>
   <time name="dav">    0.12    0.12</time>
   <time name="total">    0.19    0.19</time>
   <energy>
    <i name="e_fr_energy">     -6.89450364 </i>
    <i name="e_wo_entrp">     -6.89450364 </i>
    <i name="e_0_energy">     -6.89450364 </i>
   </energy>
  </scstep>
  <scstep>
   <time name="dav">    0.13    0.13</time>
   <time name="total">    0.19    0.19</time>
   <energy>
    <i name="e_fr_energy">     -6.85527320 </i>
    <i name="e_wo_entrp">     -6.85527320 </i>
    <i name="e_0_energy">     -6.85527320 </i>
   </energy>
  </scstep>
  <scstep>
   <time name="dav">    0.13    0.13</time>
   <time name="total">    0.20    0.20</time>
   <energy>
    <i name="e_fr_energy">     -6.85395967 </i>
    <i name="e_wo_entrp">     -6.85395967 </i>
    <i name="e_0_energy">     -6.85395967 </i>
   </energy>
  </scstep>
  <scstep>
   <time name="dav">    0.13    0.13</time>
   <time name="total">    0.19    0.19</time>
   <energy>
    <i name="e_fr_energy">     -6.85410216 </i>
    <i name="e_wo_entrp">     -6.85410216 </i>
    <i name="e_0_energy">     -6.85410216 </i>
   </energy>
  </scstep>
  <scstep>
   <time name="dav">    0.13    0.13</time>
   <time name="total">    0.19    0.19</time>
   <energy>
    <i name="e_fr_energy">     -6.85419026 </i>
    <i name="e_wo_entrp">     -6.85419026 </i>
    <i name="e_0_energy">     -6.85419026 </i>
   </energy>
  </scstep>
  <scstep>
   <time name="dav">    0.13    0.13</time>
   <time name="total">    0.19    0.19</time>
   <energy>
    <i name="e_fr_energy">     -6.85420206 </i>
    <i name="e_wo_entrp">     -6.85420206 </i>
    <i name="e_0_energy">     -6.85420206 </i>
   </energy>
  </scstep>
  <scstep>
   <time name="dav">    0.13    0.13</time>
   <time name="total">    0.18    0.18</time>
   <energy>
    <i name="alphaZ">     54.34366693 </i>
    <i name="ewald">   -830.13603332 </i>
    <i name="hartreedc">   -130.58112520 </i>
    <i name="XCdc">     31.91256091 </i>
    <i name="pawpsdc">    912.35406677 </i>
    <i name="pawaedc">   -905.40596572 </i>
    <i name="eentropy">      0.00000000 </i>
    <i name="bandstr">   -103.73759209 </i>
    <i name="atom">    964.39621982 </i>
    <i name="e_fr_energy">     -6.85420191 </i>
    <i name="e_wo_entrp">     -6.85420191 </i>
    <i name="e_0_energy">     -6.85420191 </i>
   </energy>
  </scstep>
  <structure>
   <crystal>
    <varray name="basis" >
     <v>       4.07544864       0.00000000       0.00000000 </v>
     <v>       0.00000000       4.07544864       0.00000000 </v>
     <v>       0.00000000       0.00000000       4.07544864 </v>
    </varray>
    <i name="volume">     67.69027413 </i>
    <varray name="rec_basis" >
     <v>       0.24537176       0.00000000       0.00000000 </v>
     <v>       0.00000000       0.24537176       0.00000000 </v>
     <v>       0.00000000       0.00000000       0.24537176 </v>
    </varray>
   </crystal>
   <varray name="positions" >
    <v>       0.00000000       0.00000000       0.00000000 </v>
    <v>       0.50000000       0.50000000       0.50000000 </v>
   </varray>
  </structure>
  <varray name="forces" >
   <v>       0.00000000       0.00000000       0.00000000 </v>
   <v>      -0.00000000       0.00000000       0.00000000 </v>
  </varray>
  <energy>
   <i name="e_fr_energy">     -6.85420191 </i>
   <i name="e_wo_entrp">     -6.85420191 </i>
   <i name="e_0_energy">     -6.85420191 </i>
  </energy>
  <scstep>
   <time name="total">    0.25    0.55</time>
   <energy>
    <i name="e_fr_energy">    -60.78781310 </i>
    <i name="e_wo_entrp">    -60.78781310 </i>
    <i name="e_0_energy">    -60.78781310 </i>
   </energy>
  </scstep>
  <scstep>
   <time name="total">    0.18    0.18</time>
   <energy>
    <i name="e_fr_energy">    -58.51541595 </i>
    <i name="e_wo_entrp">    -58.51541595 </i>
    <i name="e_0_energy">    -58.51541595 </i>
   </energy>
  </scstep>
  <scstep>
   <time name="total">    0.18    0.18</time>
   <energy>
    <i name="e_fr_energy">    -58.60981797 </i>
    <i name="e_wo_entrp">    -58.60981797 </i>
    <i name="e_0_energy">    -58.60981797 </i>
   </energy>
  </scstep>
  <scstep>
   <time name="total">    0.16    0.16</time>
   <energy>
    <i name="e_fr_energy">    -58.61150651 </i>
    <i name="e_wo_entrp">    -58.61150651 </i>
    <i name="e_0_energy">    -58.61150651 </i>
   </energy>
  </scstep>
  <scstep>
   <time name="total">    0.16    0.16</time>
   <energy>
    <i name="e_fr_energy">    -58.61161136 </i>
    <i name="e_wo_entrp">    -58.61161136 </i>
    <i name="e_0_energy">    -58.61161136 </i>
   </energy>
  </scstep>
  <scstep>
   <time name="total">    0.17    0.17</time>
   <energy>
    <i name="e_fr_energy">    -58.61161374 </i>
    <i name="e_wo_entrp">    -58.61161374 </i>
    <i name="e_0_energy">    -58.61161374 </i>
   </energy>
  </scstep>
  <scstep>
   <time name="total">    0.15    0.16</time>
   <energy>
    <i name="e_fr_energy">    -58.61161379 </i>
    <i name="e_wo_entrp">    -58.61161379 </i>
    <i name="e_0_energy">    -58.61161379 </i>
   </energy>
  </scstep>
  <scstep>
   <time name="total">    0.21    0.21</time>
   <energy>
    <i name="e_fr_energy">    -66.14347194 </i>
    <i name="e_wo_entrp">    -66.14347194 </i>
    <i name="e_0_energy">    -66.14347194 </i>
   </energy>
  </scstep>
  <scstep>
   <time name="total">    0.18    0.18</time>
   <energy>
    <i name="e_fr_energy">    -63.80437162 </i>
    <i name="e_wo_entrp">    -63.80437162 </i>
    <i name="e_0_energy">    -63.80437162 </i>
   </energy>
  </scstep>
  <scstep>
   <time name="total">    0.18    0.18</time>
   <energy>
    <i name="e_fr_energy">    -63.89364258 </i>
    <i name="e_wo_entrp">    -63.89364258 </i>
    <i name="e_0_energy">    -63.89364258 </i>
   </energy>
  </scstep>
  <scstep>
   <time name="total">    0.16    0.17</time>
   <energy>
    <i name="e_fr_energy">    -63.89514291 </i>
    <i name="e_wo_entrp">    -63.89514291 </i>
    <i name="e_0_energy">    -63.89514291 </i>
   </energy>
  </scstep>
  <scstep>
   <time name="total">    0.17    0.17</time>
   <energy>
    <i name="e_fr_energy">    -63.89521920 </i>
    <i name="e_wo_entrp">    -63.89521920 </i>
    <i name="e_0_energy">    -63.89521920 </i>
   </energy>
  </scstep>
  <scstep>
   <time name="total">    0.17    0.17</time>
   <energy>
    <i name="e_fr_energy">    -63.89522017 </i>
    <i name="e_wo_entrp">    -63.89522017 </i>
    <i name="e_0_energy">    -63.89522017 </i>
   </energy>
  </scstep>
  <scstep>
   <time name="total">    0.16    0.16</time>
   <energy>
    <i name="e_fr_energy">    -63.89521967 </i>
    <i name="e_wo_entrp">    -63.89521967 </i>
    <i name="e_0_energy">    -63.89521967 </i>
   </energy>
  </scstep>
  <scstep>
   <time name="total">    0.14    0.14</time>
   <energy>
    <i name="e_fr_energy">    -63.89521968 </i>
    <i name="e_wo_entrp">    -63.89521968 </i>
    <i name="e_0_energy">    -63.89521968 </i>
   </energy>
  </scstep>
  <scstep>
   <time name="total">    0.13    0.13</time>
   <energy>
    <i name="e_fr_energy">    -63.89521976 </i>
    <i name="e_wo_entrp">    -63.89521976 </i>
    <i name="e_0_energy">    -63.89521976 </i>
   </energy>
  </scstep>
  <scstep>
   <time name="total">    0.13    0.13</time>
   <energy>
    <i name="e_fr_energy">    -63.89521969 </i>
    <i name="e_wo_entrp">    -63.89521969 </i>
    <i name="e_0_energy">    -63.89521969 </i>
   </energy>
  </scstep>
  <scstep>
   <time name="total">    0.13    0.13</time>
   <energy>
    <i name="e_fr_energy">    -63.89521952 </i>
    <i name="e_wo_entrp">    -63.89521952 </i>
    <i name="e_0_energy">    -63.89521952 </i>
   </energy>
  </scstep>
  <scstep>
   <time name="total">    0.20    0.20</time>
   <energy>
    <i name="e_fr_energy">    -71.87920966 </i>
    <i name="e_wo_entrp">    -71.87920966 </i>
    <i name="e_0_energy">    -71.87920966 </i>
   </energy>
  </scstep>
  <scstep>
   <time name="total">    0.17    0.17</time>
   <energy>
    <i name="e_fr_energy">    -71.32652526 </i>
    <i name="e_wo_entrp">    -71.32652526 </i>
    <i name="e_0_energy">    -71.32652526 </i>
   </energy>
  </scstep>
  <scstep>
   <time name="total">    0.17    0.18</time>
   <energy>
    <i name="e_fr_energy">    -71.41091189 </i>
    <i name="e_wo_entrp">    -71.41091189 </i>
    <i name="e_0_energy">    -71.41091189 </i>
   </energy>
  </scstep>
  <scstep>
   <time name="total">    0.16    0.16</time>
   <energy>
    <i name="e_fr_energy">    -71.41209715 </i>
    <i name="e_wo_entrp">    -71.41209715 </i>
    <i name="e_0_energy">    -71.41209715 </i>
   </energy>
  </scstep>
  <scstep>
   <time name="total">    0.16    0.16</time>
   <energy>
    <i name="e_fr_energy">    -71.41215110 </i>
    <i name="e_wo_entrp">    -71.41215110 </i>
    <i name="e_0_energy">    -71.41215110 </i>
   </energy>
  </scstep>
  <scstep>
   <time name="total">    0.16    0.16</time>
   <energy>
    <i name="e_fr_energy">    -71.41215131 </i>
    <i name="e_wo_entrp">    -71.41215131 </i>
    <i name="e_0_energy">    -71.41215131 </i>
   </energy>
  </scstep>
  <scstep>
   <time name="total">    0.32    0.32</time>
   <energy>
    <i name="e_fr_energy">     -0.32900349 </i>
    <i name="e_wo_entrp">     -0.32900349 </i>
    <i name="e_0_energy">     -0.32900349 </i>
   </energy>
  </scstep>
  <scstep>
   <time name="total">    0.29    0.29</time>
   <energy>
    <i name="e_fr_energy">     -0.32916758 </i>
    <i name="e_wo_entrp">     -0.32916758 </i>
    <i name="e_0_energy">     -0.32916758 </i>
   </energy>
  </scstep>
  <scstep>
   <time name="total">    0.29    0.29</time>
   <energy>
    <i name="e_fr_energy">     -0.32921336 </i>
    <i name="e_wo_entrp">     -0.32921336 </i>
    <i name="e_0_energy">     -0.32921336 </i>
   </energy>
  </scstep>
  <scstep>
   <time name="total">    0.28    0.28</time>
   <energy>
    <i name="e_fr_energy">     -0.32921453 </i>
    <i name="e_wo_entrp">     -0.32921453 </i>
    <i name="e_0_energy">     -0.32921453 </i>
   </energy>
  </scstep>
  <scstep>
   <time name="total">    0.26    0.26</time>
   <energy>
    <i name="e_fr_energy">     -0.32921456 </i>
    <i name="e_wo_entrp">     -0.32921456 </i>
    <i name="e_0_energy">     -0.32921456 </i>
   </energy>
  </scstep>
  <scstep>
   <time name="total">    0.32    0.32</time>
   <energy>
    <i name="e_fr_energy">     -0.40155672 </i>
    <i name="e_wo_entrp">     -0.40155672 </i>
    <i name="e_0_energy">     -0.40155672 </i>
   </energy>
  </scstep>
  <scstep>
   <time name="total">    0.29    0.29</time>
   <energy>
    <i name="e_fr_energy">     -0.40148611 </i>
    <i name="e_wo_entrp">     -0.40148611 </i>
    <i name="e_0_energy">     -0.40148611 </i>
   </energy>
  </scstep>
  <scstep>
   <time name="total">    0.29    0.29</time>
   <energy>
    <i name="e_fr_energy">     -0.40154225 </i>
    <i name="e_wo_entrp">     -0.40154225 </i>
    <i name="e_0_energy">     -0.40154225 </i>
   </energy>
  </scstep>
  <scstep>
   <time name="total">    0.29    0.29</time>
   <energy>
    <i name="e_fr_energy">     -0.40154366 </i>
    <i name="e_wo_entrp">     -0.40154366 </i>
    <i name="e_0_energy">     -0.40154366 </i>
   </energy>
  </scstep>
  <scstep>
   <time name="total">    0.27    0.27</time>
   <energy>
    <i name="e_fr_energy">     -0.40154370 </i>
    <i name="e_wo_entrp">     -0.40154370 </i>
    <i name="e_0_energy">     -0.40154370 </i>
   </energy>
  </scstep>
  <scstep>
   <time name="total">    0.31    0.31</time>
   <energy>
    <i name="e_fr_energy">     -0.53548604 </i>
    <i name="e_wo_entrp">     -0.53548604 </i>
    <i name="e_0_energy">     -0.53548604 </i>
   </energy>
  </scstep>
  <scstep>
   <time name="total">    0.29    0.29</time>
   <energy>
    <i name="e_fr_energy">     -0.53637281 </i>
    <i name="e_wo_entrp">     -0.53637281 </i>
    <i name="e_0_energy">     -0.53637281 </i>
   </energy>
  </scstep>
  <scstep>
   <time name="total">    0.29    0.29</time>
   <energy>
    <i name="e_fr_energy">     -0.53645090 </i>
    <i name="e_wo_entrp">     -0.53645090 </i>
    <i name="e_0_energy">     -0.53645090 </i>
   </energy>
  </scstep>
  <scstep>
   <time name="total">    0.28    0.28</time>
   <energy>
    <i name="e_fr_energy">     -0.53645260 </i>
    <i name="e_wo_entrp">     -0.53645260 </i>
    <i name="e_0_energy">     -0.53645260 </i>
   </energy>
  </scstep>
  <scstep>
   <time name="total">    0.27    0.27</time>
   <energy>
    <i name="e_fr_energy">     -0.53645264 </i>
    <i name="e_wo_entrp">     -0.53645264 </i>
    <i name="e_0_energy">     -0.53645264 </i>
   </energy>
  </scstep>
  <varray name="dielectric_ipa" >
   <v>       3.25838252       0.00000000      -0.00000000 </v>
   <v>       0.00000000       3.25838252       0.00000000 </v>
   <v>      -0.00000000       0.00000000       3.25838252 </v>
  </varray>
  <kpoints>
   <generation param="Gamma">
    <v type="int" name="divisions">       8        8        8 </v>
    <v name="usershift">      0.50000000       0.50000000       0.50000000 </v>
    <v name="genvec1">      0.12500000       0.00000000       0.00000000 </v>
    <v name="genvec2">      0.00000000       0.12500000       0.00000000 </v>
    <v name="genvec3">      0.00000000       0.00000000       0.12500000 </v>
    <v name="shift">      0.50000000       0.50000000       0.50000000 </v>
   </generation>
   <varray name="kpointlist" >
    <v>       0.06250000       0.06250000       0.06250000 </v>
    <v>       0.18750000       0.06250000       0.06250000 </v>
    <v>       0.06250000       0.18750000       0.06250000 </v>
    <v>       0.31250000       0.06250000       0.06250000 </v>
    <v>       0.06250000       0.31250000       0.06250000 </v>
    <v>       0.43750000       0.06250000       0.06250000 </v>
    <v>       0.06250000       0.43750000       0.06250000 </v>
    <v>       0.18750000       0.18750000       0.06250000 </v>
    <v>       0.06250000       0.18750000       0.18750000 </v>
    <v>       0.31250000       0.18750000       0.06250000 </v>
    <v>       0.06250000       0.31250000       0.18750000 </v>
    <v>       0.18750000       0.06250000       0.31250000 </v>
    <v>       0.43750000       0.18750000       0.06250000 </v>
    <v>       0.06250000       0.43750000       0.18750000 </v>
    <v>       0.18750000       0.06250000       0.43750000 </v>
    <v>       0.31250000       0.31250000       0.06250000 </v>
    <v>       0.06250000       0.31250000       0.31250000 </v>
    <v>       0.43750000       0.31250000       0.06250000 </v>
    <v>       0.06250000       0.43750000       0.31250000 </v>
    <v>       0.31250000       0.06250000       0.43750000 </v>
    <v>       0.43750000       0.43750000       0.06250000 </v>
    <v>       0.06250000       0.43750000       0.43750000 </v>
    <v>       0.18750000       0.18750000       0.18750000 </v>
    <v>       0.31250000       0.18750000       0.18750000 </v>
    <v>       0.18750000       0.31250000       0.18750000 </v>
    <v>       0.43750000       0.18750000       0.18750000 </v>
    <v>       0.18750000       0.43750000       0.18750000 </v>
    <v>       0.31250000       0.31250000       0.18750000 </v>
    <v>       0.18750000       0.31250000       0.31250000 </v>
    <v>       0.43750000       0.31250000       0.18750000 </v>
    <v>       0.18750000       0.43750000       0.31250000 </v>
    <v>       0.31250000       0.18750000       0.43750000 </v>
    <v>       0.43750000       0.43750000       0.18750000 </v>
    <v>       0.18750000       0.43750000       0.43750000 </v>
    <v>       0.31250000       0.31250000       0.31250000 </v>
    <v>       0.43750000       0.31250000       0.31250000 </v>
    <v>       0.31250000       0.43750000       0.31250000 </v>
    <v>       0.43750000       0.43750000       0.31250000 </v>
    <v>       0.31250000       0.43750000       0.43750000 </v>
    <v>       0.43750000       0.43750000       0.43750000 </v>
   </varray>
   <varray name="weights" >
    <v>       0.01562500 </v>
    <v>       0.01562500 </v>
    <v>       0.03125000 </v>
    <v>       0.01562500 </v>
    <v>       0.03125000 </v>
    <v>       0.01562500 </v>
    <v>       0.03125000 </v>
    <v>       0.03125000 </v>
    <v>       0.01562500 </v>
    <v>       0.03125000 </v>
    <v>       0.03125000 </v>
    <v>       0.03125000 </v>
    <v>       0.03125000 </v>
    <v>       0.03125000 </v>
    <v>       0.03125000 </v>
    <v>       0.03125000 </v>
    <v>       0.01562500 </v>
    <v>       0.03125000 </v>
    <v>       0.03125000 </v>
    <v>       0.03125000 </v>
    <v>       0.03125000 </v>
    <v>       0.01562500 </v>
    <v>       0.01562500 </v>
    <v>       0.01562500 </v>
    <v>       0.03125000 </v>
    <v>       0.01562500 </v>
    <v>       0.03125000 </v>
    <v>       0.03125000 </v>
    <v>       0.01562500 </v>
    <v>       0.03125000 </v>
    <v>       0.03125000 </v>
    <v>       0.03125000 </v>
    <v>       0.03125000 </v>
    <v>       0.01562500 </v>
    <v>       0.01562500 </v>
    <v>       0.01562500 </v>
    <v>       0.03125000 </v>
    <v>       0.03125000 </v>
    <v>       0.01562500 </v>
    <v>       0.01562500 </v>
   </varray>
   <varray name="tetrahedronlist"  type="int" >
    <v type="int" >        4       23       24       25       28 </v>
    <v type="int" >        4       23       25       25       28 </v>
    <v type="int" >        4       25       25       28       29 </v>
    <v type="int" >        4       24       25       28       28 </v>
    <v type="int" >        4       25       28       28       35 </v>
    <v type="int" >        4       25       28       29       35 </v>
    <v type="int" >        4       24       26       28       30 </v>
    <v type="int" >        4       24       28       28       30 </v>
    <v type="int" >        4       28       28       30       35 </v>
    <v type="int" >        4       26       28       30       30 </v>
    <v type="int" >        4       28       30       30       36 </v>
    <v type="int" >        4       28       30       35       36 </v>
    <v type="int" >        2       26       26       30       30 </v>
    <v type="int" >        4       26       30       30       30 </v>
    <v type="int" >        4       30       30       30       36 </v>
    <v type="int" >        2       30       30       36       36 </v>
    <v type="int" >        4        9       11       23       25 </v>
    <v type="int" >        4       11       23       25       25 </v>
    <v type="int" >        4       11       25       25       29 </v>
    <v type="int" >        4        9       11       11       25 </v>
    <v type="int" >        4       11       11       17       25 </v>
    <v type="int" >        4       11       17       25       29 </v>
    <v type="int" >        2        9        9       11       11 </v>
    <v type="int" >        4        9       11       11       11 </v>
    <v type="int" >        4       11       11       11       17 </v>
    <v type="int" >        2       11       11       17       17 </v>
    <v type="int" >        4       25       28       29       32 </v>
    <v type="int" >        4       25       27       29       32 </v>
    <v type="int" >        4       27       29       31       32 </v>
    <v type="int" >        4       28       29       32       35 </v>
    <v type="int" >        4       29       32       35       37 </v>
    <v type="int" >        4       29       31       32       37 </v>
    <v type="int" >        4       28       30       33       35 </v>
    <v type="int" >        4       28       32       33       35 </v>
    <v type="int" >        4       32       33       35       37 </v>
    <v type="int" >        4       30       33       35       36 </v>
    <v type="int" >        4       33       35       36       38 </v>
    <v type="int" >        4       33       35       37       38 </v>
    <v type="int" >        4       30       30       33       36 </v>
    <v type="int" >        4       30       33       33       36 </v>
    <v type="int" >        4       33       33       36       38 </v>
    <v type="int" >        4       30       33       36       36 </v>
    <v type="int" >        4       33       36       36       38 </v>
    <v type="int" >        4       33       36       38       38 </v>
    <v type="int" >        4       28       30       32       36 </v>
    <v type="int" >        4       30       32       33       36 </v>
    <v type="int" >        4       32       33       36       38 </v>
    <v type="int" >        4       28       32       35       36 </v>
    <v type="int" >        4       32       35       36       37 </v>
    <v type="int" >        4       32       36       37       38 </v>
    <v type="int" >        4       25       27       28       35 </v>
    <v type="int" >        4       27       28       32       35 </v>
    <v type="int" >        4       27       32       35       37 </v>
    <v type="int" >        4       25       27       29       35 </v>
    <v type="int" >        4       27       29       31       35 </v>
    <v type="int" >        4       27       31       35       37 </v>
    <v type="int" >        4       11       14       25       29 </v>
    <v type="int" >        4       14       25       27       29 </v>
    <v type="int" >        4       14       27       29       31 </v>
    <v type="int" >        4       11       14       17       29 </v>
    <v type="int" >        4       14       17       19       29 </v>
    <v type="int" >        4       14       19       29       31 </v>
    <v type="int" >        4       11       11       14       17 </v>
    <v type="int" >        4       11       14       14       17 </v>
    <v type="int" >        4       14       14       17       19 </v>
    <v type="int" >        4       11       14       17       17 </v>
    <v type="int" >        4       14       17       17       19 </v>
    <v type="int" >        4       14       17       19       19 </v>
    <v type="int" >        4       11       17       25       27 </v>
    <v type="int" >        4       11       14       17       27 </v>
    <v type="int" >        4       14       17       19       27 </v>
    <v type="int" >        4       17       25       27       29 </v>
    <v type="int" >        4       17       27       29       31 </v>
    <v type="int" >        4       17       19       27       31 </v>
    <v type="int" >        4       27       31       32       32 </v>
    <v type="int" >        4       27       27       31       32 </v>
    <v type="int" >        4       27       31       31       32 </v>
    <v type="int" >        4       31       32       32       37 </v>
    <v type="int" >        4       31       32       37       37 </v>
    <v type="int" >        4       31       31       32       37 </v>
    <v type="int" >        4       32       33       33       37 </v>
    <v type="int" >        4       32       32       33       37 </v>
    <v type="int" >        4       32       33       37       37 </v>
    <v type="int" >        4       33       33       37       38 </v>
    <v type="int" >        4       33       37       38       38 </v>
    <v type="int" >        4       33       37       37       38 </v>
    <v type="int" >        8       33       33       33       38 </v>
    <v type="int" >        8       33       33       38       38 </v>
    <v type="int" >        8       33       38       38       38 </v>
    <v type="int" >        4       32       32       33       38 </v>
    <v type="int" >        4       32       33       33       38 </v>
    <v type="int" >        4       32       33       38       38 </v>
    <v type="int" >        4       32       32       37       38 </v>
    <v type="int" >        4       32       37       37       38 </v>
    <v type="int" >        4       32       37       38       38 </v>
    <v type="int" >        4       27       27       32       37 </v>
    <v type="int" >        4       27       32       32       37 </v>
    <v type="int" >        4       27       32       37       37 </v>
    <v type="int" >        4       27       27       31       37 </v>
    <v type="int" >        4       27       31       31       37 </v>
    <v type="int" >        4       27       31       37       37 </v>
    <v type="int" >        4       14       14       27       31 </v>
    <v type="int" >        4       14       27       27       31 </v>
    <v type="int" >        4       14       27       31       31 </v>
    <v type="int" >        4       14       14       19       31 </v>
    <v type="int" >        4       14       19       19       31 </v>
    <v type="int" >        4       14       19       31       31 </v>
    <v type="int" >        8       14       14       14       19 </v>
    <v type="int" >        8       14       14       19       19 </v>
    <v type="int" >        8       14       19       19       19 </v>
    <v type="int" >        4       14       19       27       27 </v>
    <v type="int" >        4       14       14       19       27 </v>
    <v type="int" >        4       14       19       19       27 </v>
    <v type="int" >        4       19       27       27       31 </v>
    <v type="int" >        4       19       27       31       31 </v>
    <v type="int" >        4       19       19       27       31 </v>
    <v type="int" >        4       27       28       31       32 </v>
    <v type="int" >        4       25       27       28       31 </v>
    <v type="int" >        4       25       28       29       31 </v>
    <v type="int" >        4       28       31       32       37 </v>
    <v type="int" >        4       28       31       35       37 </v>
    <v type="int" >        4       28       29       31       35 </v>
    <v type="int" >        4       30       32       33       37 </v>
    <v type="int" >        4       28       30       32       37 </v>
    <v type="int" >        4       28       30       35       37 </v>
    <v type="int" >        4       30       33       37       38 </v>
    <v type="int" >        4       30       36       37       38 </v>
    <v type="int" >        4       30       35       36       37 </v>
    <v type="int" >        4       30       33       33       38 </v>
    <v type="int" >        4       30       30       33       38 </v>
    <v type="int" >        4       30       30       36       38 </v>
    <v type="int" >        4       30       33       38       38 </v>
    <v type="int" >        4       30       36       38       38 </v>
    <v type="int" >        4       30       36       36       38 </v>
    <v type="int" >        4       28       32       33       38 </v>
    <v type="int" >        4       28       30       33       38 </v>
    <v type="int" >        4       28       30       36       38 </v>
    <v type="int" >        4       28       32       37       38 </v>
    <v type="int" >        4       28       35       37       38 </v>
    <v type="int" >        4       28       35       36       38 </v>
    <v type="int" >        4       25       27       32       37 </v>
    <v type="int" >        4       25       28       32       37 </v>
    <v type="int" >        4       25       28       35       37 </v>
    <v type="int" >        4       25       27       31       37 </v>
    <v type="int" >        4       25       29       31       37 </v>
    <v type="int" >        4       25       29       35       37 </v>
    <v type="int" >        4       11       14       27       31 </v>
    <v type="int" >        4       11       25       27       31 </v>
    <v type="int" >        4       11       25       29       31 </v>
    <v type="int" >        4       11       14       19       31 </v>
    <v type="int" >        4       11       17       19       31 </v>
    <v type="int" >        4       11       17       29       31 </v>
    <v type="int" >        4       11       14       14       19 </v>
    <v type="int" >        4       11       11       14       19 </v>
    <v type="int" >        4       11       11       17       19 </v>
    <v type="int" >        4       11       14       19       19 </v>
    <v type="int" >        4       11       17       19       19 </v>
    <v type="int" >        4       11       17       17       19 </v>
    <v type="int" >        4       14       19       25       27 </v>
    <v type="int" >        4       11       14       19       25 </v>
    <v type="int" >        4       11       17       19       25 </v>
    <v type="int" >        4       19       25       27       31 </v>
    <v type="int" >        4       19       25       29       31 </v>
    <v type="int" >        4       17       19       25       29 </v>
    <v type="int" >        4       24       25       28       29 </v>
    <v type="int" >        4       23       24       25       29 </v>
    <v type="int" >        4       24       28       29       35 </v>
    <v type="int" >        4       26       28       30       35 </v>
    <v type="int" >        4       24       26       28       35 </v>
    <v type="int" >        4       26       30       35       36 </v>
    <v type="int" >        4       26       30       30       36 </v>
    <v type="int" >        4       26       26       30       36 </v>
    <v type="int" >        4       26       30       36       36 </v>
    <v type="int" >        4       24       28       30       36 </v>
    <v type="int" >        4       24       26       30       36 </v>
    <v type="int" >        4       24       28       35       36 </v>
    <v type="int" >        4       23       25       28       35 </v>
    <v type="int" >        4       23       24       28       35 </v>
    <v type="int" >        4       23       25       29       35 </v>
    <v type="int" >        4        9       11       25       29 </v>
    <v type="int" >        4        9       23       25       29 </v>
    <v type="int" >        4        9       11       17       29 </v>
    <v type="int" >        4        9       11       11       17 </v>
    <v type="int" >        4        9        9       11       17 </v>
    <v type="int" >        4        9       11       17       17 </v>
    <v type="int" >        4       11       17       23       25 </v>
    <v type="int" >        4        9       11       17       23 </v>
    <v type="int" >        4       17       23       25       29 </v>
    <v type="int" >        4       10       23       24       25 </v>
    <v type="int" >        4        8       10       23       25 </v>
    <v type="int" >        4        8       10       12       25 </v>
    <v type="int" >        4       10       24       25       28 </v>
    <v type="int" >        4       10       16       25       28 </v>
    <v type="int" >        4       10       12       16       25 </v>
    <v type="int" >        4       13       24       26       28 </v>
    <v type="int" >        4       10       13       24       28 </v>
    <v type="int" >        4       10       13       16       28 </v>
    <v type="int" >        4       13       26       28       30 </v>
    <v type="int" >        4       13       18       28       30 </v>
    <v type="int" >        4       13       16       18       28 </v>
    <v type="int" >        4       13       26       26       30 </v>
    <v type="int" >        4       13       13       26       30 </v>
    <v type="int" >        4       13       13       18       30 </v>
    <v type="int" >        4       13       26       30       30 </v>
    <v type="int" >        4       13       18       30       30 </v>
    <v type="int" >        4       13       18       18       30 </v>
    <v type="int" >        4       10       24       26       30 </v>
    <v type="int" >        4       10       13       26       30 </v>
    <v type="int" >        4       10       13       18       30 </v>
    <v type="int" >        4       10       24       28       30 </v>
    <v type="int" >        4       10       16       28       30 </v>
    <v type="int" >        4       10       16       18       30 </v>
    <v type="int" >        4        8       23       24       28 </v>
    <v type="int" >        4        8       10       24       28 </v>
    <v type="int" >        4        8       10       16       28 </v>
    <v type="int" >        4        8       23       25       28 </v>
    <v type="int" >        4        8       12       25       28 </v>
    <v type="int" >        4        8       12       16       28 </v>
    <v type="int" >        4        3        9       23       25 </v>
    <v type="int" >        4        3        8       23       25 </v>
    <v type="int" >        4        3        8       12       25 </v>
    <v type="int" >        4        3        9       11       25 </v>
    <v type="int" >        4        3        5       11       25 </v>
    <v type="int" >        4        3        5       12       25 </v>
    <v type="int" >        4        3        9        9       11 </v>
    <v type="int" >        4        3        3        9       11 </v>
    <v type="int" >        4        3        3        5       11 </v>
    <v type="int" >        4        3        9       11       11 </v>
    <v type="int" >        4        3        5       11       11 </v>
    <v type="int" >        4        3        5        5       11 </v>
    <v type="int" >        4        8        9       11       23 </v>
    <v type="int" >        4        3        8        9       11 </v>
    <v type="int" >        4        3        5        8       11 </v>
    <v type="int" >        4        8       11       23       25 </v>
    <v type="int" >        4        8       11       12       25 </v>
    <v type="int" >        4        5        8       11       12 </v>
    <v type="int" >        4        8       10       10       12 </v>
    <v type="int" >        4        8        8       10       12 </v>
    <v type="int" >        4        8       10       12       12 </v>
    <v type="int" >        4       10       10       12       16 </v>
    <v type="int" >        4       10       12       16       16 </v>
    <v type="int" >        4       10       12       12       16 </v>
    <v type="int" >        4       10       13       13       16 </v>
    <v type="int" >        4       10       10       13       16 </v>
    <v type="int" >        4       10       13       16       16 </v>
    <v type="int" >        4       13       13       16       18 </v>
    <v type="int" >        4       13       16       18       18 </v>
    <v type="int" >        4       13       16       16       18 </v>
    <v type="int" >        8       13       13       13       18 </v>
    <v type="int" >        8       13       13       18       18 </v>
    <v type="int" >        8       13       18       18       18 </v>
    <v type="int" >        4       10       10       13       18 </v>
    <v type="int" >        4       10       13       13       18 </v>
    <v type="int" >        4       10       13       18       18 </v>
    <v type="int" >        4       10       10       16       18 </v>
    <v type="int" >        4       10       16       16       18 </v>
    <v type="int" >        4       10       16       18       18 </v>
    <v type="int" >        4        8        8       10       16 </v>
    <v type="int" >        4        8       10       10       16 </v>
    <v type="int" >        4        8       10       16       16 </v>
    <v type="int" >        4        8        8       12       16 </v>
    <v type="int" >        4        8       12       12       16 </v>
    <v type="int" >        4        8       12       16       16 </v>
    <v type="int" >        4        3        3        8       12 </v>
    <v type="int" >        4        3        8        8       12 </v>
    <v type="int" >        4        3        8       12       12 </v>
    <v type="int" >        4        3        3        5       12 </v>
    <v type="int" >        4        3        5        5       12 </v>
    <v type="int" >        4        3        5       12       12 </v>
    <v type="int" >        8        3        3        3        5 </v>
    <v type="int" >        8        3        3        5        5 </v>
    <v type="int" >        8        3        5        5        5 </v>
    <v type="int" >        4        3        5        8        8 </v>
    <v type="int" >        4        3        3        5        8 </v>
    <v type="int" >        4        3        5        5        8 </v>
    <v type="int" >        4        5        8        8       12 </v>
    <v type="int" >        4        5        8       12       12 </v>
    <v type="int" >        4        5        5        8       12 </v>
    <v type="int" >        4        8       10       12       24 </v>
    <v type="int" >        4        8       12       23       24 </v>
    <v type="int" >        4       12       23       24       25 </v>
    <v type="int" >        4       10       12       16       24 </v>
    <v type="int" >        4       12       16       24       28 </v>
    <v type="int" >        4       12       24       25       28 </v>
    <v type="int" >        4       10       13       16       26 </v>
    <v type="int" >        4       10       16       24       26 </v>
    <v type="int" >        4       16       24       26       28 </v>
    <v type="int" >        4       13       16       18       26 </v>
    <v type="int" >        4       16       18       26       30 </v>
    <v type="int" >        4       16       26       28       30 </v>
    <v type="int" >        4       13       13       18       26 </v>
    <v type="int" >        4       13       18       26       26 </v>
    <v type="int" >        4       18       26       26       30 </v>
    <v type="int" >        4       13       18       18       26 </v>
    <v type="int" >        4       18       18       26       30 </v>
    <v type="int" >        4       18       26       30       30 </v>
    <v type="int" >        4       10       13       18       24 </v>
    <v type="int" >        4       13       18       24       26 </v>
    <v type="int" >        4       18       24       26       30 </v>
    <v type="int" >        4       10       16       18       24 </v>
    <v type="int" >        4       16       18       24       28 </v>
    <v type="int" >        4       18       24       28       30 </v>
    <v type="int" >        4        8       10       16       23 </v>
    <v type="int" >        4       10       16       23       24 </v>
    <v type="int" >        4       16       23       24       28 </v>
    <v type="int" >        4        8       12       16       23 </v>
    <v type="int" >        4       12       16       23       25 </v>
    <v type="int" >        4       16       23       25       28 </v>
    <v type="int" >        4        3        8        9       12 </v>
    <v type="int" >        4        8        9       12       23 </v>
    <v type="int" >        4        9       12       23       25 </v>
    <v type="int" >        4        3        5        9       12 </v>
    <v type="int" >        4        5        9       11       12 </v>
    <v type="int" >        4        9       11       12       25 </v>
    <v type="int" >        4        3        3        5        9 </v>
    <v type="int" >        4        3        5        9        9 </v>
    <v type="int" >        4        5        9        9       11 </v>
    <v type="int" >        4        3        5        5        9 </v>
    <v type="int" >        4        5        5        9       11 </v>
    <v type="int" >        4        5        9       11       11 </v>
    <v type="int" >        4        3        5        8       23 </v>
    <v type="int" >        4        3        5        9       23 </v>
    <v type="int" >        4        5        9       11       23 </v>
    <v type="int" >        4        5        8       12       23 </v>
    <v type="int" >        4        5       12       23       25 </v>
    <v type="int" >        4        5       11       23       25 </v>
    <v type="int" >        4       29       31       35       37 </v>
    <v type="int" >        4       29       31       31       37 </v>
    <v type="int" >        8       31       31       34       37 </v>
    <v type="int" >        4       31       35       37       37 </v>
    <v type="int" >        8       31       37       37       39 </v>
    <v type="int" >        4       31       34       37       39 </v>
    <v type="int" >        4       35       36       37       38 </v>
    <v type="int" >        4       35       37       37       38 </v>
    <v type="int" >        8       37       37       38       39 </v>
    <v type="int" >        4       36       37       38       38 </v>
    <v type="int" >        8       37       38       38       40 </v>
    <v type="int" >        4       37       38       39       40 </v>
    <v type="int" >        2       36       36       38       38 </v>
    <v type="int" >        4       36       38       38       38 </v>
    <v type="int" >       12       38       38       38       40 </v>
    <v type="int" >       10       38       38       40       40 </v>
    <v type="int" >        4       17       19       29       31 </v>
    <v type="int" >        4       19       29       31       31 </v>
    <v type="int" >        8       19       31       31       34 </v>
    <v type="int" >        4       17       19       19       31 </v>
    <v type="int" >        8       19       19       22       31 </v>
    <v type="int" >        4       19       22       31       34 </v>
    <v type="int" >        2       17       17       19       19 </v>
    <v type="int" >        4       17       19       19       19 </v>
    <v type="int" >       12       19       19       19       22 </v>
    <v type="int" >       10       19       19       22       22 </v>
    <v type="int" >        4       31       34       37       37 </v>
    <v type="int" >        4       31       34       34       37 </v>
    <v type="int" >        4       34       37       37       39 </v>
    <v type="int" >        4       34       37       39       39 </v>
[...]
        <r>  0.0085  0.0315  0.0000 </r>
       </set>
       <set comment="band 10">
        <r>  0.0019  0.0314  0.1754 </r>
        <r>  0.0426  0.0128  0.0000 </r>
       </set>
       <set comment="band 11">
        <r>  0.0000  0.0037  0.2884 </r>
        <r>  0.0000  0.0020  0.0000 </r>
       </set>
       <set comment="band 12">
        <r>  0.0000  0.0488  0.2324 </r>
        <r>  0.0000  0.0599  0.0000 </r>
       </set>
      </set>
      <set comment="kpoint 9">
       <set comment="band 1">
        <r>  0.9758  0.0000  0.0000 </r>
        <r>  0.0000  0.0001  0.0000 </r>
       </set>
       <set comment="band 2">
        <r>  0.0002  0.0037  0.0005 </r>
        <r>  0.7778  0.0000  0.0000 </r>
       </set>
       <set comment="band 3">
        <r>  0.0000  0.6991  0.0001 </r>
        <r>  0.0092  0.0137  0.0000 </r>
       </set>
       <set comment="band 4">
        <r>  0.0008  0.7157  0.0003 </r>
        <r>  0.0027  0.0141  0.0000 </r>
       </set>
       <set comment="band 5">
        <r>  0.0001  0.8146  0.0001 </r>
        <r>  0.0000  0.0005  0.0000 </r>
       </set>
       <set comment="band 6">
        <r>  0.0053  0.0595  0.0027 </r>
        <r>  0.0000  0.5482  0.0000 </r>
       </set>
       <set comment="band 7">
        <r>  0.0000  0.0539  0.0041 </r>
        <r>  0.0001  0.5810  0.0000 </r>
       </set>
       <set comment="band 8">
        <r>  0.0001  0.0104  0.0024 </r>
        <r>  0.0001  0.6436  0.0000 </r>
       </set>
       <set comment="band 9">
        <r>  0.0362  0.0066  0.1831 </r>
        <r>  0.0040  0.0224  0.0000 </r>
       </set>
       <set comment="band 10">
        <r>  0.0003  0.0168  0.1890 </r>
        <r>  0.0455  0.0155  0.0000 </r>
       </set>
       <set comment="band 11">
        <r>  0.0001  0.0020  0.2827 </r>
        <r>  0.0000  0.0156  0.0000 </r>
       </set>
       <set comment="band 12">
        <r>  0.0018  0.0071  0.2785 </r>
        <r>  0.0001  0.0189  0.0000 </r>
       </set>
      </set>
      <set comment="kpoint 10">
       <set comment="band 1">
        <r>  0.9783  0.0000  0.0000 </r>
        <r>  0.0000  0.0000  0.0000 </r>
       </set>
       <set comment="band 2">
        <r>  0.0000  0.0009  0.0007 </r>
        <r>  0.7857  0.0000  0.0000 </r>
       </set>
       <set comment="band 3">
        <r>  0.0000  0.6903  0.0001 </r>
        <r>  0.0000  0.0183  0.0000 </r>
       </set>
       <set comment="band 4">
        <r>  0.0002  0.6932  0.0000 </r>
        <r>  0.0028  0.0168  0.0000 </r>
       </set>
       <set comment="band 5">
        <r>  0.0001  0.8189  0.0001 </r>
        <r>  0.0000  0.0001  0.0000 </r>
       </set>
       <set comment="band 6">
        <r>  0.0012  0.0716  0.0021 </r>
        <r>  0.0000  0.5632  0.0000 </r>
       </set>
       <set comment="band 7">
        <r>  0.0000  0.0805  0.0009 </r>
        <r>  0.0000  0.5678  0.0000 </r>
       </set>
       <set comment="band 8">
        <r>  0.0000  0.0028  0.0015 </r>
        <r>  0.0003  0.6506  0.0000 </r>
       </set>
       <set comment="band 9">
        <r>  0.0413  0.0046  0.1674 </r>
        <r>  0.0053  0.0052  0.0000 </r>
       </set>
       <set comment="band 10">
        <r>  0.0032  0.0043  0.1895 </r>
        <r>  0.0468  0.0128  0.0000 </r>
       </set>
       <set comment="band 11">
        <r>  0.0000  0.0011  0.2788 </r>
        <r>  0.0000  0.0072  0.0000 </r>
       </set>
       <set comment="band 12">
        <r>  0.0000  0.0024  0.2790 </r>
        <r>  0.0000  0.0129  0.0000 </r>
       </set>
      </set>
      <set comment="kpoint 11">
       <set comment="band 1">
        <r>  0.9666  0.0001  0.0000 </r>
        <r>  0.0009  0.0001  0.0000 </r>
       </set>
       <set comment="band 2">
        <r>  0.0044  0.0045  0.0002 </r>
        <r>  0.7698  0.0000  0.0000 </r>
       </set>
       <set comment="band 3">
        <r>  0.0000  0.7553  0.0007 </r>
        <r>  0.0000  0.0101  0.0000 </r>
       </set>
       <set comment="band 4">
        <r>  0.0000  0.7553  0.0007 </r>
        <r>  0.0000  0.0101  0.0000 </r>
       </set>
       <set comment="band 5">
        <r>  0.0011  0.7759  0.0000 </r>
        <r>  0.0160  0.0006  0.0000 </r>
       </set>
       <set comment="band 6">
        <r>  0.0096  0.0059  0.0020 </r>
        <r>  0.0016  0.5894  0.0000 </r>
       </set>
       <set comment="band 7">
        <r>  0.0000  0.0408  0.0047 </r>
        <r>  0.0000  0.6005  0.0000 </r>
       </set>
       <set comment="band 8">
        <r>  0.0000  0.0408  0.0047 </r>
        <r>  0.0000  0.6005  0.0000 </r>
       </set>
       <set comment="band 9">
        <r>  0.0000  0.0257  0.2311 </r>
        <r>  0.0000  0.0253  0.0000 </r>
       </set>
       <set comment="band 10">
        <r>  0.0000  0.0257  0.2311 </r>
        <r>  0.0000  0.0253  0.0000 </r>
       </set>
       <set comment="band 11">
        <r>  0.0733  0.0469  0.0319 </r>
        <r>  0.0662  0.0625  0.0000 </r>
       </set>
       <set comment="band 12">
        <r>  0.0000  0.0015  0.2746 </r>
        <r>  0.0000  0.0398  0.0000 </r>
       </set>
      </set>
      <set comment="kpoint 12">
       <set comment="band 1">
        <r>  0.9713  0.0001  0.0000 </r>
        <r>  0.0004  0.0001  0.0000 </r>
       </set>
       <set comment="band 2">
        <r>  0.0021  0.0050  0.0003 </r>
        <r>  0.7721  0.0000  0.0000 </r>
       </set>
       <set comment="band 3">
        <r>  0.0001  0.7271  0.0005 </r>
        <r>  0.0084  0.0096  0.0000 </r>
       </set>
       <set comment="band 4">
        <r>  0.0000  0.7716  0.0007 </r>
        <r>  0.0000  0.0048  0.0000 </r>
       </set>
       <set comment="band 5">
        <r>  0.0014  0.7617  0.0001 </r>
        <r>  0.0089  0.0067  0.0000 </r>
       </set>
       <set comment="band 6">
        <r>  0.0078  0.0359  0.0028 </r>
        <r>  0.0006  0.5589  0.0000 </r>
       </set>
       <set comment="band 7">
        <r>  0.0000  0.0191  0.0091 </r>
        <r>  0.0000  0.5926  0.0000 </r>
       </set>
       <set comment="band 8">
        <r>  0.0008  0.0383  0.0021 </r>
        <r>  0.0002  0.6115  0.0000 </r>
       </set>
       <set comment="band 9">
        <r>  0.0000  0.0316  0.2491 </r>
        <r>  0.0000  0.0151  0.0000 </r>
       </set>
       <set comment="band 10">
        <r>  0.0434  0.0306  0.1247 </r>
        <r>  0.0446  0.0434  0.0000 </r>
       </set>
       <set comment="band 11">
        <r>  0.0033  0.0381  0.2130 </r>
        <r>  0.0119  0.0422  0.0000 </r>
       </set>
       <set comment="band 12">
        <r>  0.0000  0.0021  0.2357 </r>
        <r>  0.0000  0.0870  0.0000 </r>
       </set>
      </set>
      <set comment="kpoint 13">
       <set comment="band 1">
        <r>  0.9747  0.0000  0.0000 </r>
        <r>  0.0001  0.0001  0.0000 </r>
       </set>
       <set comment="band 2">
        <r>  0.0003  0.0056  0.0003 </r>
        <r>  0.7733  0.0001  0.0000 </r>
       </set>
       <set comment="band 3">
        <r>  0.0000  0.7103  0.0001 </r>
        <r>  0.0170  0.0082  0.0000 </r>
       </set>
       <set comment="band 4">
        <r>  0.0016  0.7517  0.0003 </r>
        <r>  0.0012  0.0122  0.0000 </r>
       </set>
       <set comment="band 5">
        <r>  0.0000  0.7845  0.0006 </r>
        <r>  0.0000  0.0006  0.0000 </r>
       </set>
       <set comment="band 6">
        <r>  0.0077  0.0552  0.0031 </r>
        <r>  0.0001  0.5351  0.0000 </r>
       </set>
       <set comment="band 7">
        <r>  0.0000  0.0024  0.0122 </r>
        <r>  0.0000  0.5874  0.0000 </r>
       </set>
       <set comment="band 8">
        <r>  0.0001  0.0371  0.0006 </r>
        <r>  0.0001  0.6265  0.0000 </r>
       </set>
       <set comment="band 9">
        <r>  0.0000  0.0383  0.2707 </r>
        <r>  0.0000  0.0025  0.0000 </r>
       </set>
       <set comment="band 10">
        <r>  0.0080  0.0190  0.2066 </r>
        <r>  0.0435  0.0073  0.0000 </r>
       </set>
       <set comment="band 11">
        <r>  0.0468  0.0098  0.1479 </r>
        <r>  0.0023  0.0518  0.0000 </r>
       </set>
       <set comment="band 12">
        <r>  0.0000  0.0005  0.2069 </r>
        <r>  0.0000  0.1260  0.0000 </r>
       </set>
      </set>
      <set comment="kpoint 14">
       <set comment="band 1">
        <r>  0.9750  0.0001  0.0000 </r>
        <r>  0.0002  0.0001  0.0000 </r>
       </set>
       <set comment="band 2">
        <r>  0.0010  0.0037  0.0004 </r>
        <r>  0.7780  0.0001  0.0000 </r>
       </set>
       <set comment="band 3">
        <r>  0.0000  0.7224  0.0006 </r>
        <r>  0.0000  0.0124  0.0000 </r>
       </set>
       <set comment="band 4">
        <r>  0.0010  0.7336  0.0002 </r>
        <r>  0.0116  0.0069  0.0000 </r>
       </set>
       <set comment="band 5">
        <r>  0.0006  0.7742  0.0005 </r>
        <r>  0.0011  0.0048  0.0000 </r>
       </set>
       <set comment="band 6">
        <r>  0.0030  0.0282  0.0081 </r>
        <r>  0.0001  0.5612  0.0000 </r>
       </set>
       <set comment="band 7">
        <r>  0.0000  0.0529  0.0058 </r>
        <r>  0.0000  0.5696  0.0000 </r>
       </set>
       <set comment="band 8">
        <r>  0.0024  0.0266  0.0025 </r>
        <r>  0.0006  0.6061  0.0000 </r>
       </set>
       <set comment="band 9">
        <r>  0.0267  0.0301  0.1880 </r>
        <r>  0.0173  0.0273  0.0000 </r>
       </set>
       <set comment="band 10">
        <r>  0.0013  0.0198  0.2166 </r>
        <r>  0.0299  0.0247  0.0000 </r>
       </set>
       <set comment="band 11">
        <r>  0.0000  0.0152  0.2688 </r>
        <r>  0.0000  0.0271  0.0000 </r>
       </set>
       <set comment="band 12">
        <r>  0.0118  0.0079  0.2151 </r>
        <r>  0.0002  0.0635  0.0000 </r>
       </set>
      </set>
      <set comment="kpoint 15">
       <set comment="band 1">
        <r>  0.9780  0.0000  0.0000 </r>
        <r>  0.0000  0.0001  0.0000 </r>
       </set>
       <set comment="band 2">
        <r>  0.0001  0.0028  0.0005 </r>
        <r>  0.7823  0.0001  0.0000 </r>
       </set>
       <set comment="band 3">
        <r>  0.0000  0.7072  0.0001 </r>
        <r>  0.0076  0.0113  0.0000 </r>
       </set>
       <set comment="band 4">
        <r>  0.0008  0.7245  0.0004 </r>
        <r>  0.0015  0.0120  0.0000 </r>
       </set>
       <set comment="band 5">
        <r>  0.0005  0.7835  0.0005 </r>
        <r>  0.0001  0.0022  0.0000 </r>
       </set>
       <set comment="band 6">
        <r>  0.0022  0.0376  0.0083 </r>
        <r>  0.0000  0.5521  0.0000 </r>
       </set>
       <set comment="band 7">
        <r>  0.0008  0.0379  0.0084 </r>
        <r>  0.0001  0.5606  0.0000 </r>
       </set>
       <set comment="band 8">
        <r>  0.0003  0.0375  0.0013 </r>
        <r>  0.0006  0.6107  0.0000 </r>
       </set>
       <set comment="band 9">
        <r>  0.0001  0.0054  0.2168 </r>
        <r>  0.0419  0.0331  0.0000 </r>
       </set>
       <set comment="band 10">
        <r>  0.0343  0.0296  0.1776 </r>
        <r>  0.0001  0.0096  0.0000 </r>
       </set>
       <set comment="band 11">
        <r>  0.0025  0.0230  0.2568 </r>
        <r>  0.0000  0.0215  0.0000 </r>
       </set>
       <set comment="band 12">
        <r>  0.0011  0.0055  0.2399 </r>
        <r>  0.0000  0.1067  0.0000 </r>
       </set>
      </set>
      <set comment="kpoint 16">
       <set comment="band 1">
        <r>  0.9806  0.0000  0.0000 </r>
        <r>  0.0000  0.0000  0.0000 </r>
       </set>
       <set comment="band 2">
        <r>  0.0000  0.0006  0.0006 </r>
        <r>  0.7890  0.0000  0.0000 </r>
       </set>
       <set comment="band 3">
        <r>  0.0000  0.7035  0.0002 </r>
        <r>  0.0000  0.0140  0.0000 </r>
       </set>
       <set comment="band 4">
        <r>  0.0002  0.7048  0.0001 </r>
        <r>  0.0021  0.0132  0.0000 </r>
       </set>
       <set comment="band 5">
        <r>  0.0005  0.7913  0.0004 </r>
        <r>  0.0000  0.0005  0.0000 </r>
       </set>
       <set comment="band 6">
        <r>  0.0005  0.0407  0.0089 </r>
        <r>  0.0001  0.5527  0.0000 </r>
       </set>
       <set comment="band 7">
        <r>  0.0000  0.0594  0.0065 </r>
        <r>  0.0000  0.5523  0.0000 </r>
       </set>
       <set comment="band 8">
        <r>  0.0002  0.0192  0.0054 </r>
        <r>  0.0012  0.6007  0.0000 </r>
       </set>
       <set comment="band 9">
        <r>  0.0003  0.0008  0.2049 </r>
        <r>  0.0409  0.0662  0.0000 </r>
       </set>
       <set comment="band 10">
        <r>  0.0388  0.0363  0.1609 </r>
        <r>  0.0005  0.0028  0.0000 </r>
       </set>
       <set comment="band 11">
        <r>  0.0000  0.0073  0.2641 </r>
        <r>  0.0000  0.0571  0.0000 </r>
       </set>
       <set comment="band 12">
        <r>  0.0000  0.0099  0.2599 </r>
        <r>  0.0001  0.0709  0.0000 </r>
       </set>
      </set>
      <set comment="kpoint 17">
       <set comment="band 1">
        <r>  0.9790  0.0001  0.0000 </r>
        <r>  0.0001  0.0000  0.0000 </r>
       </set>
       <set comment="band 2">
        <r>  0.0005  0.0023  0.0004 </r>
        <r>  0.7844  0.0001  0.0000 </r>
       </set>
       <set comment="band 3">
        <r>  0.0016  0.7286  0.0000 </r>
        <r>  0.0082  0.0102  0.0000 </r>
       </set>
       <set comment="band 4">
        <r>  0.0000  0.7422  0.0006 </r>
        <r>  0.0000  0.0061  0.0000 </r>
       </set>
       <set comment="band 5">
        <r>  0.0000  0.7422  0.0006 </r>
        <r>  0.0000  0.0061  0.0000 </r>
       </set>
       <set comment="band 6">
        <r>  0.0000  0.0247  0.0117 </r>
        <r>  0.0000  0.5556  0.0000 </r>
       </set>
       <set comment="band 7">
        <r>  0.0000  0.0247  0.0117 </r>
        <r>  0.0000  0.5556  0.0000 </r>
       </set>
       <set comment="band 8">
        <r>  0.0028  0.0492  0.0014 </r>
        <r>  0.0009  0.5805  0.0000 </r>
       </set>
       <set comment="band 9">
        <r>  0.0027  0.0010  0.2397 </r>
        <r>  0.0308  0.0222  0.0000 </r>
       </set>
       <set comment="band 10">
        <r>  0.0000  0.0206  0.2495 </r>
        <r>  0.0000  0.0797  0.0000 </r>
       </set>
       <set comment="band 11">
        <r>  0.0000  0.0206  0.2495 </r>
        <r>  0.0000  0.0797  0.0000 </r>
       </set>
       <set comment="band 12">
        <r>  0.0000  0.0565  0.2280 </r>
        <r>  0.0000  0.0744  0.0000 </r>
       </set>
      </set>
      <set comment="kpoint 18">
       <set comment="band 1">
        <r>  0.9813  0.0000  0.0000 </r>
        <r>  0.0000  0.0000  0.0000 </r>
       </set>
       <set comment="band 2">
        <r>  0.0001  0.0014  0.0004 </r>
        <r>  0.7889  0.0000  0.0000 </r>
       </set>
       <set comment="band 3">
        <r>  0.0001  0.7175  0.0001 </r>
        <r>  0.0040  0.0086  0.0000 </r>
       </set>
       <set comment="band 4">
        <r>  0.0011  0.7315  0.0003 </r>
        <r>  0.0007  0.0106  0.0000 </r>
       </set>
       <set comment="band 5">
        <r>  0.0000  0.7582  0.0005 </r>
        <r>  0.0000  0.0008  0.0000 </r>
       </set>
       <set comment="band 6">
        <r>  0.0000  0.0032  0.0156 </r>
        <r>  0.0000  0.5471  0.0000 </r>
       </set>
       <set comment="band 7">
        <r>  0.0008  0.0430  0.0099 </r>
        <r>  0.0000  0.5397  0.0000 </r>
       </set>
       <set comment="band 8">
        <r>  0.0004  0.0408  0.0053 </r>
        <r>  0.0010  0.5756  0.0000 </r>
       </set>
       <set comment="band 9">
        <r>  0.0015  0.0002  0.2356 </r>
        <r>  0.0285  0.0595  0.0000 </r>
       </set>
       <set comment="band 10">
        <r>  0.0197  0.0240  0.1954 </r>
        <r>  0.0010  0.0390  0.0000 </r>
       </set>
       <set comment="band 11">
        <r>  0.0000  0.0094  0.2396 </r>
        <r>  0.0000  0.1581  0.0000 </r>
       </set>
       <set comment="band 12">
        <r>  0.0000  0.0788  0.2267 </r>
        <r>  0.0000  0.0281  0.0000 </r>
       </set>
      </set>
      <set comment="kpoint 19">
       <set comment="band 1">
        <r>  0.9831  0.0000  0.0000 </r>
        <r>  0.0000  0.0000  0.0000 </r>
       </set>
       <set comment="band 2">
        <r>  0.0000  0.0003  0.0003 </r>
        <r>  0.7938  0.0000  0.0000 </r>
       </set>
       <set comment="band 3">
        <r>  0.0002  0.7228  0.0001 </r>
        <r>  0.0011  0.0076  0.0000 </r>
       </set>
       <set comment="band 4">
        <r>  0.0000  0.7249  0.0002 </r>
        <r>  0.0000  0.0069  0.0000 </r>
       </set>
       <set comment="band 5">
        <r>  0.0004  0.7600  0.0004 </r>
        <r>  0.0000  0.0009  0.0000 </r>
       </set>
       <set comment="band 6">
        <r>  0.0001  0.0101  0.0156 </r>
        <r>  0.0001  0.5359  0.0000 </r>
       </set>
       <set comment="band 7">
        <r>  0.0000  0.0278  0.0134 </r>
        <r>  0.0000  0.5343  0.0000 </r>
       </set>
       <set comment="band 8">
        <r>  0.0001  0.0257  0.0108 </r>
        <r>  0.0011  0.5519  0.0000 </r>
       </set>
       <set comment="band 9">
        <r>  0.0011  0.0019  0.2299 </r>
        <r>  0.0225  0.1158  0.0000 </r>
       </set>
       <set comment="band 10">
        <r>  0.0125  0.0302  0.2034 </r>
        <r>  0.0012  0.0953  0.0000 </r>
       </set>
       <set comment="band 11">
        <r>  0.0000  0.0102  0.2528 </r>
        <r>  0.0000  0.1326  0.0000 </r>
       </set>
       <set comment="band 12">
        <r>  0.0131  0.0637  0.1926 </r>
        <r>  0.0000  0.0740  0.0000 </r>
       </set>
      </set>
      <set comment="kpoint 20">
       <set comment="band 1">
        <r>  0.9854  0.0000  0.0000 </r>
        <r>  0.0000  0.0000  0.0000 </r>
       </set>
       <set comment="band 2">
        <r>  0.0000  0.0001  0.0001 </r>
        <r>  0.7974  0.0000  0.0000 </r>
       </set>
       <set comment="band 3">
        <r>  0.0002  0.7364  0.0000 </r>
        <r>  0.0002  0.0033  0.0000 </r>
       </set>
       <set comment="band 4">
        <r>  0.0000  0.7427  0.0001 </r>
        <r>  0.0000  0.0009  0.0000 </r>
       </set>
       <set comment="band 5">
        <r>  0.0000  0.7427  0.0001 </r>
        <r>  0.0000  0.0009  0.0000 </r>
       </set>
       <set comment="band 6">
        <r>  0.0000  0.0036  0.0178 </r>
        <r>  0.0000  0.5242  0.0000 </r>
       </set>
       <set comment="band 7">
        <r>  0.0000  0.0036  0.0178 </r>
        <r>  0.0000  0.5242  0.0000 </r>
       </set>
       <set comment="band 8">
        <r>  0.0000  0.0132  0.0158 </r>
        <r>  0.0005  0.5290  0.0000 </r>
       </set>
       <set comment="band 9">
        <r>  0.0008  0.0057  0.2458 </r>
        <r>  0.0081  0.1655  0.0000 </r>
       </set>
       <set comment="band 10">
        <r>  0.0000  0.0027  0.2571 </r>
        <r>  0.0000  0.2071  0.0000 </r>
       </set>
       <set comment="band 11">
        <r>  0.0000  0.0027  0.2571 </r>
        <r>  0.0000  0.2071  0.0000 </r>
       </set>
       <set comment="band 12">
        <r>  0.0001  0.1513  0.0893 </r>
        <r>  0.0000  0.0119  0.0000 </r>
       </set>
      </set>
     </set>
    </set>
   </array>
  </projected>
 </calculation>
 <structure name="finalpos" >
  <crystal>
   <varray name="basis" >
    <v>       4.07544864       0.00000000       0.00000000 </v>
    <v>       0.00000000       4.07544864       0.00000000 </v>
    <v>       0.00000000       0.00000000       4.07544864 </v>
   </varray>
   <i name="volume">     67.69027413 </i>
   <varray name="rec_basis" >
    <v>       0.24537176       0.00000000       0.00000000 </v>
    <v>       0.00000000       0.24537176       0.00000000 </v>
    <v>       0.00000000       0.00000000       0.24537176 </v>
   </varray>
  </crystal>
  <varray name="positions" >
   <v>       0.00000000       0.00000000       0.00000000 </v>
   <v>       0.50000000       0.50000000       0.50000000 </v>
  </varray>
 </structure>
</modeling>
