       N       E                     dE             d eps       ncg     rms          rms(c)
DAV:   1     0.234399629141E+04    0.23440E+04   -0.12288E+05  1128   0.750E+02
DAV:   2     0.346908826776E+02   -0.23093E+04   -0.22349E+04  1404   0.196E+02
DAV:   3    -0.174822647455E+03   -0.20951E+03   -0.20852E+03  1360   0.663E+01
DAV:   4    -0.178023291757E+03   -0.32006E+01   -0.31934E+01  1336   0.961E+00
DAV:   5    -0.178085988708E+03   -0.62697E-01   -0.62651E-01  1328   0.120E+00    0.259E+01
DAV:   6    -0.172340233356E+03    0.57458E+01   -0.31550E+01  1248   0.664E+00    0.140E+01
DAV:   7    -0.175040415490E+03   -0.27002E+01   -0.59601E+00  1304   0.325E+00    0.945E+00
DAV:   8    -0.177118251248E+03   -0.20778E+01   -0.12054E+00  1352   0.134E+00    0.518E+00
DAV:   9    -0.178203400069E+03   -0.10851E+01   -0.58078E-01  1288   0.100E+00    0.135E+00
DAV:  10    -0.178368926196E+03   -0.16553E+00   -0.96132E-02  1280   0.407E-01    0.754E-01
DAV:  11    -0.178412159752E+03   -0.43234E-01   -0.13242E-02  1304   0.167E-01    0.416E-01
DAV:  12    -0.178435768747E+03   -0.23609E-01   -0.13970E-02  1216   0.163E-01    0.919E-02
DAV:  13    -0.178436322661E+03   -0.55391E-03   -0.72768E-04  1360   0.380E-02    0.508E-02
DAV:  14    -0.178436473942E+03   -0.15128E-03   -0.43753E-05  1056   0.103E-02    0.290E-02
DAV:  15    -0.178436598981E+03   -0.12504E-03   -0.44505E-05  1056   0.106E-02    0.929E-03
DAV:  16    -0.178436616436E+03   -0.17455E-04   -0.62447E-06   880   0.461E-03    0.549E-03
DAV:  17    -0.178436622687E+03   -0.62510E-05   -0.26188E-06   784   0.379E-03
   1 F= -.17843662E+03 E0= -.17843662E+03  d E =-.178437E+03  mag=     0.9998
       N       E                     dE             d eps       ncg     rms          rms(c)
DAV:   1    -0.178457095693E+03   -0.20479E-01   -0.25268E+00  1168   0.219E+00    0.564E-01
DAV:   2    -0.178465503281E+03   -0.84076E-02   -0.93732E-02  1232   0.431E-01    0.253E-01
DAV:   3    -0.178465155033E+03    0.34825E-03   -0.89491E-04  1376   0.518E-02    0.168E-01
DAV:   4    -0.178464908851E+03    0.24618E-03   -0.58459E-04  1352   0.414E-02    0.941E-02
DAV:   5    -0.178464902969E+03    0.58813E-05   -0.19342E-04  1344   0.209E-02    0.368E-02
DAV:   6    -0.178464894821E+03    0.81481E-05   -0.71589E-06   904   0.865E-03
   2 F= -.17846489E+03 E0= -.17846489E+03  d E =-.282721E-01  mag=     1.0000
       N       E                     dE             d eps       ncg     rms          rms(c)
DAV:   1    -0.178454933652E+03    0.99693E-02   -0.22711E+01  1128   0.658E+00    0.170E+00
DAV:   2    -0.178531286368E+03   -0.76353E-01   -0.85342E-01  1240   0.131E+00    0.762E-01
DAV:   3    -0.178528186109E+03    0.31003E-02   -0.83577E-03  1376   0.159E-01    0.508E-01
DAV:   4    -0.178526153984E+03    0.20321E-02   -0.46090E-03  1344   0.117E-01    0.295E-01
DAV:   5    -0.178526012945E+03    0.14104E-03   -0.16924E-03  1336   0.649E-02    0.120E-01
DAV:   6    -0.178525945141E+03    0.67804E-04   -0.91802E-05  1384   0.282E-02    0.633E-02
DAV:   7    -0.178525914877E+03    0.30265E-04   -0.57583E-05  1256   0.314E-02    0.137E-02
DAV:   8    -0.178525921366E+03   -0.64900E-05   -0.10374E-04  1328   0.155E-02    0.197E-02
DAV:   9    -0.178525921352E+03    0.14192E-07   -0.52404E-06   736   0.372E-03
   3 F= -.17852592E+03 E0= -.17852592E+03  d E =-.892987E-01  mag=     1.0000
       N       E                     dE             d eps       ncg     rms          rms(c)
DAV:   1    -0.178262001868E+03    0.26392E+00   -0.90642E+01  1144   0.132E+01    0.351E+00
DAV:   2    -0.178579591672E+03   -0.31759E+00   -0.35482E+00  1248   0.270E+00    0.155E+00
DAV:   3    -0.178566706169E+03    0.12886E-01   -0.36817E-02  1376   0.337E-01    0.105E+00
DAV:   4    -0.178558954423E+03    0.77517E-02   -0.16400E-02  1360   0.216E-01    0.634E-01
DAV:   5    -0.178557888706E+03    0.10657E-02   -0.59928E-03  1336   0.126E-01    0.281E-01
DAV:   6    -0.178557541912E+03    0.34679E-03   -0.64774E-04  1384   0.623E-02    0.133E-01
DAV:   7    -0.178557417881E+03    0.12403E-03   -0.30848E-04  1520   0.574E-02    0.287E-02
DAV:   8    -0.178557430732E+03   -0.12851E-04   -0.34324E-04  1320   0.286E-02    0.422E-02
DAV:   9    -0.178557425182E+03    0.55500E-05   -0.14396E-05   848   0.633E-03
   4 F= -.17855743E+03 E0= -.17855742E+03  d E =-.120802E+00  mag=     1.0000
       N       E                     dE             d eps       ncg     rms          rms(c)
DAV:   1    -0.178548103127E+03    0.93276E-02   -0.37088E+00  1128   0.269E+00    0.672E-01
DAV:   2    -0.178560561382E+03   -0.12458E-01   -0.13968E-01  1248   0.532E-01    0.313E-01
DAV:   3    -0.178560064341E+03    0.49704E-03   -0.13543E-03  1376   0.642E-02    0.208E-01
DAV:   4    -0.178559779086E+03    0.28526E-03   -0.69227E-04  1352   0.451E-02    0.126E-01
DAV:   5    -0.178559749315E+03    0.29770E-04   -0.28448E-04  1328   0.268E-02    0.542E-02
DAV:   6    -0.178559747770E+03    0.15449E-05   -0.25285E-05  1088   0.124E-02
   5 F= -.17855975E+03 E0= -.17855975E+03  d E =-.123125E+00  mag=     1.0000
       N       E                     dE             d eps       ncg     rms          rms(c)
DAV:   1    -0.178560532897E+03   -0.78358E-03   -0.35671E+00  1128   0.267E+00    0.664E-01
DAV:   2    -0.178572668687E+03   -0.12136E-01   -0.13610E-01  1256   0.531E-01    0.305E-01
DAV:   3    -0.178572193856E+03    0.47483E-03   -0.13391E-03  1376   0.644E-02    0.200E-01
DAV:   4    -0.178571829670E+03    0.36419E-03   -0.66183E-04  1360   0.466E-02    0.120E-01
DAV:   5    -0.178571785773E+03    0.43897E-04   -0.31585E-04  1336   0.306E-02    0.486E-02
DAV:   6    -0.178571760846E+03    0.24927E-04   -0.29125E-05  1032   0.182E-02    0.183E-02
DAV:   7    -0.178571759917E+03    0.92974E-06   -0.36434E-05  1072   0.142E-02
   6 F= -.17857176E+03 E0= -.17857176E+03  d E =-.120121E-01  mag=     1.0000
       N       E                     dE             d eps       ncg     rms          rms(c)
DAV:   1    -0.178484908881E+03    0.86852E-01   -0.29672E+01  1128   0.769E+00    0.193E+00
DAV:   2    -0.178586618842E+03   -0.10171E+00   -0.11457E+00  1248   0.154E+00    0.876E-01
DAV:   3    -0.178582633281E+03    0.39856E-02   -0.11577E-02  1376   0.191E-01    0.579E-01
DAV:   4    -0.178580027924E+03    0.26054E-02   -0.46979E-03  1368   0.124E-01    0.361E-01
DAV:   5    -0.178579489391E+03    0.53853E-03   -0.24013E-03  1336   0.906E-02    0.154E-01
DAV:   6    -0.178579345576E+03    0.14381E-03   -0.54820E-04  1496   0.582E-02    0.544E-02
DAV:   7    -0.178579325364E+03    0.20213E-04   -0.26424E-04  1360   0.357E-02    0.316E-02
DAV:   8    -0.178579323445E+03    0.19185E-05   -0.55783E-05  1312   0.145E-02
   7 F= -.17857932E+03 E0= -.17857932E+03  d E =-.195757E-01  mag=     1.0000
       N       E                     dE             d eps       ncg     rms          rms(c)
DAV:   1    -0.178572708036E+03    0.66173E-02   -0.27822E+00  1128   0.236E+00    0.577E-01
DAV:   2    -0.178582055363E+03   -0.93473E-02   -0.10617E-01  1248   0.469E-01    0.276E-01
DAV:   3    -0.178581673291E+03    0.38207E-03   -0.10471E-03  1376   0.571E-02    0.182E-01
DAV:   4    -0.178581459229E+03    0.21406E-03   -0.49192E-04  1368   0.403E-02    0.111E-01
DAV:   5    -0.178581425898E+03    0.33331E-04   -0.24519E-04  1336   0.266E-02    0.468E-02
DAV:   6    -0.178581423732E+03    0.21660E-05   -0.22521E-05   984   0.145E-02
   8 F= -.17858142E+03 E0= -.17858142E+03  d E =-.216760E-01  mag=     1.0000
       N       E                     dE             d eps       ncg     rms          rms(c)
DAV:   1    -0.178580184542E+03    0.12414E-02   -0.18139E+00  1128   0.187E+00    0.419E-01
DAV:   2    -0.178586126781E+03   -0.59422E-02   -0.67102E-02  1248   0.368E-01    0.194E-01
DAV:   3    -0.178585941678E+03    0.18510E-03   -0.55486E-04  1368   0.404E-02    0.126E-01
DAV:   4    -0.178585839237E+03    0.10244E-03   -0.23566E-04  1344   0.257E-02    0.767E-02
DAV:   5    -0.178585830736E+03    0.85003E-05   -0.83948E-05  1352   0.138E-02
   9 F= -.17858583E+03 E0= -.17858583E+03  d E =-.440700E-02  mag=     1.0000
       N       E                     dE             d eps       ncg     rms          rms(c)
DAV:   1    -0.178582784087E+03    0.30551E-02   -0.19791E+00  1128   0.195E+00    0.425E-01
DAV:   2    -0.178589224601E+03   -0.64405E-02   -0.73080E-02  1248   0.383E-01    0.208E-01
DAV:   3    -0.178589032300E+03    0.19230E-03   -0.60723E-04  1368   0.421E-02    0.136E-01
DAV:   4    -0.178588922952E+03    0.10935E-03   -0.23484E-04  1352   0.258E-02    0.856E-02
DAV:   5    -0.178588910201E+03    0.12751E-04   -0.99327E-05  1352   0.152E-02    0.398E-02
DAV:   6    -0.178588910390E+03   -0.18903E-06   -0.92361E-06   776   0.639E-03
  10 F= -.17858891E+03 E0= -.17858891E+03  d E =-.748666E-02  mag=     1.0000
       N       E                     dE             d eps       ncg     rms          rms(c)
DAV:   1    -0.178565203040E+03    0.23707E-01   -0.79245E+00  1128   0.390E+00    0.882E-01
DAV:   2    -0.178591218086E+03   -0.26015E-01   -0.29476E-01  1248   0.769E-01    0.401E-01
DAV:   3    -0.178590460057E+03    0.75803E-03   -0.24460E-03  1368   0.847E-02    0.260E-01
DAV:   4    -0.178590034791E+03    0.42527E-03   -0.88146E-04  1352   0.494E-02    0.164E-01
DAV:   5    -0.178589974827E+03    0.59964E-04   -0.34897E-04  1360   0.285E-02    0.780E-02
DAV:   6    -0.178589969195E+03    0.56325E-05   -0.25452E-05   984   0.980E-03
  11 F= -.17858997E+03 E0= -.17858997E+03  d E =-.854546E-02  mag=     1.0000
       N       E                     dE             d eps       ncg     rms          rms(c)
DAV:   1    -0.178586806104E+03    0.31687E-02   -0.11266E+00  1128   0.147E+00    0.334E-01
DAV:   2    -0.178590555626E+03   -0.37495E-02   -0.41498E-02  1248   0.289E-01    0.153E-01
DAV:   3    -0.178590452296E+03    0.10333E-03   -0.34337E-04  1368   0.317E-02    0.983E-02
DAV:   4    -0.178590376664E+03    0.75632E-04   -0.14863E-04  1352   0.202E-02    0.604E-02
DAV:   5    -0.178590369507E+03    0.71566E-05   -0.46540E-05  1192   0.101E-02
  12 F= -.17859037E+03 E0= -.17859037E+03  d E =-.894577E-02  mag=     1.0000
