 vasp.6.5.1 10Mar25 (build May 13 2025 11:33:44) complex                         
 executed on              LinuxNV date 2026.05.13  15:00:31
 running    2 mpi-ranks, on    1 nodes
 distrk:  each k-point on    2 cores,    1 groups
 distr:  one band on NCORE=   1 cores,    2 groups
 Offloading initialized ...    2 GPUs detected


--------------------------------------------------------------------------------------------------------


 INCAR:
   ALGO = Normal
   PREC = Normal
   LREAL = Auto
   EDIFF = 1e-05
   ENCUT = 262.472
   LASPH = True
   NELM = 100
   ISIF = 2
   IBRION = 2
   EDIFFG = -0.03
   NSW = 300
   ISMEAR = 0
   SIGMA = 0.1
   ISPIN = 2
   LWAVE = False
   LCHARG = False
   LORBIT = 10
   GGA = Ps
   KPAR = 1

 POTCAR:    PAW_PBE Cs_sv 08Apr2002               
 POTCAR:    PAW_PBE Cl 06Sep2000                  
 -----------------------------------------------------------------------------
|                                                                             |
|           W    W    AA    RRRRR   N    N  II  N    N   GGGG   !!!           |
|           W    W   A  A   R    R  NN   N  II  NN   N  G    G  !!!           |
|           W    W  A    A  R    R  N N  N  II  N N  N  G       !!!           |
|           W WW W  AAAAAA  RRRRR   N  N N  II  N  N N  G  GGG   !            |
|           WW  WW  A    A  R   R   N   NN  II  N   NN  G    G                |
|           W    W  A    A  R    R  N    N  II  N    N   GGGG   !!!           |
|                                                                             |
|     You requested a magnetic or noncollinear calculation, but did not       |
|     specify the initial magnetic moment with the MAGMOM tag. Note that      |
|     a default of 1 will be used for all atoms. This ferromagnetic setup     |
|     may break the symmetry of the crystal, in particular it may rule        |
|     out finding an antiferromagnetic solution. Thence, we recommend         |
|     setting the initial magnetic moment manually or verifying carefully     |
|     that this magnetic setup is desired.                                    |
|                                                                             |
 -----------------------------------------------------------------------------

 POTCAR:    PAW_PBE Cs_sv 08Apr2002               
   SHA256 =  c1463496f0f6037ed62c6012a8013a89ee9ad6ffb38599dcd6c079e7ed31779b Cs_sv/POTCAR          
   COPYR  = (c) Copyright 08Apr2002 Georg Kresse                                                    
   COPYR  = This file is part of the software VASP. Any use, copying, and all other rights are regul
   COPYR  = If you do not have a valid VASP license, you may not use, copy or distribute this file. 
   VRHFIN =Cs: 5s5p6s                                                                               
   LEXCH  = PE                                                                                      
   EATOM  =   555.6835 eV,   40.8416 Ry                                                             
                                                                                                    
   TITEL  = PAW_PBE Cs_sv 08Apr2002                                                                 
   LULTRA =        F    use ultrasoft PP ?                                                          
   IUNSCR =        1    unscreen: 0-lin 1-nonlin 2-no                                               
   RPACOR =    2.200    partial core radius                                                         
   POMASS =  132.900; ZVAL   =    9.000    mass and valenz                                          
   RCORE  =    2.500    outmost cutoff radius                                                       
   RWIGS  =    2.500; RWIGS  =    1.323    wigner-seitz radius (au A)                               
   ENMAX  =  220.318; ENMIN  =  165.238 eV                                                          
   RCLOC  =    2.207    cutoff for local pot                                                        
   LCOR   =        T    correct aug charges                                                         
   LPAW   =        T    paw PP                                                                      
   EAUG   =  407.933                                                                                
   DEXC   =    0.000                                                                                
   RMAX   =    2.554    core radius for proj-oper                                                   
   RAUG   =    1.300    factor for augmentation sphere                                              
   RDEP   =    2.590    radius for radial grids                                                     
   RDEPT  =    2.117    core radius for aug-charge                                                  
                                                                                                    
   Atomic configuration                                                                             
   13 entries                                                                                       
     n  l   j            E        occ.                                                              
     1  0  0.50    -35790.1377   2.0000                                                             
     2  0  0.50     -5613.6201   2.0000                                                             
     2  1  1.50     -5035.0101   6.0000                                                             
     3  0  0.50     -1167.0767   2.0000                                                             
     3  1  1.50      -980.9754   6.0000                                                             
     3  2  2.50      -708.0703  10.0000                                                             
     4  0  0.50      -220.2386   2.0000                                                             
     4  1  1.50      -160.7596   6.0000                                                             
     4  2  2.50       -74.2354  10.0000                                                             
     5  0  0.50       -26.7287   2.0000                                                             
     6  0  0.50        -2.0862   1.0000                                                             
     5  1  1.50       -13.5159   6.0000                                                             
     5  2  2.50        -0.4136   0.0000                                                             
   Description                                                                                      
     l       E           TYP  RCUT    TYP  RCUT                                                     
     0    -26.7287425     23  1.900                                                                 
     0     -2.0862306     23  1.900                                                                 
     1    -13.5158719     23  2.500                                                                 
     1     -2.7211652     23  2.500                                                                 
     2     -0.4136171     23  2.500                                                                 
  local pseudopotential read in
  partial core-charges read in
  partial kinetic energy density read in
  atomic valenz-charges read in
  non local Contribution for L=            0  read in
    real space projection operators read in
  non local Contribution for L=            0  read in
    real space projection operators read in
  non local Contribution for L=            1  read in
    real space projection operators read in
  non local Contribution for L=            1  read in
    real space projection operators read in
  non local Contribution for L=            2  read in
    real space projection operators read in
    PAW grid and wavefunctions read in
 
   number of l-projection  operators is LMAX  =            5
   number of lm-projection operators is LMMAX =           13
 
 POTCAR:    PAW_PBE Cl 06Sep2000                  
   SHA256 =  9f1b6e6ed4247ac726a768b330d26d7667cc3c95a39ff49c1d064c2d9dcce931 Cl/POTCAR             
   COPYR  = (c) Copyright 06Sep2000 Georg Kresse                                                    
   COPYR  = This file is part of the software VASP. Any use, copying, and all other rights are regul
   COPYR  = If you do not have a valid VASP license, you may not use, copy or distribute this file. 
   VRHFIN =Cl: s2p5                                                                                 
   LEXCH  = PE                                                                                      
   EATOM  =   409.7259 eV,   30.1140 Ry                                                             
                                                                                                    
   TITEL  = PAW_PBE Cl 06Sep2000                                                                    
   LULTRA =        F    use ultrasoft PP ?                                                          
   IUNSCR =        1    unscreen: 0-lin 1-nonlin 2-no                                               
   RPACOR =    1.500    partial core radius                                                         
   POMASS =   35.453; ZVAL   =    7.000    mass and valenz                                          
   RCORE  =    1.900    outmost cutoff radius                                                       
   RWIGS  =    2.100; RWIGS  =    1.111    wigner-seitz radius (au A)                               
   ENMAX  =  262.472; ENMIN  =  196.854 eV                                                          
   ICORE  =        2    local potential                                                             
   LCOR   =        T    correct aug charges                                                         
   LPAW   =        T    paw PP                                                                      
   EAUG   =  356.192                                                                                
   DEXC   =    0.000                                                                                
   RMAX   =    1.945    core radius for proj-oper                                                   
   RAUG   =    1.300    factor for augmentation sphere                                              
   RDEP   =    2.020    radius for radial grids                                                     
   RDEPT  =    1.678    core radius for aug-charge                                                  
                                                                                                    
   Atomic configuration                                                                             
    6 entries                                                                                       
     n  l   j            E        occ.                                                              
     1  0  0.50     -2751.1850   2.0000                                                             
     2  0  0.50      -252.6861   2.0000                                                             
     2  1  1.50      -191.6157   6.0000                                                             
     3  0  0.50       -20.6916   2.0000                                                             
     3  1  0.50        -8.5949   5.0000                                                             
     3  2  1.50        -8.1635   0.0000                                                             
   Description                                                                                      
     l       E           TYP  RCUT    TYP  RCUT                                                     
     0    -20.6915656     23  1.900                                                                 
     0    -22.0521482     23  1.900                                                                 
     1     -8.5948577     23  1.900                                                                 
     1     -5.3847331     23  1.900                                                                 
     2     -8.1634956     23  1.900                                                                 
  local pseudopotential read in
  partial core-charges read in
  partial kinetic energy density read in
  atomic valenz-charges read in
  non local Contribution for L=            0  read in
    real space projection operators read in
  non local Contribution for L=            0  read in
    real space projection operators read in
  non local Contribution for L=            1  read in
    real space projection operators read in
  non local Contribution for L=            1  read in
    real space projection operators read in
    PAW grid and wavefunctions read in
 
   number of l-projection  operators is LMAX  =            4
   number of lm-projection operators is LMMAX =            8
 
 Optimization of the real space projectors (new method)

 maximal supplied QI-value         = 15.12
 optimisation between [QCUT,QGAM] = [  8.16, 16.48] = [ 18.66, 76.04] Ry 
 Optimized for a Real-space Cutoff    1.70 Angstroem

   l    n(q)    QCUT    max X(q) W(low)/X(q) W(high)/X(q)  e(spline) 
   0      8     8.164    25.322    0.15E-03    0.18E-03    0.41E-06
   0      8     8.164    99.187    0.15E-03    0.17E-03    0.40E-06
   1      8     8.164    11.761    0.31E-03    0.25E-03    0.22E-06
   1      8     8.164     8.275    0.36E-03    0.24E-03    0.25E-06
   2      7     8.164     3.829    0.38E-03    0.57E-03    0.14E-06
 Optimization of the real space projectors (new method)

 maximal supplied QI-value         = 19.84
 optimisation between [QCUT,QGAM] = [  8.14, 16.47] = [ 18.53, 75.95] Ry 
 Optimized for a Real-space Cutoff    1.51 Angstroem

   l    n(q)    QCUT    max X(q) W(low)/X(q) W(high)/X(q)  e(spline) 
   0      7     8.135   168.010    0.81E-04    0.25E-03    0.15E-06
   0      7     8.135   164.674    0.79E-04    0.25E-03    0.14E-06
   1      7     8.135    69.222    0.47E-03    0.95E-03    0.99E-07
   1      7     8.135    56.786    0.47E-03    0.93E-03    0.97E-07
 -----------------------------------------------------------------------------
|                                                                             |
|               ----> ADVICE to this user running VASP <----                  |
|                                                                             |
|     You enforced a specific xc type in the INCAR file but a different       |
|     type was found in the POTCAR file.                                      |
|     I HOPE YOU KNOW WHAT YOU ARE DOING!                                     |
|                                                                             |
 -----------------------------------------------------------------------------

  PAW_PBE Cs_sv 08Apr2002               :
 energy of atom  1       EATOM= -555.6835
 kinetic energy error for atom=    0.0137 (will be added to EATOM!!)
  PAW_PBE Cl 06Sep2000                  :
 energy of atom  2       EATOM= -409.7259
 kinetic energy error for atom=    0.0483 (will be added to EATOM!!)
 
 
 POSCAR: Cs27 Cl26
  positions in direct lattice
  No initial velocities read in


 exchange-correlation table for PS
   RHO(1)=    0.500       N(1)  =     2000
   RHO(2)=  100.500       N(2)  =     4000
 


--------------------------------------------------------------------------------------------------------


 ion  position               nearest neighbor table
   1  0.994  0.007  0.997-
   2  0.008  0.008  0.335-
   3  0.000  0.000  0.667-
   4  1.000  0.338  0.993-
   5  0.989  0.340  0.328-
   6  0.000  0.333  0.667-
   7  0.000  0.667  0.000-
   8  0.000  0.667  0.333-
   9  0.000  0.667  0.667-
  10  0.331  0.003  0.002-
  11  0.336  0.986  0.341-
  12  0.333  0.000  0.667-
  13  0.322  0.341  0.992-
  14  0.337  0.334  0.322-
  15  0.333  0.333  0.667-
  16  0.333  0.667  0.000-
  17  0.333  0.667  0.333-
  18  0.333  0.667  0.667-
  19  0.667  0.000  0.000-
  20  0.667  0.000  0.333-
  21  0.667  0.000  0.667-
  22  0.667  0.333  0.000-
  23  0.667  0.333  0.333-
  24  0.667  0.333  0.667-
  25  0.667  0.667  0.000-
  26  0.667  0.667  0.333-
  27  0.667  0.667  0.667-
  28  0.167  0.172  0.494-
  29  0.175  0.166  0.834-
  30  0.169  0.501  0.171-
  31  0.167  0.500  0.500-
  32  0.167  0.500  0.833-
  33  0.167  0.843  0.173-
  34  0.167  0.833  0.500-
  35  0.167  0.833  0.833-
  36  0.499  0.168  0.167-
  37  0.500  0.167  0.500-
  38  0.500  0.167  0.833-
  39  0.500  0.500  0.167-
  40  0.500  0.500  0.500-
  41  0.500  0.500  0.833-
  42  0.500  0.833  0.167-
  43  0.500  0.833  0.500-
  44  0.500  0.833  0.833-
  45  0.839  0.161  0.164-
  46  0.833  0.167  0.500-
  47  0.833  0.167  0.833-
  48  0.833  0.500  0.167-
  49  0.833  0.500  0.500-
  50  0.833  0.500  0.833-
  51  0.833  0.833  0.167-
  52  0.833  0.833  0.500-
  53  0.833  0.833  0.833-
 
  LATTYP: Found a simple cubic cell.
 ALAT       =    12.2263459172
  
  Lattice vectors:
  
 A1 = (  12.2263459172,   0.0000000000,   0.0000000000)
 A2 = (   0.0000000000,  12.2263459172,   0.0000000000)
 A3 = (   0.0000000000,   0.0000000000,  12.2263459172)


Analysis of symmetry for initial positions (statically):
=====================================================================
 Subroutine PRICEL returns:
 Original cell was already a primitive cell.
 

 Routine SETGRP: Setting up the symmetry group for a 
 simple cubic supercell.


 Subroutine GETGRP returns: Found  1 space group operations
 (whereof  1 operations were pure point group operations)
 out of a pool of 48 trial point group operations.


The static configuration has the point symmetry C_1 .


Analysis of symmetry for dynamics (positions and initial velocities):
=====================================================================
 Subroutine PRICEL returns:
 Original cell was already a primitive cell.
 

 Routine SETGRP: Setting up the symmetry group for a 
 simple cubic supercell.


 Subroutine GETGRP returns: Found  1 space group operations
 (whereof  1 operations were pure point group operations)
 out of a pool of 48 trial point group operations.


The dynamic configuration has the point symmetry C_1 .


Analysis of structural, dynamic, and magnetic symmetry:
=====================================================================
 Subroutine PRICEL returns:
 Original cell was already a primitive cell.
 

 Routine SETGRP: Setting up the symmetry group for a 
 simple cubic supercell.


 Subroutine GETGRP returns: Found  1 space group operations
 (whereof  1 operations were pure point group operations)
 out of a pool of 48 trial point group operations.


The overall configuration has the point symmetry C_1 .


 Subroutine INISYM returns: Found  1 space group operations
 (whereof  1 operations are pure point group operations),
 and found     1 'primitive' translations


----------------------------------------------------------------------------------------

                                     Primitive cell                                     

  volume of cell :    1827.6374

  direct lattice vectors                    reciprocal lattice vectors
    12.226345917  0.000000000  0.000000000     0.081790586  0.000000000  0.000000000
     0.000000000 12.226345917  0.000000000     0.000000000  0.081790586  0.000000000
     0.000000000  0.000000000 12.226345917     0.000000000  0.000000000  0.081790586

  length of vectors
    12.226345917 12.226345917 12.226345917     0.081790586  0.081790586  0.081790586

  position of ions in fractional coordinates (direct lattice)
     0.994264504  0.007482135  0.997080894
     0.008212435  0.007997287  0.334850198
     0.000000000  0.000000000  0.666666667
     0.999945791  0.338222607  0.993111035
     0.989009108  0.339545254  0.327807440
     0.000000000  0.333333333  0.666666667
     0.000000000  0.666666667  0.000000000
     0.000000000  0.666666667  0.333333333
     0.000000000  0.666666667  0.666666667
     0.331351318  0.002777459  0.002337253
     0.335630415  0.986173693  0.340535481
     0.333333333  0.000000000  0.666666667
     0.321731883  0.341261016  0.992404949
     0.337429437  0.334164973  0.322479831
     0.333333333  0.333333333  0.666666667
     0.333333333  0.666666667  0.000000000
     0.333333333  0.666666667  0.333333333
     0.333333333  0.666666667  0.666666667
     0.666666667  0.000000000  0.000000000
     0.666666667  0.000000000  0.333333333
     0.666666667  0.000000000  0.666666667
     0.666666667  0.333333333  0.000000000
     0.666666667  0.333333333  0.333333333
     0.666666667  0.333333333  0.666666667
     0.666666667  0.666666667  0.000000000
     0.666666667  0.666666667  0.333333333
     0.666666667  0.666666667  0.666666667
     0.167291737  0.171716887  0.494496882
     0.175190180  0.166156411  0.833927188
     0.168527860  0.500646003  0.170764052
     0.166666667  0.500000000  0.500000000
     0.166666667  0.500000000  0.833333333
     0.166776792  0.843492256  0.172998924
     0.166666667  0.833333333  0.500000000
     0.166666667  0.833333333  0.833333333
     0.499317139  0.167553490  0.167069445
     0.500000000  0.166666667  0.500000000
     0.500000000  0.166666667  0.833333333
     0.500000000  0.500000000  0.166666667
     0.500000000  0.500000000  0.500000000
     0.500000000  0.500000000  0.833333333
     0.500000000  0.833333333  0.166666667
     0.500000000  0.833333333  0.500000000
     0.500000000  0.833333333  0.833333333
     0.838566240  0.161233279  0.164011040
     0.833333333  0.166666667  0.500000000
     0.833333333  0.166666667  0.833333333
     0.833333333  0.500000000  0.166666667
     0.833333333  0.500000000  0.500000000
     0.833333333  0.500000000  0.833333333
     0.833333333  0.833333333  0.166666667
     0.833333333  0.833333333  0.500000000
     0.833333333  0.833333333  0.833333333

  ion indices of the primitive-cell ions
   primitive index   ion index
                 1           1
                 2           2
                 3           3
                 4           4
                 5           5
                 6           6
                 7           7
                 8           8
                 9           9
                10          10
                11          11
                12          12
                13          13
                14          14
                15          15
                16          16
                17          17
                18          18
                19          19
                20          20
                21          21
                22          22
                23          23
                24          24
                25          25
                26          26
                27          27
                28          28
                29          29
                30          30
                31          31
                32          32
                33          33
                34          34
                35          35
                36          36
                37          37
                38          38
                39          39
                40          40
                41          41
                42          42
                43          43
                44          44
                45          45
                46          46
                47          47
                48          48
                49          49
                50          50
                51          51
                52          52
                53          53

----------------------------------------------------------------------------------------

 
 
 KPOINTS: Num irrep kpoints: 1                    

Automatic generation of k-mesh.
 Grid dimensions read from file:
 generate k-points for:    1    1    1

 Generating k-lattice:

  Cartesian coordinates                     Fractional coordinates (reciprocal lattice)
     0.081790586  0.000000000  0.000000000     1.000000000  0.000000000  0.000000000
     0.000000000  0.081790586  0.000000000     0.000000000  1.000000000  0.000000000
     0.000000000  0.000000000  0.081790586     0.000000000  0.000000000  1.000000000

  Length of vectors
     0.081790586  0.081790586  0.081790586

  Shift w.r.t. Gamma in fractional coordinates (k-lattice)
     0.000000000  0.000000000  0.000000000

 
 Subroutine IBZKPT returns following result:
 ===========================================
 
 Found      1 irreducible k-points:
 
 Following reciprocal coordinates:
            Coordinates               Weight
  0.000000  0.000000  0.000000      1.000000
 
 Following cartesian coordinates:
            Coordinates               Weight
  0.000000  0.000000  0.000000      1.000000
 


--------------------------------------------------------------------------------------------------------




 Dimension of arrays:
   k-points           NKPTS =      1   k-points in BZ     NKDIM =      1   number of bands    NBANDS=    282
   number of dos      NEDOS =    301   number of ions     NIONS =     53
   non local maximal  LDIM  =      5   non local SUM 2l+1 LMDIM =     13
   total plane-waves  NPLWV = 110592
   max r-space proj   IRMAX =   1304   max aug-charges    IRDMAX=   3224
   dimension x,y,z NGX =    48 NGY =   48 NGZ =   48
   dimension x,y,z NGXF=    96 NGYF=   96 NGZF=   96
   support grid    NGXF=    96 NGYF=   96 NGZF=   96
   ions per type =              27  26
   NGX,Y,Z   is equivalent  to a cutoff of   6.53,  6.53,  6.53 a.u.
   NGXF,Y,Z  is equivalent  to a cutoff of  13.05, 13.05, 13.05 a.u.

 SYSTEM =  unknown system                          
 POSCAR =  Cs27 Cl26                               

 Startparameter for this run:
   NWRITE =      2    write-flag & timer
   PREC   = normal    normal or accurate (medium, high low for compatibility)
   ISTART =      0    job   : 0-new  1-cont  2-samecut
   ICHARG =      2    charge: 1-file 2-atom 10-const
   ISPIN  =      2    spin polarized calculation?
   LNONCOLLINEAR =      F non collinear calculations
   LSORBIT =      F    spin-orbit coupling
   INIWAV =      1    electr: 0-lowe 1-rand  2-diag
   LASPH  =      T    aspherical Exc in radial PAW
 Electronic Relaxation 1
   ENCUT  =  262.5 eV  19.29 Ry    4.39 a.u.  16.15 16.15 16.15*2*pi/ulx,y,z
   ENINI  =  262.5     initial cutoff
   ENAUG  =  407.9 eV  augmentation charge cutoff
   NELM   =    100;   NELMIN=  2; NELMDL= -5     # of ELM steps 
   EDIFF  = 0.1E-04   stopping-criterion for ELM
   LREAL  =      T    real-space projection
   NLSPLINE    = F    spline interpolate recip. space projectors
   LCOMPAT=      F    compatible to vasp.4.4
   GGA_COMPAT  = T    GGA compatible to vasp.4.4-vasp.4.6
   LMAXPAW     = -100 max onsite density
   LMAXMIX     =    2 max onsite mixed and CHGCAR
   VOSKOWN=      0    Vosko Wilk Nusair interpolation
   ROPT   =   -0.00050  -0.00050
 Ionic relaxation
   EDIFFG = -.3E-01   stopping-criterion for IOM
   NSW    =    300    number of steps for IOM
   NBLOCK =      1;   KBLOCK =    300    inner block; outer block 
   IBRION =      2    ionic relax: 0-MD 1-quasi-New 2-CG
   NFREE  =      1    steps in history (QN), initial steepest desc. (CG)
   ISIF   =      2    stress and relaxation
   IWAVPR =     11    prediction:  0-non 1-charg 2-wave 3-comb
   ISYM   =      2    0-nonsym 1-usesym 2-fastsym
   LCORR  =      T    Harris-Foulkes like correction to forces

   POTIM  = 0.5000    time-step for ionic-motion
   TEIN   =    0.0    initial temperature
   TEBEG  =    0.0;   TEEND  =   0.0 temperature during run
   SMASS  =  -3.00    Nose mass-parameter (am)
   estimated Nose-frequenzy (Omega)   =  0.10E-29 period in steps = 0.13E+47 mass=  -0.342E-26a.u.
   SCALEE = 1.0000    scale energy and forces
   NPACO  =    256;   APACO  = 10.0  distance and # of slots for P.C.
   PSTRESS=    0.0 pullay stress

  Mass of Ions in am
   POMASS = 132.90 35.45
  Ionic Valenz
   ZVAL   =   9.00  7.00
  Atomic Wigner-Seitz radii
   RWIGS  =  -1.00 -1.00
  virtual crystal weights 
   VCA    =   1.00  1.00
   NELECT =     425.0000    total number of electrons
   NUPDOWN=      -1.0000    fix difference up-down

 DOS related values:
   EMIN   =  10.00;   EMAX   =-10.00  energy-range for DOS
   EFERMI =   0.00;   METHOD = LEGACY      
   ISMEAR =     0;   SIGMA  =   0.10  broadening in eV -4-tet -1-fermi 0-gaus
   EFERMI_NEDOS =   21; number of points for ismear=-14 and -15

 Electronic relaxation 2 (details)
   IALGO  =     38    algorithm
   LDIAG  =      T    sub-space diagonalisation (order eigenvalues)
   LSUBROT=      F    optimize rotation matrix (better conditioning)
   LROBUST=      F    robust break criterion during scf (extrapolated energy error)
   ISEARCH=      0    line search for conjugate gradient (0, 1=use gradient)
   TURBO    =      0    0=normal 1=particle mesh
   IRESTART =      0    0=no restart 2=restart with 2 vectors
   NREBOOT  =      0    no. of reboots
   NMIN     =      0    reboot dimension
   EREF     =   0.00    reference energy to select bands
   IMIX   =      4    mixing-type and parameters
     AMIX     =   0.40;   BMIX     =  1.00
     AMIX_MAG =   1.60;   BMIX_MAG =  1.00
     AMIN     =   0.10
     WC   =   100.;   INIMIX=   1;  MIXPRE=   1;  MAXMIX= -45

 Intra band minimization:
   WEIMIN = 0.0010     energy-eigenvalue tresh-hold
   EBREAK =  0.89E-08  absolut break condition
   DEPER  =   0.30     relativ break condition  

   TIME   =   0.40     timestep for ELM

  volume/ion in A,a.u.               =      34.48       232.71
  Fermi-wavevector in a.u.,A,eV,Ry     =   1.006718  1.902421 13.789245  1.013481
  Thomas-Fermi vector in A             =   2.139478
 
 Write flags
   LWAVE        =      F    write WAVECAR
   LDOWNSAMPLE  =      F    k-point downsampling of WAVECAR
   LCHARG       =      F    write CHGCAR
   LVTOT        =      F    write LOCPOT, total local potential
   LVHAR        =      F    write LOCPOT, Hartree potential only
   WRT_POTENTIAL= false  ! write potential to hdf5 file
   LELF         =      F    write electronic localiz. function (ELF)
   LORBIT       =     10    0 simple, 1 ext, 2 COOP (PROOUT), +10 PAW based schemes


 Python interface
   PLUGINS active      =      F    recompile with -DPLUGINS to activate
 
 Dipole corrections
   LMONO      =      F    monopole corrections only (constant potential shift)
   LDIPOL     =      F    correct potential (dipole corrections)
   IDIPOL     =      0    1-x, 2-y, 3-z, 4-all directions 
   EPSILON    =  1.0000000 bulk dielectric constant
   LVACPOTAV  =      F  vacuum potentials using an averaging scheme for the charge density
   VACPOTFLAT =  0.1000000 required flatness to determine vacuum potential
 
Coulomb truncation method
  LTRUNCATE          =      F  Coulomb kernel truncation to be used

 
 Exchange correlation treatment:
   GGA     = PS    functional components
   XC_C    = 1    coefficients multiplying the functional components
   LIBXC   =     F    Libxc                    
   VOSKOWN =     0    Vosko Wilk Nusair interpolation
   LHFCALC =     F    Hartree Fock is set to
   LHFONE  =     F    Hartree Fock one center treatment
   AEXX    =    0.0000 exact exchange contribution

 Parameters of functionals:
   PS:
     No parameter
 
 Van der Waals corrections
   IVDW    =     0    specifies the selected vdW correction

 Linear response parameters
   LEPSILON=     F    determine dielectric tensor
   LRPA    =     F    only Hartree local field effects (RPA)
   LNABLA  =     F    use nabla operator in PAW spheres
   LVEL    =     F    velocity operator in full k-point grid
   CSHIFT  =0.1000    complex shift for real part using Kramers Kronig
   OMEGAMAX=  -1.0    maximum frequency
   DEG_THRESHOLD= 0.2000000E-02 threshold for treating states as degnerate
   RTIME   =   -0.100 relaxation time in fs
  (WPLASMAI=    0.000 imaginary part of plasma frequency in eV, 0.658/RTIME)
   DFIELD  = 0.0000000 0.0000000 0.0000000 field for delta impulse in time
 
  Optional k-point grid parameters
   LKPOINTS_OPT  =     F    use optional k-point grid
   KPOINTS_OPT_MODE=     1    mode for optional k-point grid
 
 Orbital magnetization related:
   ORBITALMAG=     F  switch on orbital magnetization
   LCHIMAG   =     F  perturbation theory with respect to B field
   DQ        =  0.001000  dq finite difference perturbation B field
   LLRAUG    =     F  two centre corrections for induced B field
   LBONE     =     F  B-component reconstruction in AE one-centre
   LVGVCALC  =     T  calculate vGv susceptibility
   LVGVAPPL  =     F  apply vGv susceptibility instead of pGv for G=0

 Random number generation:
   RANDOM_GENERATOR = DEFAULT
   PCG_SEED         = not used


--------------------------------------------------------------------------------------------------------


 conjugate gradient relaxation of ions
 charge density and potential will be updated during run
 spin polarized calculation
 Variant of blocked Davidson
 Davidson routine will perform the subspace rotation
 perform sub-space diagonalisation
    after iterative eigenvector-optimisation
 modified Broyden-mixing scheme, WC =      100.0
 initial mixing is a Kerker type mixing with AMIX =  0.4000 and BMIX =      1.0000
 Hartree-type preconditioning will be used
 using additional bands            69
 real space projection scheme for non local part
 use partial core corrections
 calculate Harris-corrections to forces 
   (improved forces if not selfconsistent)
 use gradient corrections 
 use of overlap-Matrix (Vanderbilt PP)
 Gauss-broadening in eV      SIGMA  =   0.10


--------------------------------------------------------------------------------------------------------


  energy-cutoff  :      262.47
  volume of cell :     1827.64
      direct lattice vectors                 reciprocal lattice vectors
    12.226345917  0.000000000  0.000000000     0.081790586  0.000000000  0.000000000
     0.000000000 12.226345917  0.000000000     0.000000000  0.081790586  0.000000000
     0.000000000  0.000000000 12.226345917     0.000000000  0.000000000  0.081790586

  length of vectors
    12.226345917 12.226345917 12.226345917     0.081790586  0.081790586  0.081790586


 
 k-points in units of 2pi/SCALE and weight: Num irrep kpoints: 1                    
   0.00000000  0.00000000  0.00000000       1.000
 
 k-points in reciprocal lattice and weights: Num irrep kpoints: 1                    
   0.00000000  0.00000000  0.00000000       1.000
 
 position of ions in fractional coordinates (direct lattice) 
   0.99426450  0.00748214  0.99708089
   0.00821244  0.00799729  0.33485020
   0.00000000  0.00000000  0.66666667
   0.99994579  0.33822261  0.99311104
   0.98900911  0.33954525  0.32780744
   0.00000000  0.33333333  0.66666667
   0.00000000  0.66666667  0.00000000
   0.00000000  0.66666667  0.33333333
   0.00000000  0.66666667  0.66666667
   0.33135132  0.00277746  0.00233725
   0.33563042  0.98617369  0.34053548
   0.33333333  0.00000000  0.66666667
   0.32173188  0.34126102  0.99240495
   0.33742944  0.33416497  0.32247983
   0.33333333  0.33333333  0.66666667
   0.33333333  0.66666667  0.00000000
   0.33333333  0.66666667  0.33333333
   0.33333333  0.66666667  0.66666667
   0.66666667  0.00000000  0.00000000
   0.66666667  0.00000000  0.33333333
   0.66666667  0.00000000  0.66666667
   0.66666667  0.33333333  0.00000000
   0.66666667  0.33333333  0.33333333
   0.66666667  0.33333333  0.66666667
   0.66666667  0.66666667  0.00000000
   0.66666667  0.66666667  0.33333333
   0.66666667  0.66666667  0.66666667
   0.16729174  0.17171689  0.49449688
   0.17519018  0.16615641  0.83392719
   0.16852786  0.50064600  0.17076405
   0.16666667  0.50000000  0.50000000
   0.16666667  0.50000000  0.83333333
   0.16677679  0.84349226  0.17299892
   0.16666667  0.83333333  0.50000000
   0.16666667  0.83333333  0.83333333
   0.49931714  0.16755349  0.16706944
   0.50000000  0.16666667  0.50000000
   0.50000000  0.16666667  0.83333333
   0.50000000  0.50000000  0.16666667
   0.50000000  0.50000000  0.50000000
   0.50000000  0.50000000  0.83333333
   0.50000000  0.83333333  0.16666667
   0.50000000  0.83333333  0.50000000
   0.50000000  0.83333333  0.83333333
   0.83856624  0.16123328  0.16401104
   0.83333333  0.16666667  0.50000000
   0.83333333  0.16666667  0.83333333
   0.83333333  0.50000000  0.16666667
   0.83333333  0.50000000  0.50000000
   0.83333333  0.50000000  0.83333333
   0.83333333  0.83333333  0.16666667
   0.83333333  0.83333333  0.50000000
   0.83333333  0.83333333  0.83333333
 
 position of ions in cartesian coordinates  (Angst):
  12.15622176  0.09147917 12.19065592
   0.10040807  0.09777760  4.09399435
   0.00000000  0.00000000  8.15089728
  12.22568315  4.13522659 12.14211905
  12.09196748  4.15139773  4.00788716
   0.00000000  4.07544864  8.15089728
   0.00000000  8.15089728  0.00000000
   0.00000000  8.15089728  4.07544864
   0.00000000  8.15089728  8.15089728
   4.05121584  0.03395818  0.02857606
   4.10353356 12.05730070  4.16350459
   4.07544864  0.00000000  8.15089728
   3.93360530  4.17237523 12.13348620
   4.12552903  4.08561656  3.94274996
   4.07544864  4.07544864  8.15089728
   4.07544864  8.15089728  0.00000000
   4.07544864  8.15089728  4.07544864
   4.07544864  8.15089728  8.15089728
   8.15089728  0.00000000  0.00000000
   8.15089728  0.00000000  4.07544864
   8.15089728  0.00000000  8.15089728
   8.15089728  4.07544864  0.00000000
   8.15089728  4.07544864  4.07544864
   8.15089728  4.07544864  8.15089728
   8.15089728  8.15089728  0.00000000
   8.15089728  8.15089728  4.07544864
   8.15089728  8.15089728  8.15089728
   2.04536665  2.09947007  6.04588993
   2.14193575  2.03148575 10.19588227
   2.06047991  6.12107122  2.08782036
   2.03772432  6.11317296  6.11317296
   2.03772432  6.11317296 10.18862160
   2.03907075 10.31282810  2.11514469
   2.03772432 10.18862160  6.11317296
   2.03772432 10.18862160 10.18862160
   6.10482407  2.04856693  2.04264883
   6.11317296  2.03772432  6.11317296
   6.11317296  2.03772432 10.18862160
   6.11317296  6.11317296  2.03772432
   6.11317296  6.11317296  6.11317296
   6.11317296  6.11317296 10.18862160
   6.11317296 10.18862160  2.03772432
   6.11317296 10.18862160  6.11317296
   6.11317296 10.18862160 10.18862160
  10.25260093  1.97129385  2.00525571
  10.18862160  2.03772432  6.11317296
  10.18862160  2.03772432 10.18862160
  10.18862160  6.11317296  2.03772432
  10.18862160  6.11317296  6.11317296
  10.18862160  6.11317296 10.18862160
  10.18862160 10.18862160  2.03772432
  10.18862160 10.18862160  6.11317296
  10.18862160 10.18862160 10.18862160
 


--------------------------------------------------------------------------------------------------------


 k-point     1 :   0.0000 0.0000 0.0000  plane waves:   17557

 maximum and minimum number of plane-waves per node :     17557    17557

 maximum number of plane-waves:     17557
 maximum index in each direction: 
   IXMAX=   16   IYMAX=   16   IZMAX=   16
   IXMIN=  -16   IYMIN=  -16   IZMIN=  -16


 serial   3D FFT for wavefunctions
 parallel 3D FFT for charge:
    minimum data exchange during FFTs selected (reduces bandwidth)


 total amount of memory used by VASP MPI-rank0   179556. kBytes
=======================================================================

   base                                    :      30000. kBytes
   nonlr-proj                              :       6451. kBytes
   fftplans                                :      15598. kBytes
   grid                                    :      44900. kBytes
   one-center                              :        859. kBytes
   wavefun                                 :      81748. kBytes
 
     INWAV:  cpu time      0.0001: real time      0.0003
 Broyden mixing: mesh for mixing (old mesh)
   NGX = 33   NGY = 33   NGZ = 33
  (NGX  = 96   NGY  = 96   NGZ  = 96)
  gives a total of  35937 points

 initial charge density was supplied:
 charge density of overlapping atoms calculated
 number of electron     425.0000000 magnetization      53.0000000
 keeping initial charge density in first step


--------------------------------------------------------------------------------------------------------


 Maximum index for non-local projection operator          1230
 Maximum index for augmentation-charges          1495 (set IRDMAX)


--------------------------------------------------------------------------------------------------------


 First call to EWALD:  gamma=   0.145
 Maximum number of real-space cells   3x   3x   3
 Maximum number of reciprocal cells   3x   3x   3

    FEWALD:  cpu time      0.0471: real time      0.0472


--------------------------------------- Ionic step        1  -------------------------------------------




--------------------------------------- Iteration      1(   1)  ---------------------------------------


    POTLOK:  cpu time      0.4375: real time      0.4708
    SETDIJ:  cpu time      2.2833: real time      2.2880
     EDDAV:  cpu time      0.5727: real time      0.5744
       DOS:  cpu time      0.0005: real time      0.0005
    --------------------------------------------
      LOOP:  cpu time      3.2941: real time      3.3338

 eigenvalue-minimisations  :  1128
 total energy-change (2. order) : 0.2343996E+04  (-0.1228813E+05)
 number of electron     425.0000000 magnetization      53.0000000
 augmentation part      425.0000000 magnetization      53.0000000

 Free energy of the ion-electron system (eV)
  ---------------------------------------------------
  alpha Z        PSCENC =      1436.48757412
  Ewald energy   TEWEN  =    -21813.34278416
  -Hartree energ DENC   =     -3540.62809052
  -exchange      EXHF   =         0.00000000
  -V(xc)+E(xc)   XCENC  =       832.66554279
  PAW double counting   =     19905.73909771   -19710.81889590
  entropy T*S    EENTRO =        -0.10606515
  eigenvalues    EBANDS =      -396.00729989
  atomic energy  EATOM  =     25630.00721240
  Solvation  Ediel_sol  =         0.00000000
  ---------------------------------------------------
  free energy    TOTEN  =      2343.99629141 eV

  energy without entropy =     2344.10235656  energy(sigma->0) =     2344.04932398


--------------------------------------------------------------------------------------------------------




--------------------------------------- Iteration      1(   2)  ---------------------------------------


     EDDAV:  cpu time      0.5460: real time      0.5475
       DOS:  cpu time      0.0004: real time      0.0004
    --------------------------------------------
      LOOP:  cpu time      0.5464: real time      0.5479

 eigenvalue-minimisations  :  1404
 total energy-change (2. order) :-0.2309305E+04  (-0.2234909E+04)
 number of electron     425.0000000 magnetization      53.0000000
 augmentation part      425.0000000 magnetization      53.0000000

 Free energy of the ion-electron system (eV)
  ---------------------------------------------------
  alpha Z        PSCENC =      1436.48757412
  Ewald energy   TEWEN  =    -21813.34278416
  -Hartree energ DENC   =     -3540.62809052
  -exchange      EXHF   =         0.00000000
  -V(xc)+E(xc)   XCENC  =       832.66554279
  PAW double counting   =     19905.73909771   -19710.81889590
  entropy T*S    EENTRO =        -0.04301269
  eigenvalues    EBANDS =     -2705.37576108
  atomic energy  EATOM  =     25630.00721240
  Solvation  Ediel_sol  =         0.00000000
  ---------------------------------------------------
  free energy    TOTEN  =        34.69088268 eV

  energy without entropy =       34.73389537  energy(sigma->0) =       34.71238902


--------------------------------------------------------------------------------------------------------




--------------------------------------- Iteration      1(   3)  ---------------------------------------


     EDDAV:  cpu time      0.5368: real time      0.5382
       DOS:  cpu time      0.0004: real time      0.0003
    --------------------------------------------
      LOOP:  cpu time      0.5371: real time      0.5386

 eigenvalue-minimisations  :  1360
 total energy-change (2. order) :-0.2095135E+03  (-0.2085175E+03)
 number of electron     425.0000000 magnetization      53.0000000
 augmentation part      425.0000000 magnetization      53.0000000

 Free energy of the ion-electron system (eV)
  ---------------------------------------------------
  alpha Z        PSCENC =      1436.48757412
  Ewald energy   TEWEN  =    -21813.34278416
  -Hartree energ DENC   =     -3540.62809052
  -exchange      EXHF   =         0.00000000
  -V(xc)+E(xc)   XCENC  =       832.66554279
  PAW double counting   =     19905.73909771   -19710.81889590
  entropy T*S    EENTRO =        -0.00453521
  eigenvalues    EBANDS =     -2914.92776870
  atomic energy  EATOM  =     25630.00721240
  Solvation  Ediel_sol  =         0.00000000
  ---------------------------------------------------
  free energy    TOTEN  =      -174.82264745 eV

  energy without entropy =     -174.81811225  energy(sigma->0) =     -174.82037985


--------------------------------------------------------------------------------------------------------




--------------------------------------- Iteration      1(   4)  ---------------------------------------


     EDDAV:  cpu time      0.5293: real time      0.5308
       DOS:  cpu time      0.0004: real time      0.0004
    --------------------------------------------
      LOOP:  cpu time      0.5297: real time      0.5311

 eigenvalue-minimisations  :  1336
 total energy-change (2. order) :-0.3200644E+01  (-0.3193406E+01)
 number of electron     425.0000000 magnetization      53.0000000
 augmentation part      425.0000000 magnetization      53.0000000

 Free energy of the ion-electron system (eV)
  ---------------------------------------------------
  alpha Z        PSCENC =      1436.48757412
  Ewald energy   TEWEN  =    -21813.34278416
  -Hartree energ DENC   =     -3540.62809052
  -exchange      EXHF   =         0.00000000
  -V(xc)+E(xc)   XCENC  =       832.66554279
  PAW double counting   =     19905.73909771   -19710.81889590
  entropy T*S    EENTRO =        -0.00322574
  eigenvalues    EBANDS =     -2918.12972247
  atomic energy  EATOM  =     25630.00721240
  Solvation  Ediel_sol  =         0.00000000
  ---------------------------------------------------
  free energy    TOTEN  =      -178.02329176 eV

  energy without entropy =     -178.02006602  energy(sigma->0) =     -178.02167889


--------------------------------------------------------------------------------------------------------




--------------------------------------- Iteration      1(   5)  ---------------------------------------


     EDDAV:  cpu time      0.5255: real time      0.5269
       DOS:  cpu time      0.0004: real time      0.0004
    CHARGE:  cpu time      0.0537: real time      0.0538
    MIXING:  cpu time      0.0106: real time      0.0106
    --------------------------------------------
      LOOP:  cpu time      0.5902: real time      0.5917

 eigenvalue-minimisations  :  1328
 total energy-change (2. order) :-0.6269695E-01  (-0.6265090E-01)
 number of electron     424.9999848 magnetization      35.6122694
 augmentation part      -78.7083281 magnetization      34.3921072

 Broyden mixing:
  rms(total) = 0.25869E+01    rms(broyden)= 0.25864E+01
  rms(prec ) = 0.28392E+01
  weight for this iteration     100.00

 Free energy of the ion-electron system (eV)
  ---------------------------------------------------
  alpha Z        PSCENC =      1436.48757412
  Ewald energy   TEWEN  =    -21813.34278416
  -Hartree energ DENC   =     -3540.62809052
  -exchange      EXHF   =         0.00000000
  -V(xc)+E(xc)   XCENC  =       832.66554279
  PAW double counting   =     19905.73909771   -19710.81889590
  entropy T*S    EENTRO =        -0.00311193
  eigenvalues    EBANDS =     -2918.19253322
  atomic energy  EATOM  =     25630.00721240
  Solvation  Ediel_sol  =         0.00000000
  ---------------------------------------------------
  free energy    TOTEN  =      -178.08598871 eV

  energy without entropy =     -178.08287677  energy(sigma->0) =     -178.08443274


--------------------------------------------------------------------------------------------------------




--------------------------------------- Iteration      1(   6)  ---------------------------------------


    POTLOK:  cpu time      0.0096: real time      0.0099
    SETDIJ:  cpu time      2.3930: real time      2.3978
     EDDAV:  cpu time      0.5046: real time      0.5057
       DOS:  cpu time      0.0003: real time      0.0003
    CHARGE:  cpu time      0.0490: real time      0.0491
    MIXING:  cpu time      0.0107: real time      0.0107
    --------------------------------------------
      LOOP:  cpu time      2.9673: real time      2.9736

 eigenvalue-minimisations  :  1248
 total energy-change (2. order) : 0.5745755E+01  (-0.3154972E+01)
 number of electron     424.9999892 magnetization      24.1627880
 augmentation part      -78.5424787 magnetization      23.6977672

 Broyden mixing:
  rms(total) = 0.14015E+01    rms(broyden)= 0.14011E+01
  rms(prec ) = 0.14846E+01
  weight for this iteration     100.00

 eigenvalues of (default mixing * dielectric matrix)
  average eigenvalue GAMMA=   0.8485
  0.8485

 Free energy of the ion-electron system (eV)
  ---------------------------------------------------
  alpha Z        PSCENC =      1436.48757412
  Ewald energy   TEWEN  =    -21813.34278416
  -Hartree energ DENC   =     -3626.95621872
  -exchange      EXHF   =         0.00000000
  -V(xc)+E(xc)   XCENC  =       842.43957604
  PAW double counting   =     21414.01172686   -21221.55315902
  entropy T*S    EENTRO =        -0.00000028
  eigenvalues    EBANDS =     -2833.43416060
  atomic energy  EATOM  =     25630.00721240
  Solvation  Ediel_sol  =         0.00000000
  ---------------------------------------------------
  free energy    TOTEN  =      -172.34023336 eV

  energy without entropy =     -172.34023307  energy(sigma->0) =     -172.34023321


--------------------------------------------------------------------------------------------------------




--------------------------------------- Iteration      1(   7)  ---------------------------------------


    POTLOK:  cpu time      0.0094: real time      0.0096
    SETDIJ:  cpu time      2.2448: real time      2.2493
     EDDAV:  cpu time      0.5187: real time      0.5198
       DOS:  cpu time      0.0003: real time      0.0003
    CHARGE:  cpu time      0.0485: real time      0.0486
    MIXING:  cpu time      0.0111: real time      0.0116
    --------------------------------------------
      LOOP:  cpu time      2.8328: real time      2.8393

 eigenvalue-minimisations  :  1304
 total energy-change (2. order) :-0.2700182E+01  (-0.5960145E+00)
 number of electron     424.9999913 magnetization      13.5548550
 augmentation part      -78.7163756 magnetization      12.9397689

 Broyden mixing:
  rms(total) = 0.94464E+00    rms(broyden)= 0.94460E+00
  rms(prec ) = 0.98137E+00
  weight for this iteration     100.00

 eigenvalues of (default mixing * dielectric matrix)
  average eigenvalue GAMMA=   0.8889
  1.0139  0.7639

 Free energy of the ion-electron system (eV)
  ---------------------------------------------------
  alpha Z        PSCENC =      1436.48757412
  Ewald energy   TEWEN  =    -21813.34278416
  -Hartree energ DENC   =     -3646.26075154
  -exchange      EXHF   =         0.00000000
  -V(xc)+E(xc)   XCENC  =       840.64071368
  PAW double counting   =     22603.09018724   -22411.71931649
  entropy T*S    EENTRO =        -0.00000000
  eigenvalues    EBANDS =     -2813.94325075
  atomic energy  EATOM  =     25630.00721240
  Solvation  Ediel_sol  =         0.00000000
  ---------------------------------------------------
  free energy    TOTEN  =      -175.04041549 eV

  energy without entropy =     -175.04041549  energy(sigma->0) =     -175.04041549


--------------------------------------------------------------------------------------------------------




--------------------------------------- Iteration      1(   8)  ---------------------------------------


    POTLOK:  cpu time      0.0092: real time      0.0095
    SETDIJ:  cpu time      2.2383: real time      2.2428
     EDDAV:  cpu time      0.5325: real time      0.5336
       DOS:  cpu time      0.0003: real time      0.0003
    CHARGE:  cpu time      0.0488: real time      0.0489
    MIXING:  cpu time      0.0113: real time      0.0113
    --------------------------------------------
      LOOP:  cpu time      2.8403: real time      2.8464

 eigenvalue-minimisations  :  1352
 total energy-change (2. order) :-0.2077836E+01  (-0.1205408E+00)
 number of electron     424.9999920 magnetization       4.8346889
 augmentation part      -78.7463937 magnetization       4.0258205

 Broyden mixing:
  rms(total) = 0.51833E+00    rms(broyden)= 0.51831E+00
  rms(prec ) = 0.53494E+00
  weight for this iteration     100.00

 eigenvalues of (default mixing * dielectric matrix)
  average eigenvalue GAMMA=   1.3035
  2.3531  0.9378  0.6197

 Free energy of the ion-electron system (eV)
  ---------------------------------------------------
  alpha Z        PSCENC =      1436.48757412
  Ewald energy   TEWEN  =    -21813.34278416
  -Hartree energ DENC   =     -3656.27125006
  -exchange      EXHF   =         0.00000000
  -V(xc)+E(xc)   XCENC  =       841.07840331
  PAW double counting   =     23642.20529557   -23452.75860320
  entropy T*S    EENTRO =        -0.00000000
  eigenvalues    EBANDS =     -2804.52409924
  atomic energy  EATOM  =     25630.00721240
  Solvation  Ediel_sol  =         0.00000000
  ---------------------------------------------------
  free energy    TOTEN  =      -177.11825125 eV

  energy without entropy =     -177.11825125  energy(sigma->0) =     -177.11825125


--------------------------------------------------------------------------------------------------------




--------------------------------------- Iteration      1(   9)  ---------------------------------------


    POTLOK:  cpu time      0.0094: real time      0.0097
    SETDIJ:  cpu time      2.1924: real time      2.1968
     EDDAV:  cpu time      0.5151: real time      0.5163
       DOS:  cpu time      0.0003: real time      0.0003
    CHARGE:  cpu time      0.0487: real time      0.0488
    MIXING:  cpu time      0.0119: real time      0.0119
    --------------------------------------------
      LOOP:  cpu time      2.7778: real time      2.7838

 eigenvalue-minimisations  :  1288
 total energy-change (2. order) :-0.1085149E+01  (-0.5807845E-01)
 number of electron     424.9999921 magnetization       3.0167833
 augmentation part      -78.7988275 magnetization       2.0789459

 Broyden mixing:
  rms(total) = 0.13455E+00    rms(broyden)= 0.13453E+00
  rms(prec ) = 0.14271E+00
  weight for this iteration     100.00

 eigenvalues of (default mixing * dielectric matrix)
  average eigenvalue GAMMA=   1.2739
  2.4693  1.1847  0.8124  0.6292

 Free energy of the ion-electron system (eV)
  ---------------------------------------------------
  alpha Z        PSCENC =      1436.48757412
  Ewald energy   TEWEN  =    -21813.34278416
  -Hartree energ DENC   =     -3656.42973908
  -exchange      EXHF   =         0.00000000
  -V(xc)+E(xc)   XCENC  =       840.96216949
  PAW double counting   =     24403.39569237   -24215.32524067
  entropy T*S    EENTRO =        -0.00000000
  eigenvalues    EBANDS =     -2803.95828454
  atomic energy  EATOM  =     25630.00721240
  Solvation  Ediel_sol  =         0.00000000
  ---------------------------------------------------
  free energy    TOTEN  =      -178.20340007 eV

  energy without entropy =     -178.20340007  energy(sigma->0) =     -178.20340007


--------------------------------------------------------------------------------------------------------




--------------------------------------- Iteration      1(  10)  ---------------------------------------


    POTLOK:  cpu time      0.0094: real time      0.0097
    SETDIJ:  cpu time      2.1632: real time      2.1675
     EDDAV:  cpu time      0.5134: real time      0.5146
       DOS:  cpu time      0.0003: real time      0.0003
    CHARGE:  cpu time      0.0481: real time      0.0482
    MIXING:  cpu time      0.0126: real time      0.0126
    --------------------------------------------
      LOOP:  cpu time      2.7470: real time      2.7528

 eigenvalue-minimisations  :  1280
 total energy-change (2. order) :-0.1655261E+00  (-0.9613150E-02)
 number of electron     424.9999919 magnetization       2.2058816
 augmentation part      -78.8160098 magnetization       1.2075101

 Broyden mixing:
  rms(total) = 0.75370E-01    rms(broyden)= 0.75354E-01
  rms(prec ) = 0.78826E-01
  weight for this iteration     100.00

 eigenvalues of (default mixing * dielectric matrix)
  average eigenvalue GAMMA=   1.2240
  2.2963  1.5330  0.8715  0.7930  0.6261

 Free energy of the ion-electron system (eV)
  ---------------------------------------------------
  alpha Z        PSCENC =      1436.48757412
  Ewald energy   TEWEN  =    -21813.34278416
  -Hartree energ DENC   =     -3653.69000046
  -exchange      EXHF   =         0.00000000
  -V(xc)+E(xc)   XCENC  =       840.74800221
  PAW double counting   =     24408.93971674   -24221.11393295
  entropy T*S    EENTRO =        -0.00000001
  eigenvalues    EBANDS =     -2806.40471410
  atomic energy  EATOM  =     25630.00721240
  Solvation  Ediel_sol  =         0.00000000
  ---------------------------------------------------
  free energy    TOTEN  =      -178.36892620 eV

  energy without entropy =     -178.36892619  energy(sigma->0) =     -178.36892619


--------------------------------------------------------------------------------------------------------




--------------------------------------- Iteration      1(  11)  ---------------------------------------


    POTLOK:  cpu time      0.0094: real time      0.0096
    SETDIJ:  cpu time      2.0428: real time      2.0470
     EDDAV:  cpu time      0.5194: real time      0.5205
       DOS:  cpu time      0.0003: real time      0.0003
    CHARGE:  cpu time      0.0483: real time      0.0484
    MIXING:  cpu time      0.0126: real time      0.0127
    --------------------------------------------
      LOOP:  cpu time      2.6329: real time      2.6385

 eigenvalue-minimisations  :  1304
 total energy-change (2. order) :-0.4323356E-01  (-0.1324203E-02)
 number of electron     424.9999919 magnetization       1.0584832
 augmentation part      -78.8097438 magnetization       0.0386381

 Broyden mixing:
  rms(total) = 0.41614E-01    rms(broyden)= 0.41609E-01
  rms(prec ) = 0.44024E-01
  weight for this iteration     100.00

 eigenvalues of (default mixing * dielectric matrix)
  average eigenvalue GAMMA=   1.4197
  2.5290  2.5290  1.2609  0.8648  0.7181  0.6165

 Free energy of the ion-electron system (eV)
  ---------------------------------------------------
  alpha Z        PSCENC =      1436.48757412
  Ewald energy   TEWEN  =    -21813.34278416
  -Hartree energ DENC   =     -3653.96191842
  -exchange      EXHF   =         0.00000000
  -V(xc)+E(xc)   XCENC  =       840.78212483
  PAW double counting   =     24342.53092187   -24154.82706624
  entropy T*S    EENTRO =        -0.00000012
  eigenvalues    EBANDS =     -2806.08822403
  atomic energy  EATOM  =     25630.00721240
  Solvation  Ediel_sol  =         0.00000000
  ---------------------------------------------------
  free energy    TOTEN  =      -178.41215975 eV

  energy without entropy =     -178.41215963  energy(sigma->0) =     -178.41215969


--------------------------------------------------------------------------------------------------------




--------------------------------------- Iteration      1(  12)  ---------------------------------------


    POTLOK:  cpu time      0.0098: real time      0.0101
    SETDIJ:  cpu time      2.0425: real time      2.0467
     EDDAV:  cpu time      0.4959: real time      0.4970
       DOS:  cpu time      0.0003: real time      0.0003
    CHARGE:  cpu time      0.0483: real time      0.0484
    MIXING:  cpu time      0.0134: real time      0.0135
    --------------------------------------------
      LOOP:  cpu time      2.6103: real time      2.6160

 eigenvalue-minimisations  :  1216
 total energy-change (2. order) :-0.2360899E-01  (-0.1396975E-02)
 number of electron     424.9999919 magnetization       1.0160687
 augmentation part      -78.8077196 magnetization      -0.0258957

 Broyden mixing:
  rms(total) = 0.91889E-02    rms(broyden)= 0.91794E-02
  rms(prec ) = 0.97872E-02
  weight for this iteration     100.00

 eigenvalues of (default mixing * dielectric matrix)
  average eigenvalue GAMMA=   1.3628
  2.9179  2.2932  1.3794  0.8707  0.7733  0.6070  0.6983

 Free energy of the ion-electron system (eV)
  ---------------------------------------------------
  alpha Z        PSCENC =      1436.48757412
  Ewald energy   TEWEN  =    -21813.34278416
  -Hartree energ DENC   =     -3654.47926028
  -exchange      EXHF   =         0.00000000
  -V(xc)+E(xc)   XCENC  =       840.85648458
  PAW double counting   =     24291.68652076   -24104.12451117
  entropy T*S    EENTRO =        -0.00000167
  eigenvalues    EBANDS =     -2805.52700334
  atomic energy  EATOM  =     25630.00721240
  Solvation  Ediel_sol  =         0.00000000
  ---------------------------------------------------
  free energy    TOTEN  =      -178.43576875 eV

  energy without entropy =     -178.43576708  energy(sigma->0) =     -178.43576791


--------------------------------------------------------------------------------------------------------




--------------------------------------- Iteration      1(  13)  ---------------------------------------


    POTLOK:  cpu time      0.0100: real time      0.0102
    SETDIJ:  cpu time      2.0402: real time      2.0449
     EDDAV:  cpu time      0.5373: real time      0.5386
       DOS:  cpu time      0.0003: real time      0.0003
    CHARGE:  cpu time      0.0484: real time      0.0485
    MIXING:  cpu time      0.0141: real time      0.0141
    --------------------------------------------
      LOOP:  cpu time      2.6503: real time      2.6566

 eigenvalue-minimisations  :  1360
 total energy-change (2. order) :-0.5539145E-03  (-0.7276826E-04)
 number of electron     424.9999919 magnetization       1.0136134
 augmentation part      -78.8092260 magnetization      -0.0307442

 Broyden mixing:
  rms(total) = 0.50815E-02    rms(broyden)= 0.50801E-02
  rms(prec ) = 0.56761E-02
  weight for this iteration     100.00

 eigenvalues of (default mixing * dielectric matrix)
  average eigenvalue GAMMA=   1.3029
  2.9519  2.1947  1.4997  0.9750  0.8202  0.7303  0.6098  0.6421

 Free energy of the ion-electron system (eV)
  ---------------------------------------------------
  alpha Z        PSCENC =      1436.48757412
  Ewald energy   TEWEN  =    -21813.34278416
  -Hartree energ DENC   =     -3654.35734089
  -exchange      EXHF   =         0.00000000
  -V(xc)+E(xc)   XCENC  =       840.85200662
  PAW double counting   =     24294.78464176   -24107.21294797
  entropy T*S    EENTRO =        -0.00000192
  eigenvalues    EBANDS =     -2805.65468263
  atomic energy  EATOM  =     25630.00721240
  Solvation  Ediel_sol  =         0.00000000
  ---------------------------------------------------
  free energy    TOTEN  =      -178.43632266 eV

  energy without entropy =     -178.43632074  energy(sigma->0) =     -178.43632170


--------------------------------------------------------------------------------------------------------




--------------------------------------- Iteration      1(  14)  ---------------------------------------


    POTLOK:  cpu time      0.0097: real time      0.0100
    SETDIJ:  cpu time      2.0435: real time      2.0476
     EDDAV:  cpu time      0.4500: real time      0.4509
       DOS:  cpu time      0.0003: real time      0.0003
    CHARGE:  cpu time      0.0483: real time      0.0484
    MIXING:  cpu time      0.0141: real time      0.0141
    --------------------------------------------
      LOOP:  cpu time      2.5659: real time      2.5714

 eigenvalue-minimisations  :  1056
 total energy-change (2. order) :-0.1512805E-03  (-0.4375309E-05)
 number of electron     424.9999919 magnetization       1.0017944
 augmentation part      -78.8099526 magnetization      -0.0430026

 Broyden mixing:
  rms(total) = 0.28954E-02    rms(broyden)= 0.28952E-02
  rms(prec ) = 0.33209E-02
  weight for this iteration     100.00

 eigenvalues of (default mixing * dielectric matrix)
  average eigenvalue GAMMA=   1.3538
  2.9835  2.1624  2.1624  1.2218  0.8633  0.8633  0.6837  0.6007  0.6429

 Free energy of the ion-electron system (eV)
  ---------------------------------------------------
  alpha Z        PSCENC =      1436.48757412
  Ewald energy   TEWEN  =    -21813.34278416
  -Hartree energ DENC   =     -3654.23217974
  -exchange      EXHF   =         0.00000000
  -V(xc)+E(xc)   XCENC  =       840.84544088
  PAW double counting   =     24298.41238272   -24110.82785137
  entropy T*S    EENTRO =        -0.00000203
  eigenvalues    EBANDS =     -2805.78626677
  atomic energy  EATOM  =     25630.00721240
  Solvation  Ediel_sol  =         0.00000000
  ---------------------------------------------------
  free energy    TOTEN  =      -178.43647394 eV

  energy without entropy =     -178.43647191  energy(sigma->0) =     -178.43647293


--------------------------------------------------------------------------------------------------------




--------------------------------------- Iteration      1(  15)  ---------------------------------------


    POTLOK:  cpu time      0.0096: real time      0.0099
    SETDIJ:  cpu time      2.0368: real time      2.0409
     EDDAV:  cpu time      0.4496: real time      0.4506
       DOS:  cpu time      0.0004: real time      0.0003
    CHARGE:  cpu time      0.0479: real time      0.0480
    MIXING:  cpu time      0.0154: real time      0.0154
    --------------------------------------------
      LOOP:  cpu time      2.5597: real time      2.5652

 eigenvalue-minimisations  :  1056
 total energy-change (2. order) :-0.1250389E-03  (-0.4450452E-05)
 number of electron     424.9999919 magnetization       0.9997692
 augmentation part      -78.8104997 magnetization      -0.0453178

 Broyden mixing:
  rms(total) = 0.92878E-03    rms(broyden)= 0.92848E-03
  rms(prec ) = 0.11188E-02
  weight for this iteration     100.00

 eigenvalues of (default mixing * dielectric matrix)
  average eigenvalue GAMMA=   1.3586
  2.9843  2.4189  2.4189  1.2858  0.8841  0.8649  0.7505  0.7505  0.6023  0.6258

 Free energy of the ion-electron system (eV)
  ---------------------------------------------------
  alpha Z        PSCENC =      1436.48757412
  Ewald energy   TEWEN  =    -21813.34278416
  -Hartree energ DENC   =     -3654.13153075
  -exchange      EXHF   =         0.00000000
  -V(xc)+E(xc)   XCENC  =       840.84082036
  PAW double counting   =     24299.75352603   -24112.15772905
  entropy T*S    EENTRO =        -0.00000205
  eigenvalues    EBANDS =     -2805.89368589
  atomic energy  EATOM  =     25630.00721240
  Solvation  Ediel_sol  =         0.00000000
  ---------------------------------------------------
  free energy    TOTEN  =      -178.43659898 eV

  energy without entropy =     -178.43659693  energy(sigma->0) =     -178.43659796


--------------------------------------------------------------------------------------------------------




--------------------------------------- Iteration      1(  16)  ---------------------------------------


    POTLOK:  cpu time      0.0098: real time      0.0104
    SETDIJ:  cpu time      2.0549: real time      2.0590
     EDDAV:  cpu time      0.3999: real time      0.4007
       DOS:  cpu time      0.0003: real time      0.0003
    CHARGE:  cpu time      0.0490: real time      0.0491
    MIXING:  cpu time      0.0160: real time      0.0160
    --------------------------------------------
      LOOP:  cpu time      2.5299: real time      2.5355

 eigenvalue-minimisations  :   880
 total energy-change (2. order) :-0.1745522E-04  (-0.6244650E-06)
 number of electron     424.9999919 magnetization       0.9997422
 augmentation part      -78.8105337 magnetization      -0.0454399

 Broyden mixing:
  rms(total) = 0.54916E-03    rms(broyden)= 0.54911E-03
  rms(prec ) = 0.67124E-03
  weight for this iteration     100.00

 eigenvalues of (default mixing * dielectric matrix)
  average eigenvalue GAMMA=   1.3367
  2.9839  2.4733  2.4733  1.2307  0.9980  0.9980  0.8416  0.7764  0.7061  0.6232
  0.5995

 Free energy of the ion-electron system (eV)
  ---------------------------------------------------
  alpha Z        PSCENC =      1436.48757412
  Ewald energy   TEWEN  =    -21813.34278416
  -Hartree energ DENC   =     -3654.13227551
  -exchange      EXHF   =         0.00000000
  -V(xc)+E(xc)   XCENC  =       840.84142638
  PAW double counting   =     24299.70751226   -24112.11153358
  entropy T*S    EENTRO =        -0.00000207
  eigenvalues    EBANDS =     -2805.89374629
  atomic energy  EATOM  =     25630.00721240
  Solvation  Ediel_sol  =         0.00000000
  ---------------------------------------------------
  free energy    TOTEN  =      -178.43661644 eV

  energy without entropy =     -178.43661437  energy(sigma->0) =     -178.43661540


--------------------------------------------------------------------------------------------------------




--------------------------------------- Iteration      1(  17)  ---------------------------------------


    POTLOK:  cpu time      0.0096: real time      0.0099
    SETDIJ:  cpu time      2.0557: real time      2.0600
     EDDAV:  cpu time      0.3729: real time      0.3737
       DOS:  cpu time      0.0003: real time      0.0003
    --------------------------------------------
      LOOP:  cpu time      2.4385: real time      2.4439

 eigenvalue-minimisations  :   784
 total energy-change (2. order) :-0.6250983E-05  (-0.2618850E-06)
 number of electron     424.9999919 magnetization       0.9997422
 augmentation part      -78.8105337 magnetization      -0.0454399

 Free energy of the ion-electron system (eV)
  ---------------------------------------------------
  alpha Z        PSCENC =      1436.48757412
  Ewald energy   TEWEN  =    -21813.34278416
  -Hartree energ DENC   =     -3654.14856591
  -exchange      EXHF   =         0.00000000
  -V(xc)+E(xc)   XCENC  =       840.84284869
  PAW double counting   =     24299.87085529   -24112.27634854
  entropy T*S    EENTRO =        -0.00000208
  eigenvalues    EBANDS =     -2805.87741251
  atomic energy  EATOM  =     25630.00721240
  Solvation  Ediel_sol  =         0.00000000
  ---------------------------------------------------
  free energy    TOTEN  =      -178.43662269 eV

  energy without entropy =     -178.43662061  energy(sigma->0) =     -178.43662165


--------------------------------------------------------------------------------------------------------




 average (electrostatic) potential at core
  the test charge radii are     1.1312  0.9406
  (the norm of the test charge is              1.0000)
       1 -49.0395       2 -48.9785       3 -49.1208       4 -49.1872       5 -49.0341
       6 -49.1138       7 -49.1472       8 -49.0502       9 -49.0632      10 -48.9851
      11 -48.9864      12 -49.0478      13 -49.0800      14 -48.9124      15 -49.0025
      16 -49.1369      17 -49.0774      18 -49.0548      19 -49.0341      20 -49.0212
      21 -49.0340      22 -49.0693      23 -49.1149      24 -49.0454      25 -49.0556
      26 -49.0494      27 -49.0278      28 -92.9182      29 -93.0868      30 -93.0945
      31 -92.8927      32 -93.1409      33 -92.9929      34 -93.0201      35 -92.9789
      36 -92.9316      37 -92.9086      38 -92.9128      39 -92.9949      40 -92.9421
      41 -92.9897      42 -92.9859      43 -93.0230      44 -92.9483      45 -93.0418
      46 -92.9833      47 -93.0693      48 -93.0879      49 -93.0100      50 -93.0483
      51 -92.9091      52 -92.9295      53 -92.9824
 
 
 
 E-fermi :   4.3501     XC(G=0):  -8.4364     alpha+bet : -8.8046

 val. band max:        4.0305682755   @ k =   0.0000   0.0000   0.0000
 cond. band min:       4.6696374537   @ k =   0.0000   0.0000   0.0000
 fundamental gap:      0.6390691782
 Fermi energy:         4.3501028392

 spin component 1

 k-point     1 :       0.0000    0.0000    0.0000
  band No.  band energies     occupation 
      1     -19.5686      1.00000
      2     -19.5006      1.00000
      3     -19.4795      1.00000
      4     -19.4667      1.00000
      5     -19.4578      1.00000
      6     -19.4329      1.00000
      7     -19.4294      1.00000
      8     -19.4161      1.00000
      9     -19.4068      1.00000
     10     -19.3965      1.00000
     11     -19.3934      1.00000
     12     -19.3805      1.00000
     13     -19.3777      1.00000
     14     -19.3712      1.00000
     15     -19.3666      1.00000
     16     -19.3596      1.00000
     17     -19.3462      1.00000
     18     -19.3423      1.00000
     19     -19.3372      1.00000
     20     -19.3230      1.00000
     21     -19.3123      1.00000
     22     -19.3093      1.00000
     23     -19.2953      1.00000
     24     -19.2869      1.00000
     25     -19.2854      1.00000
     26     -19.2756      1.00000
     27     -19.2383      1.00000
     28     -12.5508      1.00000
     29     -12.5050      1.00000
     30     -12.4893      1.00000
     31     -12.4652      1.00000
     32     -12.4513      1.00000
     33     -12.4322      1.00000
     34     -12.4296      1.00000
     35     -12.4189      1.00000
     36     -12.4115      1.00000
     37     -12.3857      1.00000
     38     -12.3816      1.00000
     39     -12.3781      1.00000
     40     -12.3658      1.00000
     41     -12.3487      1.00000
     42     -12.3428      1.00000
     43     -12.3279      1.00000
     44     -12.3260      1.00000
     45     -12.3077      1.00000
     46     -12.3006      1.00000
     47     -12.2802      1.00000
     48     -12.2639      1.00000
     49     -12.2553      1.00000
     50     -12.2414      1.00000
     51     -12.2309      1.00000
     52     -12.2289      1.00000
     53     -12.2084      1.00000
     54      -6.7272      1.00000
     55      -6.7151      1.00000
     56      -6.6971      1.00000
     57      -6.6801      1.00000
     58      -6.6580      1.00000
     59      -6.6511      1.00000
     60      -6.6494      1.00000
     61      -6.6331      1.00000
     62      -6.6276      1.00000
     63      -6.6138      1.00000
     64      -6.6112      1.00000
     65      -6.6039      1.00000
     66      -6.5797      1.00000
     67      -6.5460      1.00000
     68      -6.5374      1.00000
     69      -6.5350      1.00000
     70      -6.5233      1.00000
     71      -6.5007      1.00000
     72      -6.4976      1.00000
     73      -6.4962      1.00000
     74      -6.4880      1.00000
     75      -6.4837      1.00000
     76      -6.4789      1.00000
     77      -6.4781      1.00000
     78      -6.4729      1.00000
     79      -6.4695      1.00000
     80      -6.4663      1.00000
     81      -6.4648      1.00000
     82      -6.4582      1.00000
     83      -6.4551      1.00000
     84      -6.4541      1.00000
     85      -6.4479      1.00000
     86      -6.4467      1.00000
     87      -6.4447      1.00000
     88      -6.4371      1.00000
     89      -6.4362      1.00000
     90      -6.4339      1.00000
     91      -6.4301      1.00000
     92      -6.4284      1.00000
     93      -6.4261      1.00000
     94      -6.4210      1.00000
     95      -6.4165      1.00000
     96      -6.4133      1.00000
     97      -6.4087      1.00000
     98      -6.4064      1.00000
     99      -6.4029      1.00000
    100      -6.3913      1.00000
    101      -6.3854      1.00000
    102      -6.3801      1.00000
    103      -6.3585      1.00000
    104      -6.3566      1.00000
    105      -6.3232      1.00000
    106      -6.3123      1.00000
    107      -6.2991      1.00000
    108      -5.9669      1.00000
    109      -5.9616      1.00000
    110      -5.9607      1.00000
    111      -5.8684      1.00000
    112      -5.8616      1.00000
    113      -5.8583      1.00000
    114      -5.8475      1.00000
    115      -5.8446      1.00000
    116      -5.8378      1.00000
    117      -5.8298      1.00000
    118      -5.8239      1.00000
    119      -5.8187      1.00000
    120      -5.8144      1.00000
    121      -5.8070      1.00000
    122      -5.8030      1.00000
    123      -5.7608      1.00000
    124      -5.7577      1.00000
    125      -5.7566      1.00000
    126      -5.7422      1.00000
    127      -5.7395      1.00000
    128      -5.7381      1.00000
    129      -5.7312      1.00000
    130      -5.7284      1.00000
    131      -5.7268      1.00000
    132      -5.7180      1.00000
    133      -5.7144      1.00000
    134      -5.7070      1.00000
    135      -1.2177      1.00000
    136      -1.2096      1.00000
    137      -1.1984      1.00000
    138      -1.1850      1.00000
    139      -1.1761      1.00000
    140      -1.1635      1.00000
    141      -1.0819      1.00000
    142      -1.0769      1.00000
    143      -1.0480      1.00000
    144      -1.0446      1.00000
    145      -1.0415      1.00000
    146      -1.0355      1.00000
    147      -1.0319      1.00000
    148      -1.0262      1.00000
    149      -1.0201      1.00000
    150      -1.0157      1.00000
    151      -1.0073      1.00000
    152      -0.9992      1.00000
    153      -0.9977      1.00000
    154      -0.9794      1.00000
    155      -0.9640      1.00000
    156      -0.9607      1.00000
    157      -0.9249      1.00000
    158      -0.9173      1.00000
    159      -0.9146      1.00000
    160      -0.9076      1.00000
    161      -0.8989      1.00000
    162      -0.8887      1.00000
    163      -0.8853      1.00000
    164      -0.8760      1.00000
    165      -0.8699      1.00000
    166      -0.8316      1.00000
    167      -0.8035      1.00000
    168      -0.7965      1.00000
    169      -0.7454      1.00000
    170      -0.7296      1.00000
    171      -0.7247      1.00000
    172      -0.7178      1.00000
    173      -0.7076      1.00000
    174      -0.6723      1.00000
    175      -0.6595      1.00000
    176      -0.6487      1.00000
    177      -0.5732      1.00000
    178      -0.5548      1.00000
    179      -0.5515      1.00000
    180      -0.5412      1.00000
    181      -0.5326      1.00000
    182      -0.5295      1.00000
    183      -0.5258      1.00000
    184      -0.5171      1.00000
    185      -0.5033      1.00000
    186      -0.4942      1.00000
    187      -0.4659      1.00000
    188      -0.4604      1.00000
    189      -0.4277      1.00000
    190      -0.4237      1.00000
    191      -0.4207      1.00000
    192      -0.4170      1.00000
    193      -0.4047      1.00000
    194      -0.3976      1.00000
    195      -0.3774      1.00000
    196      -0.3719      1.00000
    197      -0.3634      1.00000
    198      -0.3538      1.00000
    199      -0.3474      1.00000
    200      -0.3398      1.00000
    201      -0.3268      1.00000
    202      -0.3166      1.00000
    203      -0.3071      1.00000
    204      -0.3000      1.00000
    205      -0.2941      1.00000
    206      -0.2894      1.00000
    207      -0.2831      1.00000
    208      -0.2767      1.00000
    209      -0.2680      1.00000
    210      -0.1700      1.00000
    211      -0.1662      1.00000
    212      -0.1628      1.00000
    213       4.0306      1.00000
    214       5.0558      0.00000
    215       5.0581      0.00000
[...]


 VOLUME and BASIS-vectors are now :
 -----------------------------------------------------------------------------
  energy-cutoff  :      262.47
  volume of cell :     1827.64
      direct lattice vectors                 reciprocal lattice vectors
    12.226345917  0.000000000  0.000000000     0.081790586  0.000000000  0.000000000
     0.000000000 12.226345917  0.000000000     0.000000000  0.081790586  0.000000000
     0.000000000  0.000000000 12.226345917     0.000000000  0.000000000  0.081790586

  length of vectors
    12.226345917 12.226345917 12.226345917     0.081790586  0.081790586  0.081790586


 FORCES acting on ions
    electron-ion (+dipol)            ewald-force                    non-local-force                 convergence-correction
 -----------------------------------------------------------------------------------------------
   -.410E+02 -.421E+02 -.410E+02   0.409E+02 0.421E+02 0.410E+02   0.483E-01 0.609E-01 0.506E-01   -.384E-03 -.351E-03 0.185E-02
   -.422E+02 -.425E+02 0.410E+02   0.422E+02 0.425E+02 -.410E+02   0.440E-01 0.355E-01 -.499E-01   -.230E-02 -.901E-02 0.145E-02
   -.875E+01 -.854E+01 0.124E-01   0.875E+01 0.852E+01 -.139E-01   0.535E-02 0.126E-01 0.249E-02   0.112E-02 0.582E-03 -.247E-02
   -.414E+02 0.411E+02 -.420E+02   0.413E+02 -.410E+02 0.419E+02   0.449E-01 -.492E-01 0.655E-01   0.668E-02 -.103E-02 0.558E-02
   -.401E+02 0.430E+02 0.413E+02   0.400E+02 -.430E+02 -.412E+02   0.483E-01 -.784E-01 -.357E-01   0.631E-02 0.227E-02 0.302E-03
   -.865E+01 0.782E+01 0.330E+00   0.865E+01 -.783E+01 -.349E+00   0.624E-03 0.134E-01 0.189E-01   0.106E-02 -.796E-03 0.725E-03
   -.802E+01 -.256E+00 -.809E+01   0.802E+01 0.257E+00 0.810E+01   -.165E-02 0.400E-02 -.107E-01   0.454E-04 -.380E-02 0.134E-02
   -.861E+01 0.579E+00 0.864E+01   0.861E+01 -.563E+00 -.861E+01   0.546E-02 -.320E-01 -.210E-01   0.117E-02 -.127E-02 0.493E-03
   -.515E+01 -.207E+00 0.290E+00   0.512E+01 0.201E+00 -.285E+00   0.327E-01 0.112E-01 -.129E-01   -.197E-02 0.170E-02 -.239E-02
   0.410E+02 -.416E+02 -.412E+02   -.409E+02 0.416E+02 0.412E+02   -.562E-01 0.397E-01 0.232E-01   -.154E-02 0.186E-02 -.110E-03
   0.416E+02 -.408E+02 0.413E+02   -.415E+02 0.407E+02 -.412E+02   -.637E-01 0.569E-01 -.721E-01   -.432E-02 0.607E-03 -.469E-02
   0.853E+01 -.901E+01 0.253E+00   -.853E+01 0.900E+01 -.234E+00   -.194E-02 0.151E-01 -.340E-01   -.205E-02 0.524E-03 -.249E-02
   0.415E+02 0.409E+02 -.415E+02   -.415E+02 -.409E+02 0.415E+02   -.648E-01 -.649E-01 0.757E-01   -.292E-02 -.369E-02 0.286E-02
   0.409E+02 0.413E+02 0.424E+02   -.409E+02 -.413E+02 -.424E+02   -.473E-01 -.404E-01 -.403E-01   -.128E-02 0.453E-02 0.986E-03
   0.872E+01 0.809E+01 -.870E+00   -.870E+01 -.809E+01 0.855E+00   -.175E-01 -.251E-03 0.335E-01   -.312E-03 -.328E-03 0.558E-02
   0.800E+01 0.296E+00 -.827E+01   -.799E+01 -.288E+00 0.827E+01   -.995E-03 -.155E-01 -.410E-02   -.179E-02 -.376E-02 0.133E-02
   0.892E+01 0.157E+00 0.852E+01   -.891E+01 -.174E+00 -.850E+01   -.109E-01 0.141E-01 -.111E-01   -.221E-02 0.431E-02 -.887E-03
   0.526E+01 0.414E+00 0.350E+00   -.523E+01 -.420E+00 -.342E+00   -.285E-01 0.236E-02 -.173E-01   0.138E-02 0.773E-04 -.857E-03
   0.668E+00 -.856E+01 -.860E+01   -.669E+00 0.853E+01 0.859E+01   -.117E-01 0.220E-01 0.113E-01   0.493E-02 -.905E-03 -.441E-03
   0.477E+00 -.928E+01 0.912E+01   -.466E+00 0.926E+01 -.912E+01   -.247E-01 0.183E-01 -.640E-02   -.687E-03 -.138E-02 -.128E-03
   0.158E+00 -.474E+01 -.503E+00   -.158E+00 0.472E+01 0.507E+00   -.271E-02 0.249E-01 -.170E-03   0.604E-03 -.112E-02 0.259E-03
   0.759E+00 0.813E+01 -.830E+01   -.760E+00 -.813E+01 0.831E+01   -.114E-01 0.940E-02 -.970E-02   0.213E-02 -.693E-03 -.398E-03
   -.135E+00 0.857E+01 0.881E+01   0.133E+00 -.857E+01 -.879E+01   0.481E-02 0.350E-03 -.198E-01   0.527E-03 0.166E-02 0.620E-03
   0.372E+00 0.423E+01 0.255E+00   -.374E+00 -.421E+01 -.254E+00   -.456E-02 -.153E-01 -.909E-02   -.179E-02 0.985E-03 -.141E-02
   0.268E+00 -.618E+00 -.485E+01   -.270E+00 0.612E+00 0.482E+01   -.121E-02 0.169E-01 0.299E-01   0.989E-04 0.271E-02 -.194E-02
   -.322E+00 0.601E-01 0.521E+01   0.317E+00 -.699E-01 -.518E+01   0.885E-02 0.139E-01 -.281E-01   0.606E-03 -.284E-03 0.144E-02
   -.281E+00 -.192E-01 -.142E+00   0.278E+00 0.123E-01 0.148E+00   0.758E-02 0.772E-02 -.545E-02   -.835E-03 0.839E-03 -.738E-03
   0.751E+00 0.206E+00 0.356E+02   -.742E+00 -.203E+00 -.357E+02   -.794E-02 0.119E-01 0.674E-01   -.675E-02 -.879E-02 0.285E-02
   -.648E+00 0.173E-01 -.361E+02   0.647E+00 -.187E-01 0.362E+02   0.872E-02 -.106E-01 -.204E-01   -.728E-03 0.608E-02 0.294E-02
   -.807E+00 0.363E+02 -.111E-01   0.803E+00 -.364E+02 0.814E-02   0.143E-01 0.187E-01 0.101E-01   -.712E-03 -.496E-02 -.218E-02
   -.187E+00 0.976E+01 0.912E+01   0.188E+00 -.976E+01 -.912E+01   0.445E-02 0.166E-02 0.249E-01   -.300E-02 0.205E-02 -.727E-02
   -.474E+00 0.108E+02 -.104E+02   0.469E+00 -.108E+02 0.104E+02   -.126E-02 -.807E-02 0.792E-02   0.573E-02 -.436E-02 0.204E-02
   -.269E+00 -.355E+02 0.304E+00   0.272E+00 0.356E+02 -.295E+00   -.425E-02 -.681E-01 -.202E-01   -.281E-03 -.745E-02 0.180E-02
   0.205E+00 -.992E+01 0.103E+02   -.201E+00 0.992E+01 -.103E+02   -.780E-02 -.149E-01 -.581E-02   -.730E-03 0.145E-02 -.889E-02
   0.154E+00 -.971E+01 -.993E+01   -.153E+00 0.972E+01 0.994E+01   0.184E-02 -.179E-01 -.994E-02   -.275E-02 0.114E-02 -.198E-02
   0.353E+02 -.617E+00 0.296E+00   -.354E+02 0.606E+00 -.294E+00   0.581E-01 0.162E-01 -.544E-02   -.893E-02 0.312E-02 0.413E-03
   0.102E+02 -.736E+00 0.102E+02   -.102E+02 0.727E+00 -.102E+02   -.813E-03 0.120E-01 0.447E-02   0.229E-03 0.334E-02 0.245E-02
   0.100E+02 -.996E-01 -.107E+02   -.101E+02 0.965E-01 0.107E+02   0.132E-01 0.106E-02 0.354E-02   -.528E-02 0.265E-02 -.306E-02
   0.101E+02 0.106E+02 0.274E+00   -.101E+02 -.106E+02 -.278E+00   0.156E-01 0.366E-02 -.148E-02   -.768E-02 -.224E-02 0.339E-02
   0.475E+01 0.478E+01 0.443E+01   -.477E+01 -.480E+01 -.445E+01   0.161E-01 0.303E-01 0.255E-01   -.310E-02 0.839E-04 0.728E-03
   0.482E+01 0.552E+01 -.548E+01   -.485E+01 -.553E+01 0.550E+01   0.273E-01 0.512E-02 -.176E-02   0.112E-02 0.437E-02 -.616E-02
   0.997E+01 -.104E+02 0.135E+01   -.998E+01 0.104E+02 -.134E+01   0.577E-02 -.131E-02 -.192E-01   0.185E-02 0.464E-03 0.776E-03
   0.512E+01 -.506E+01 0.488E+01   -.513E+01 0.507E+01 -.489E+01   0.687E-02 0.483E-02 0.132E-02   -.192E-02 0.213E-03 -.215E-02
   0.443E+01 -.484E+01 -.540E+01   -.445E+01 0.485E+01 0.542E+01   0.171E-01 -.143E-01 -.187E-01   0.422E-02 -.120E-02 0.180E-02
   -.361E+02 -.130E+00 -.331E+00   0.361E+02 0.135E+00 0.338E+00   -.479E-01 -.929E-02 -.513E-02   0.100E-02 -.377E-03 -.277E-02
   -.105E+02 -.590E+00 0.106E+02   0.105E+02 0.591E+00 -.107E+02   -.808E-02 -.123E-02 0.128E-01   0.572E-02 0.118E-02 -.640E-03
   -.104E+02 -.275E-01 -.108E+02   0.104E+02 0.275E-01 0.108E+02   0.226E-02 0.134E-01 0.998E-02   -.222E-02 -.584E-02 0.417E-02
   -.103E+02 0.106E+02 -.509E-01   0.103E+02 -.106E+02 0.457E-01   0.310E-02 0.446E-03 -.302E-02   0.719E-02 0.772E-02 0.616E-02
   -.492E+01 0.532E+01 0.465E+01   0.493E+01 -.535E+01 -.467E+01   -.693E-02 0.124E-01 0.231E-01   0.629E-02 0.791E-02 -.335E-02
   -.505E+01 0.514E+01 -.521E+01   0.506E+01 -.515E+01 0.522E+01   0.310E-03 -.390E-02 0.802E-03   -.968E-03 0.637E-02 -.224E-02
   -.958E+01 -.930E+01 0.951E+00   0.958E+01 0.931E+01 -.948E+00   -.849E-02 -.237E-01 -.742E-02   0.285E-02 0.428E-02 -.181E-02
   -.444E+01 -.408E+01 0.415E+01   0.446E+01 0.410E+01 -.417E+01   -.335E-01 -.265E-01 0.165E-01   0.468E-02 -.374E-02 -.384E-03
   -.480E+01 -.444E+01 -.512E+01   0.481E+01 0.447E+01 0.514E+01   -.108E-01 -.281E-01 -.140E-01   -.276E-03 -.152E-02 0.991E-03
 -----------------------------------------------------------------------------------------------
   0.392E-01 -.404E-01 0.332E-01   0.423E-12 0.790E-13 0.231E-13   -.419E-01 -.128E-01 -.787E-03   -.219E-02 0.621E-02 -.650E-02
 
 
 POSITION                                       TOTAL-FORCE (eV/Angst)
 -----------------------------------------------------------------------------------
     12.21306     12.21870     12.20750        -0.006155      0.003502     -0.000367
     12.20630     12.21888      4.08764         0.020047      0.012548      0.004593
      0.00098      0.00781      8.14690        -0.000289     -0.005362     -0.001889
     12.20402      4.10625     12.18691         0.008418     -0.007073      0.017910
     12.21532      4.12426      4.07934        -0.013709     -0.017172      0.004100
     12.22570      4.07827      8.13798         0.000113      0.006531      0.000603
      0.00071      8.16063      0.00022        -0.005930      0.002768     -0.004866
     12.22586      8.17524      4.07516         0.001427     -0.016463      0.000210
     12.22269      8.15471      8.15394         0.002859      0.008008     -0.010632
      4.08933     12.22428     12.21509         0.003866     -0.007755      0.000510
      4.11248     12.20681      4.10676        -0.022619      0.007176     -0.014105
      4.07648      0.00204      8.16192         0.000277      0.003654     -0.017706
      4.09476      4.10428     12.19175        -0.009438     -0.002308      0.007419
      4.08276      4.09234      4.08023         0.012445     -0.001283     -0.002047
      4.07563      4.07832      8.12697         0.000425      0.003239      0.023096
      4.07122      8.16621      0.00177         0.008780     -0.010474     -0.005882
      4.07786      8.15317      4.07384        -0.004506      0.002603      0.003094
      4.07689      8.15677      8.15407        -0.002066     -0.002380     -0.010296
      8.15366      0.00606     12.22477        -0.007787     -0.005318     -0.001486
      8.16252      0.00115      4.07551        -0.014136      0.004945     -0.002777
      8.15257      0.00352      8.14620        -0.001597     -0.003569      0.004321
      8.15278      4.07630     12.22554        -0.010390      0.007042     -0.005177
      8.14786      4.07810      4.06972         0.003556      0.000296      0.005835
      8.15395      4.07799      8.15078        -0.007958      0.007692     -0.010190
      8.14946      8.14994     12.22319        -0.003030      0.013998     -0.002315
      8.14883      8.15111      4.07454         0.004841      0.004783      0.000668
      8.14772      8.15471      8.14753         0.003794      0.002572     -0.000594
      2.04314      2.04094      6.08276        -0.005331      0.006821      0.000907
      2.03105      2.05434     10.18372         0.006931     -0.005055      0.013379
      2.02841      6.12338      2.02067         0.009449     -0.012064      0.004481
      2.03413      6.12266      6.09546         0.003223      0.002318      0.013455
      2.03566      6.12790     10.17310        -0.000795     -0.004685      0.004512
      2.04191     10.22317      2.04607        -0.001540      0.000038     -0.009806
      2.04497     10.19766      6.12108        -0.004347     -0.004611     -0.004738
      2.03623     10.20423     10.19483         0.000682     -0.006709     -0.004313
      6.09450      2.03703      2.03576         0.001854      0.009725     -0.003581
      6.12087      2.03410      6.11128        -0.001821      0.007492     -0.001298
      6.10840      2.04679     10.18198         0.005883      0.001475      0.003873
      6.10456      6.11552      2.03004         0.006237      0.001269     -0.002809
      6.11333      6.11053      6.10412        -0.000143      0.007698      0.003260
      6.11146      6.12781     10.17303         0.003699     -0.007826      0.009331
      6.11776     10.19029      2.04737         0.001048      0.003142     -0.012756
      6.12532     10.17814      6.12449        -0.004912      0.012636     -0.007991
      6.11486     10.19434     10.19093         0.000774      0.004324      0.000537
     10.20294      2.05504      2.02978         0.006823     -0.003737     -0.001066
     10.19279      2.04965      6.10445        -0.001665      0.001774      0.001968
     10.18332      2.04126     10.17779         0.004412      0.008470      0.005530
     10.18253      6.12848      2.03094         0.003296     -0.001235     -0.002578
     10.18205      6.12884      6.10831         0.004708     -0.003100      0.002475
     10.17747      6.12908     10.17459         0.009690     -0.010248      0.008846
     10.19147     10.20616      2.03642        -0.003879     -0.012091     -0.006123
     10.19464     10.19809      6.11347        -0.009062     -0.004260      0.001012
     10.18320     10.19618     10.18339         0.003546     -0.003759      0.001464
 -----------------------------------------------------------------------------------
    total drift:                               -0.004855     -0.047010      0.025961


--------------------------------------------------------------------------------------------------------



  FREE ENERGIE OF THE ION-ELECTRON SYSTEM (eV)
  ---------------------------------------------------
  free  energy   TOTEN  =      -178.59036951 eV

  energy  without entropy=     -178.59036791  energy(sigma->0) =     -178.59036871
 d Force = 0.4111629E-03[-0.161E-03, 0.984E-03]  d Energy = 0.4003127E-03 0.109E-04
 d Force =-0.6026675E+00[-0.625E+00,-0.581E+00]  d Ewald  =-0.6026711E+00 0.362E-05
 


--------------------------------------------------------------------------------------------------------


    POTLOK:  cpu time      2.2559: real time      2.5617


--------------------------------------------------------------------------------------------------------




--------------------------------------------------------------------------------------------------------


  
 reached required accuracy - stopping structural energy minimisation
     LOOP+:  cpu time     18.6933: real time     19.2590
    4ORBIT:  cpu time      0.0001: real time      0.0150



 total charge

# of ion       s       p       d       tot
------------------------------------------
    1        1.969   4.698   0.037   6.704
    2        1.969   4.698   0.037   6.704
    3        1.967   4.702   0.035   6.704
    4        1.973   4.698   0.037   6.708
    5        1.975   4.699   0.037   6.710
    6        1.967   4.702   0.035   6.704
    7        1.967   4.702   0.035   6.704
    8        1.968   4.702   0.035   6.705
    9        1.966   4.702   0.035   6.704
   10        1.969   4.698   0.037   6.704
   11        1.973   4.699   0.037   6.708
   12        1.967   4.702   0.035   6.704
   13        1.972   4.698   0.037   6.707
   14        1.969   4.698   0.037   6.704
   15        1.968   4.702   0.035   6.705
   16        1.967   4.702   0.035   6.704
   17        1.966   4.702   0.035   6.703
   18        1.966   4.702   0.035   6.704
   19        1.967   4.702   0.035   6.703
   20        1.967   4.702   0.035   6.704
   21        1.966   4.702   0.035   6.704
   22        1.966   4.702   0.035   6.703
   23        1.967   4.702   0.035   6.703
   24        1.966   4.702   0.035   6.704
   25        1.966   4.702   0.035   6.704
   26        1.966   4.702   0.035   6.704
   27        1.967   4.701   0.035   6.704
   28        1.582   3.552   0.000   5.134
   29        1.582   3.552   0.000   5.134
   30        1.582   3.552   0.000   5.134
   31        1.581   3.556   0.000   5.137
   32        1.581   3.556   0.000   5.137
   33        1.582   3.552   0.000   5.134
   34        1.581   3.555   0.000   5.137
   35        1.581   3.556   0.000   5.137
   36        1.582   3.552   0.000   5.134
   37        1.581   3.556   0.000   5.137
   38        1.581   3.556   0.000   5.137
   39        1.581   3.556   0.000   5.137
   40        1.582   3.555   0.000   5.136
   41        1.582   3.555   0.000   5.136
   42        1.581   3.556   0.000   5.137
   43        1.582   3.555   0.000   5.137
   44        1.582   3.555   0.000   5.136
   45        1.582   3.552   0.000   5.134
   46        1.581   3.556   0.000   5.137
   47        1.581   3.556   0.000   5.137
   48        1.581   3.556   0.000   5.137
   49        1.582   3.555   0.000   5.136
   50        1.582   3.555   0.000   5.137
   51        1.581   3.556   0.000   5.137
   52        1.582   3.555   0.000   5.137
   53        1.582   3.555   0.000   5.136
--------------------------------------------------
tot         94.255 219.349   0.954 314.558



 magnetization (x)

# of ion       s       p       d       tot
------------------------------------------
    1        0.003   0.002   0.005   0.010
    2        0.003   0.002   0.005   0.010
    3        0.000  -0.000   0.000   0.000
    4        0.003   0.002   0.005   0.010
    5        0.004   0.002   0.005   0.011
    6        0.000  -0.000   0.000   0.000
    7        0.000  -0.000   0.000   0.000
    8        0.000  -0.000   0.000   0.000
    9        0.000  -0.000   0.000   0.000
   10        0.003   0.002   0.005   0.010
   11        0.003   0.002   0.005   0.010
   12        0.000  -0.000   0.000   0.000
   13        0.003   0.002   0.005   0.010
   14        0.003   0.002   0.005   0.010
   15        0.000  -0.000   0.000   0.000
   16        0.000  -0.000   0.000   0.000
   17        0.000  -0.000   0.000   0.000
   18        0.000  -0.000   0.000   0.000
   19        0.000  -0.000   0.000   0.000
   20        0.000  -0.000   0.000   0.000
   21        0.000  -0.000   0.000   0.000
   22        0.000  -0.000   0.000   0.000
   23        0.000  -0.000   0.000   0.000
   24        0.000  -0.000   0.000   0.000
   25        0.000  -0.000   0.000   0.000
   26        0.000  -0.000   0.000   0.000
   27        0.001  -0.000   0.000   0.001
   28        0.001  -0.000   0.000   0.001
   29        0.001  -0.000   0.000   0.001
   30        0.001  -0.000   0.000   0.001
   31        0.000  -0.000   0.000  -0.000
   32        0.000  -0.000   0.000  -0.000
   33        0.001  -0.000   0.000   0.001
   34        0.000  -0.000   0.000  -0.000
   35        0.000  -0.000   0.000  -0.000
   36        0.001  -0.000   0.000   0.001
   37        0.000  -0.000   0.000  -0.000
   38        0.000  -0.000   0.000  -0.000
   39        0.000  -0.000   0.000  -0.000
   40        0.001  -0.000   0.000   0.001
   41        0.001  -0.000   0.000   0.001
   42        0.000  -0.000   0.000  -0.000
   43        0.001  -0.000   0.000   0.001
   44        0.001  -0.000   0.000   0.001
   45        0.001  -0.000   0.000   0.001
   46        0.000  -0.000   0.000  -0.000
   47        0.000  -0.000   0.000  -0.000
   48        0.000  -0.000   0.000  -0.000
   49        0.001  -0.000   0.000   0.001
   50        0.001  -0.000   0.000   0.001
   51        0.000  -0.000   0.000  -0.000
   52        0.001  -0.000   0.000   0.001
   53        0.001  -0.000   0.000   0.001
--------------------------------------------------
tot          0.050   0.006   0.043   0.100
 

 total amount of memory used by VASP MPI-rank0   179556. kBytes
=======================================================================

   base                                    :      30000. kBytes
   nonlr-proj                              :       6451. kBytes
   fftplans                                :      15598. kBytes
   grid                                    :      44900. kBytes
   one-center                              :        859. kBytes
   wavefun                                 :      81748. kBytes
 
  
  
 General timing and accounting informations for this job:
 ========================================================
  
                  Total CPU time used (sec):      302.325
                            User time (sec):      300.049
                          System time (sec):        2.276
                         Elapsed time (sec):      304.739
  
                   Maximum memory used (kb):     1934748.
                   Average memory used (kb):          N/A
  
                          Minor page faults:       246016
                          Major page faults:          272
                 Voluntary context switches:        24903
