<?xml version="1.0" encoding="ISO-8859-1"?>
<modeling>
 <generator>
  <i name="program" type="string">vasp </i>
  <i name="version" type="string">6.5.1  </i>
  <i name="subversion" type="string">10Mar25 (build May 13 2025 11:33:44) complex                          parallel </i>
  <i name="platform" type="string">LinuxNV </i>
  <i name="date" type="string">2026 05 13 </i>
  <i name="time" type="string">15:00:31 </i>
 </generator>
 <incar>
  <i type="string" name="PREC">Normal</i>
  <i type="string" name="ALGO">Normal</i>
  <i type="int" name="ISPIN">     2</i>
  <i type="int" name="NELM">   100</i>
  <i type="int" name="IBRION">     2</i>
  <i name="EDIFF">      0.00001000</i>
  <i name="EDIFFG">     -0.03000000</i>
  <i type="int" name="NSW">   300</i>
  <i type="int" name="ISIF">     2</i>
  <i name="ENCUT">    262.47200000</i>
  <i type="string" name="LREAL">Auto</i>
  <i type="int" name="ISMEAR">     0</i>
  <i name="SIGMA">      0.10000000</i>
  <i type="logical" name="LWAVE"> F  </i>
  <i type="logical" name="LCHARG"> F  </i>
  <i type="int" name="LORBIT">    10</i>
  <i type="logical" name="LASPH"> T  </i>
  <i type="string" name="GGA">Ps</i>
 </incar>
 <primitive_cell>
  <structure name="primitive_cell" >
   <crystal>
    <varray name="basis" >
     <v>      12.22634592       0.00000000       0.00000000 </v>
     <v>       0.00000000      12.22634592       0.00000000 </v>
     <v>       0.00000000       0.00000000      12.22634592 </v>
    </varray>
    <i name="volume">   1827.63740156 </i>
    <varray name="rec_basis" >
     <v>       0.08179059       0.00000000       0.00000000 </v>
     <v>       0.00000000       0.08179059       0.00000000 </v>
     <v>       0.00000000       0.00000000       0.08179059 </v>
    </varray>
   </crystal>
   <varray name="positions" >
    <v>       0.99426450       0.00748214       0.99708089 </v>
    <v>       0.00821244       0.00799729       0.33485020 </v>
    <v>       0.00000000       0.00000000       0.66666667 </v>
    <v>       0.99994579       0.33822261       0.99311104 </v>
    <v>       0.98900911       0.33954525       0.32780744 </v>
    <v>       0.00000000       0.33333333       0.66666667 </v>
    <v>       0.00000000       0.66666667       0.00000000 </v>
    <v>       0.00000000       0.66666667       0.33333333 </v>
    <v>       0.00000000       0.66666667       0.66666667 </v>
    <v>       0.33135132       0.00277746       0.00233725 </v>
    <v>       0.33563042       0.98617369       0.34053548 </v>
    <v>       0.33333333       0.00000000       0.66666667 </v>
    <v>       0.32173188       0.34126102       0.99240495 </v>
    <v>       0.33742944       0.33416497       0.32247983 </v>
    <v>       0.33333333       0.33333333       0.66666667 </v>
    <v>       0.33333333       0.66666667       0.00000000 </v>
    <v>       0.33333333       0.66666667       0.33333333 </v>
    <v>       0.33333333       0.66666667       0.66666667 </v>
    <v>       0.66666667       0.00000000       0.00000000 </v>
    <v>       0.66666667       0.00000000       0.33333333 </v>
    <v>       0.66666667       0.00000000       0.66666667 </v>
    <v>       0.66666667       0.33333333       0.00000000 </v>
    <v>       0.66666667       0.33333333       0.33333333 </v>
    <v>       0.66666667       0.33333333       0.66666667 </v>
    <v>       0.66666667       0.66666667       0.00000000 </v>
    <v>       0.66666667       0.66666667       0.33333333 </v>
    <v>       0.66666667       0.66666667       0.66666667 </v>
    <v>       0.16729174       0.17171689       0.49449688 </v>
    <v>       0.17519018       0.16615641       0.83392719 </v>
    <v>       0.16852786       0.50064600       0.17076405 </v>
    <v>       0.16666667       0.50000000       0.50000000 </v>
    <v>       0.16666667       0.50000000       0.83333333 </v>
    <v>       0.16677679       0.84349226       0.17299892 </v>
    <v>       0.16666667       0.83333333       0.50000000 </v>
    <v>       0.16666667       0.83333333       0.83333333 </v>
    <v>       0.49931714       0.16755349       0.16706944 </v>
    <v>       0.50000000       0.16666667       0.50000000 </v>
    <v>       0.50000000       0.16666667       0.83333333 </v>
    <v>       0.50000000       0.50000000       0.16666667 </v>
    <v>       0.50000000       0.50000000       0.50000000 </v>
    <v>       0.50000000       0.50000000       0.83333333 </v>
    <v>       0.50000000       0.83333333       0.16666667 </v>
    <v>       0.50000000       0.83333333       0.50000000 </v>
    <v>       0.50000000       0.83333333       0.83333333 </v>
    <v>       0.83856624       0.16123328       0.16401104 </v>
    <v>       0.83333333       0.16666667       0.50000000 </v>
    <v>       0.83333333       0.16666667       0.83333333 </v>
    <v>       0.83333333       0.50000000       0.16666667 </v>
    <v>       0.83333333       0.50000000       0.50000000 </v>
    <v>       0.83333333       0.50000000       0.83333333 </v>
    <v>       0.83333333       0.83333333       0.16666667 </v>
    <v>       0.83333333       0.83333333       0.50000000 </v>
    <v>       0.83333333       0.83333333       0.83333333 </v>
   </varray>
  </structure>
  <varray name="primitive_index" >
   <v type="int" >        1 </v>
   <v type="int" >        2 </v>
   <v type="int" >        3 </v>
   <v type="int" >        4 </v>
   <v type="int" >        5 </v>
   <v type="int" >        6 </v>
   <v type="int" >        7 </v>
   <v type="int" >        8 </v>
   <v type="int" >        9 </v>
   <v type="int" >       10 </v>
   <v type="int" >       11 </v>
   <v type="int" >       12 </v>
   <v type="int" >       13 </v>
   <v type="int" >       14 </v>
   <v type="int" >       15 </v>
   <v type="int" >       16 </v>
   <v type="int" >       17 </v>
   <v type="int" >       18 </v>
   <v type="int" >       19 </v>
   <v type="int" >       20 </v>
   <v type="int" >       21 </v>
   <v type="int" >       22 </v>
   <v type="int" >       23 </v>
   <v type="int" >       24 </v>
   <v type="int" >       25 </v>
   <v type="int" >       26 </v>
   <v type="int" >       27 </v>
   <v type="int" >       28 </v>
   <v type="int" >       29 </v>
   <v type="int" >       30 </v>
   <v type="int" >       31 </v>
   <v type="int" >       32 </v>
   <v type="int" >       33 </v>
   <v type="int" >       34 </v>
   <v type="int" >       35 </v>
   <v type="int" >       36 </v>
   <v type="int" >       37 </v>
   <v type="int" >       38 </v>
   <v type="int" >       39 </v>
   <v type="int" >       40 </v>
   <v type="int" >       41 </v>
   <v type="int" >       42 </v>
   <v type="int" >       43 </v>
   <v type="int" >       44 </v>
   <v type="int" >       45 </v>
   <v type="int" >       46 </v>
   <v type="int" >       47 </v>
   <v type="int" >       48 </v>
   <v type="int" >       49 </v>
   <v type="int" >       50 </v>
   <v type="int" >       51 </v>
   <v type="int" >       52 </v>
   <v type="int" >       53 </v>
  </varray>
 </primitive_cell>
 <kpoints>
  <generation param="Gamma">
   <v type="int" name="divisions">       1        1        1 </v>
   <v name="usershift">      0.00000000       0.00000000       0.00000000 </v>
   <v name="genvec1">      1.00000000       0.00000000       0.00000000 </v>
   <v name="genvec2">      0.00000000       1.00000000       0.00000000 </v>
   <v name="genvec3">      0.00000000       0.00000000       1.00000000 </v>
   <v name="shift">      0.00000000       0.00000000       0.00000000 </v>
  </generation>
  <varray name="kpointlist" >
   <v>       0.00000000       0.00000000       0.00000000 </v>
  </varray>
  <varray name="weights" >
   <v>       1.00000000 </v>
  </varray>
 </kpoints>
 <parameters>
  <separator name="general" >
   <i type="string" name="SYSTEM">unknown system</i>
   <i type="logical" name="LCOMPAT"> F  </i>
  </separator>
  <separator name="electronic" >
   <i type="string" name="PREC">normal</i>
   <i name="ENMAX">    262.47200000</i>
   <i name="ENAUG">    407.93300000</i>
   <i name="EDIFF">      0.00001000</i>
   <i type="int" name="IALGO">    38</i>
   <i type="int" name="IWAVPR">    11</i>
   <i type="int" name="NBANDS">   282</i>
   <i type="int" name="NBANDSLOW">    -1</i>
   <i type="int" name="NBANDSHIGH">    -1</i>
   <i name="NELECT">    425.00000000</i>
   <i type="int" name="TURBO">     0</i>
   <i type="int" name="IRESTART">     0</i>
   <i type="int" name="NREBOOT">     0</i>
   <i type="int" name="NMIN">     0</i>
   <i name="EREF">      0.00000000</i>
   <separator name="electronic smearing" >
    <i type="int" name="ISMEAR">     0</i>
    <i name="SIGMA">      0.10000000</i>
    <i name="KSPACING">      0.50000000</i>
    <i type="logical" name="KGAMMA"> T  </i>
    <i type="logical" name="KBLOWUP"> T  </i>
   </separator>
   <separator name="electronic projectors" >
    <i type="logical" name="LREAL"> T  </i>
    <v name="ROPT">     -0.00050000     -0.00050000</v>
    <i type="int" name="LMAXPAW">  -100</i>
    <i type="int" name="LMAXMIX">     2</i>
    <i type="logical" name="NLSPLINE"> F  </i>
   </separator>
   <separator name="electronic startup" >
    <i type="int" name="ISTART">     0</i>
    <i type="int" name="ICHARG">     2</i>
    <i type="int" name="INIWAV">     1</i>
   </separator>
   <separator name="electronic spin" >
    <i type="int" name="ISPIN">     2</i>
    <i type="logical" name="LNONCOLLINEAR"> F  </i>
    <v name="MAGMOM">      1.00000000      1.00000000      1.00000000      1.00000000      1.00000000      1.00000000      1.00000000      1.00000000      1.00000000      1.00000000      1.00000000      1.00000000      1.00000000      1.00000000      1.00000000      1.00000000      1.00000000      1.00000000      1.00000000      1.00000000
      1.00000000      1.00000000      1.00000000      1.00000000      1.00000000      1.00000000      1.00000000      1.00000000      1.00000000      1.00000000      1.00000000      1.00000000      1.00000000      1.00000000      1.00000000      1.00000000      1.00000000      1.00000000      1.00000000      1.00000000
      1.00000000      1.00000000      1.00000000      1.00000000      1.00000000      1.00000000      1.00000000      1.00000000      1.00000000      1.00000000      1.00000000      1.00000000      1.00000000</v>
    <i name="NUPDOWN">     -1.00000000</i>
    <i type="logical" name="LSORBIT"> F  </i>
    <v name="SAXIS">      0.00000000      0.00000000      1.00000000</v>
    <i type="logical" name="LSPIRAL"> F  </i>
    <v name="QSPIRAL">      0.00000000      0.00000000      0.00000000</v>
    <i type="logical" name="LZEROZ"> F  </i>
   </separator>
   <separator name="electronic exchange-correlation" >
    <i type="logical" name="LASPH"> T  </i>
   </separator>
   <separator name="electronic convergence" >
    <i type="int" name="NELM">   100</i>
    <i type="int" name="NELMDL">    -5</i>
    <i type="int" name="NELMIN">     2</i>
    <i name="ENINI">    262.47200000</i>
    <separator name="electronic convergence detail" >
     <i type="logical" name="LDIAG"> T  </i>
     <i type="logical" name="LSUBROT"> F  </i>
     <i type="logical" name="LROBUST"> F  </i>
     <i type="int" name="ISEARCH">     0</i>
     <i name="WEIMIN">      0.00100000</i>
     <i name="EBREAK">      0.00000001</i>
     <i name="DEPER">      0.30000000</i>
     <i type="int" name="NRMM">     4</i>
     <i name="TIME">      0.40000000</i>
    </separator>
   </separator>
   <separator name="electronic mixer" >
    <i name="AMIX">      0.40000000</i>
    <i name="BMIX">      1.00000000</i>
    <i name="AMIN">      0.10000000</i>
    <i name="AMIX_MAG">      1.60000000</i>
    <i name="BMIX_MAG">      1.00000000</i>
    <separator name="electronic mixer details" >
     <i type="int" name="IMIX">     4</i>
     <i type="logical" name="MIXFIRST"> F  </i>
     <i type="int" name="MAXMIX">   -45</i>
     <i name="WC">    100.00000000</i>
     <i type="int" name="INIMIX">     1</i>
     <i type="int" name="MIXPRE">     1</i>
     <i type="int" name="MREMOVE">     5</i>
    </separator>
   </separator>
   <separator name="electronic dipolcorrection" >
    <i type="logical" name="LDIPOL"> F  </i>
    <i type="logical" name="LMONO"> F  </i>
    <i type="int" name="IDIPOL">     0</i>
    <i name="EPSILON">      1.00000000</i>
    <v name="DIPOL">   -100.00000000   -100.00000000   -100.00000000</v>
    <i name="EFIELD">      0.00000000</i>
    <i type="logical" name="LVACPOTAV"> F  </i>
   </separator>
  </separator>
  <separator name="grids" >
   <i type="int" name="NGX">    48</i>
   <i type="int" name="NGY">    48</i>
   <i type="int" name="NGZ">    48</i>
   <i type="int" name="NGXF">    96</i>
   <i type="int" name="NGYF">    96</i>
   <i type="int" name="NGZF">    96</i>
   <i type="logical" name="ADDGRID"> F  </i>
  </separator>
  <separator name="ionic" >
   <i type="int" name="NSW">   300</i>
   <i type="int" name="IBRION">     2</i>
   <i type="int" name="MDALGO">     0</i>
   <i type="int" name="ISIF">     2</i>
   <i name="PSTRESS">      0.00000000</i>
   <i name="EDIFFG">     -0.03000000</i>
   <i type="int" name="NFREE">     1</i>
   <i name="POTIM">      0.50000000</i>
   <i name="SMASS">     -3.00000000</i>
   <i name="SCALEE">      1.00000000</i>
  </separator>
  <separator name="ionic md" >
   <i name="TEBEG">      0.00010000</i>
   <i name="TEEND">      0.00010000</i>
   <i type="int" name="NBLOCK">     1</i>
   <i type="int" name="KBLOCK">   300</i>
   <i type="int" name="NPACO">   256</i>
   <i name="APACO">     10.00000000</i>
  </separator>
  <separator name="symmetry" >
   <i type="int" name="ISYM">     2</i>
   <i name="SYMPREC">      0.00001000</i>
  </separator>
  <separator name="dos" >
   <i type="int" name="LORBIT">    10</i>
   <v name="RWIGS">     -1.00000000     -1.00000000</v>
   <i type="int" name="NEDOS">   301</i>
   <i name="EMIN">     10.00000000</i>
   <i name="EMAX">    -10.00000000</i>
   <i name="EFERMI">      0.00000000</i>
  </separator>
  <separator name="writing" >
   <i type="int" name="NWRITE">     2</i>
   <i type="logical" name="LWAVE"> F  </i>
   <i type="logical" name="LDOWNSAMPLE"> F  </i>
   <i type="logical" name="LCHARG"> F  </i>
   <i type="logical" name="LPARD"> F  </i>
   <i type="logical" name="LVTOT"> F  </i>
   <i type="logical" name="LVHAR"> F  </i>
   <i type="logical" name="LELF"> F  </i>
   <i type="logical" name="LOPTICS"> F  </i>
   <v name="STM">      0.00000000      0.00000000      0.00000000      0.00000000      0.00000000      0.00000000      0.00000000</v>
  </separator>
  <separator name="performance" >
   <i type="int" name="NPAR">     2</i>
   <i type="int" name="NSIM">     4</i>
   <i type="int" name="NBLK">    -1</i>
   <i type="logical" name="LPLANE"> T  </i>
   <i type="logical" name="LSCALAPACK"> T  </i>
   <i type="logical" name="LSCAAWARE"> F  </i>
   <i type="logical" name="LSCALU"> F  </i>
   <i type="logical" name="LASYNC"> F  </i>
   <i type="logical" name="LORBITALREAL"> F  </i>
  </separator>
  <separator name="miscellaneous" >
   <i type="int" name="IDIOT">     3</i>
   <i type="int" name="PHON_NSTRUCT">    -1</i>
   <i type="logical" name="LMUSIC"> F  </i>
   <v name="POMASS">    132.90000000     35.45300000</v>
   <v name="DARWINR">      0.00000000      0.00000000</v>
   <v name="DARWINV">      1.00000000      1.00000000</v>
   <i type="logical" name="LCORR"> T  </i>
  </separator>
  <i type="logical" name="GGA_COMPAT"> T  </i>
  <i type="logical" name="LBERRY"> F  </i>
  <i type="int" name="ICORELEVEL">     0</i>
  <i type="logical" name="LDAU"> F  </i>
  <i type="int" name="I_CONSTRAINED_M">     0</i>
  <separator name="electronic exchange-correlation" >
   <i type="string" name="GGA    ">PS</i>
   <i type="string" name="XC_C">1</i>
   <i type="int" name="VOSKOWN">     0</i>
   <i type="logical" name="LHFCALC"> F  </i>
   <i type="string" name="PRECFOCK"></i>
   <i type="logical" name="LSYMGRAD"> F  </i>
   <i type="logical" name="LHFONE"> F  </i>
   <i type="logical" name="LRHFCALC"> F  </i>
   <i type="logical" name="LTHOMAS"> F  </i>
   <i type="logical" name="LMODELHF"> F  </i>
   <i type="logical" name="LFOCKACE"> F  </i>
   <i name="ENCUT4O">     -1.00000000</i>
   <i type="int" name="EXXOEP">     0</i>
   <i type="int" name="FOURORBIT">     0</i>
   <i name="AEXX">      0.00000000</i>
   <i name="HFALPHA">      0.00000000</i>
   <i name="MCALPHA">      0.00000000</i>
   <i name="ALDAX">      1.00000000</i>
   <i name="AGGAX">      1.00000000</i>
   <i name="AMGGAX">      1.00000000</i>
   <i name="ALDAC">      1.00000000</i>
   <i name="AGGAC">      1.00000000</i>
   <i name="AMGGAC">      1.00000000</i>
   <i type="int" name="NKREDX">     1</i>
   <i type="int" name="NKREDY">     1</i>
   <i type="int" name="NKREDZ">     1</i>
   <i type="logical" name="SHIFTRED"> F  </i>
   <i type="logical" name="ODDONLY"> F  </i>
   <i type="logical" name="EVENONLY"> F  </i>
   <i type="int" name="LMAXFOCK">     0</i>
   <i type="int" name="NMAXFOCKAE">     0</i>
   <i type="logical" name="LFOCKAEDFT"> F  </i>
   <i name="HFSCREEN">      0.00000000</i>
   <i name="HFSCREENC">      0.00000000</i>
   <i type="int" name="NBANDSGWLOW">     0</i>
  </separator>
  <separator name="vdW DFT" >
   <i type="logical" name="LUSE_VDW"> F  </i>
   <i type="int" name="IVDW_NL">    -1</i>
   <i type="logical" name="LSPIN_VDW"> F  </i>
   <i name="ZAB_VDW">     -0.84910000</i>
   <i name="GAMMA_VDW">      1.39626340</i>
   <i name="ALPHA_VDW">      0.00000000</i>
   <i name="PARAM1">      0.12340000</i>
   <i name="PARAM2">      1.00000000</i>
   <i name="BPARAM">      6.30000000</i>
   <i name="CPARAM">      0.00930000</i>
  </separator>
  <separator name="model GW" >
   <i type="int" name="MODEL_GW">     0</i>
   <i name="MODEL_EPS0">     20.69023473</i>
   <i name="MODEL_ALPHA">      1.00000000</i>
  </separator>
  <separator name="linear response parameters" >
   <i type="logical" name="LEPSILON"> F  </i>
   <i type="logical" name="LRPA"> F  </i>
   <i type="logical" name="LNABLA"> F  </i>
   <i type="logical" name="LVEL"> F  </i>
   <i name="CSHIFT">      0.10000000</i>
   <i name="OMEGAMAX">     -1.00000000</i>
   <i name="DEG_THRESHOLD">      0.00200000</i>
   <i name="RTIME">     -0.10000000</i>
   <i name="WPLASMAI">      0.00000000</i>
   <v name="DFIELD">      0.00000000      0.00000000      0.00000000</v>
   <v name="WPLASMA">      0.00000000      0.00000000      0.00000000      0.00000000      0.00000000      0.00000000      0.00000000      0.00000000      0.00000000</v>
  </separator>
  <separator name="orbital magnetization" >
   <i type="logical" name="NUCIND"> F  </i>
   <v name="MAGPOS">      0.00000000      0.00000000      0.00000000</v>
   <i type="logical" name="LNICSALL"> T  </i>
   <i type="logical" name="ORBITALMAG"> F  </i>
   <i type="logical" name="LMAGBLOCH"> F  </i>
   <i type="logical" name="LCHIMAG"> F  </i>
   <i type="logical" name="LGAUGE"> T  </i>
   <i type="int" name="MAGATOM">     0</i>
   <v name="MAGDIPOL">      0.00000000      0.00000000      0.00000000</v>
   <v name="AVECCONST">      0.00000000      0.00000000      0.00000000</v>
  </separator>
  <separator name="response functions" >
   <i type="logical" name="LALL_IN_ONE"> F  </i>
   <i type="int" name="IALL_IN_ONE">    -1</i>
   <i type="int" name="NBANDS_WAVE">    -1</i>
   <i type="logical" name="LFINITE_TEMPERATURE"> F  </i>
   <i type="logical" name="LADDER"> F  </i>
   <i type="logical" name="LRPAFORCE"> F  </i>
   <i type="logical" name="LFXC"> F  </i>
   <i type="logical" name="LHARTREE"> T  </i>
   <i type="int" name="IBSE">     2</i>
   <v type="int" name="KPOINT">    -1     0     0     0</v>
   <i type="logical" name="LTCTC"> F  </i>
   <i type="logical" name="LTCTE"> F  </i>
   <i type="logical" name="LTETE"> F  </i>
   <i type="logical" name="LTRIPLET"> F  </i>
   <i type="logical" name="LFXCEPS"> F  </i>
   <i type="logical" name="LFXHEG"> F  </i>
   <i type="int" name="NATURALO">     2</i>
   <i type="logical" name="LHOLEGF"> F  </i>
   <i type="logical" name="L2ORDER"> F  </i>
   <i type="logical" name="LDMP1"> F  </i>
   <i type="logical" name="LMP2LT"> F  </i>
   <i type="logical" name="LSMP2LT"> F  </i>
   <i type="logical" name="LGWLF"> F  </i>
   <i name="ENCUTGW">     -1.60000002</i>
   <i name="ENCUTGWSOFT">     -1.60000002</i>
   <i name="ENCUTLF">     -1.00000000</i>
   <i type="logical" name="ESF_SPLINES"> F  </i>
   <i name="ESF_CONV">      0.01000000</i>
   <i type="int" name="ESF_NINTER">    15</i>
   <i type="int" name="LMAXMP2">    -1</i>
   <i name="SCISSOR">      0.00000000</i>
   <i type="int" name="NOMEGA">     0</i>
   <i type="int" name="NOMEGAR">     0</i>
   <i type="int" name="NBANDSGW">    -1</i>
   <i type="int" name="NBANDSO">    -1</i>
   <i type="int" name="NBANDSV">    -1</i>
   <i type="int" name="NELMGW">     1</i>
   <i type="int" name="NELMHF">     1</i>
   <i type="int" name="DIM">     3</i>
   <i type="int" name="IESPILON">     4</i>
   <i type="int" name="ANTIRES">     0</i>
   <i name="OMEGAMAX">    -30.00000000</i>
   <i name="OMEGAMIN">    -30.00000000</i>
   <i name="OMEGATL">   -200.00000000</i>
   <i type="int" name="OMEGAGRID">     0</i>
   <i name="CSHIFT">     -0.10000000</i>
   <i type="logical" name="LSELFENERGY"> F  </i>
   <i type="logical" name="LSPECTRAL"> F  </i>
   <i type="logical" name="LSPECTRALGW"> F  </i>
   <i type="logical" name="LSINGLES"> F  </i>
   <i type="logical" name="LFERMIGW"> F  </i>
   <i type="logical" name="ODDONLYGW"> F  </i>
   <i type="logical" name="EVENONLYGW"> F  </i>
   <i type="int" name="NKREDLFX">     1</i>
   <i type="int" name="NKREDLFY">     1</i>
   <i type="int" name="NKREDLFZ">     1</i>
   <i type="int" name="MAXMEM">  2800</i>
   <i type="int" name="TELESCOPE">     0</i>
   <i type="int" name="NTAUPAR">    -1</i>
   <i type="int" name="NOMEGAPAR">    -1</i>
   <i name="DAMP_NEWTON">      0.80000001</i>
   <i name="LAMBDA">      1.00000000</i>
  </separator>
  <separator name="External order field" >
   <i name="OFIELD_KAPPA">      0.00000000</i>
   <v name="OFIELD_K">      0.00000000      0.00000000      0.00000000</v>
   <i name="OFIELD_Q6_NEAR">      0.00000000</i>
   <i name="OFIELD_Q6_FAR">      0.00000000</i>
   <i name="OFIELD_A">      0.00000000</i>
  </separator>
  <separator name="optional k-points parameters" >
   <i type="int" name="KPOINTS_OPT_MODE">     1</i>
   <i type="logical" name="LKPOINTS_OPT"> F  </i>
  </separator>
 </parameters>
 <atominfo>
  <atoms>      53 </atoms>
  <types>       2 </types>
  <array name="atoms" >
   <dimension dim="1">ion</dimension>
   <field type="string">element</field>
   <field type="int">atomtype</field>
   <set>
    <rc><c>Cs</c><c>   1</c></rc>
    <rc><c>Cs</c><c>   1</c></rc>
    <rc><c>Cs</c><c>   1</c></rc>
    <rc><c>Cs</c><c>   1</c></rc>
    <rc><c>Cs</c><c>   1</c></rc>
    <rc><c>Cs</c><c>   1</c></rc>
    <rc><c>Cs</c><c>   1</c></rc>
    <rc><c>Cs</c><c>   1</c></rc>
    <rc><c>Cs</c><c>   1</c></rc>
    <rc><c>Cs</c><c>   1</c></rc>
    <rc><c>Cs</c><c>   1</c></rc>
    <rc><c>Cs</c><c>   1</c></rc>
    <rc><c>Cs</c><c>   1</c></rc>
    <rc><c>Cs</c><c>   1</c></rc>
    <rc><c>Cs</c><c>   1</c></rc>
    <rc><c>Cs</c><c>   1</c></rc>
    <rc><c>Cs</c><c>   1</c></rc>
    <rc><c>Cs</c><c>   1</c></rc>
    <rc><c>Cs</c><c>   1</c></rc>
    <rc><c>Cs</c><c>   1</c></rc>
    <rc><c>Cs</c><c>   1</c></rc>
    <rc><c>Cs</c><c>   1</c></rc>
    <rc><c>Cs</c><c>   1</c></rc>
    <rc><c>Cs</c><c>   1</c></rc>
    <rc><c>Cs</c><c>   1</c></rc>
    <rc><c>Cs</c><c>   1</c></rc>
    <rc><c>Cs</c><c>   1</c></rc>
    <rc><c>Cl</c><c>   2</c></rc>
    <rc><c>Cl</c><c>   2</c></rc>
    <rc><c>Cl</c><c>   2</c></rc>
    <rc><c>Cl</c><c>   2</c></rc>
    <rc><c>Cl</c><c>   2</c></rc>
    <rc><c>Cl</c><c>   2</c></rc>
    <rc><c>Cl</c><c>   2</c></rc>
    <rc><c>Cl</c><c>   2</c></rc>
    <rc><c>Cl</c><c>   2</c></rc>
    <rc><c>Cl</c><c>   2</c></rc>
    <rc><c>Cl</c><c>   2</c></rc>
    <rc><c>Cl</c><c>   2</c></rc>
    <rc><c>Cl</c><c>   2</c></rc>
    <rc><c>Cl</c><c>   2</c></rc>
    <rc><c>Cl</c><c>   2</c></rc>
    <rc><c>Cl</c><c>   2</c></rc>
    <rc><c>Cl</c><c>   2</c></rc>
    <rc><c>Cl</c><c>   2</c></rc>
    <rc><c>Cl</c><c>   2</c></rc>
    <rc><c>Cl</c><c>   2</c></rc>
    <rc><c>Cl</c><c>   2</c></rc>
    <rc><c>Cl</c><c>   2</c></rc>
    <rc><c>Cl</c><c>   2</c></rc>
    <rc><c>Cl</c><c>   2</c></rc>
    <rc><c>Cl</c><c>   2</c></rc>
    <rc><c>Cl</c><c>   2</c></rc>
   </set>
  </array>
  <array name="atomtypes" >
   <dimension dim="1">type</dimension>
   <field type="int">atomspertype</field>
   <field type="string">element</field>
   <field>mass</field>
   <field>valence</field>
   <field type="string">pseudopotential</field>
   <set>
    <rc><c>  27</c><c>Cs</c><c>    132.90000000</c><c>      9.00000000</c><c>  PAW_PBE Cs_sv 08Apr2002               </c></rc>
    <rc><c>  26</c><c>Cl</c><c>     35.45300000</c><c>      7.00000000</c><c>  PAW_PBE Cl 06Sep2000                  </c></rc>
   </set>
  </array>
 </atominfo>
 <structure name="initialpos" >
  <crystal>
   <varray name="basis" >
    <v>      12.22634592       0.00000000       0.00000000 </v>
    <v>       0.00000000      12.22634592       0.00000000 </v>
    <v>       0.00000000       0.00000000      12.22634592 </v>
   </varray>
   <i name="volume">   1827.63740156 </i>
   <varray name="rec_basis" >
    <v>       0.08179059       0.00000000       0.00000000 </v>
    <v>       0.00000000       0.08179059       0.00000000 </v>
    <v>       0.00000000       0.00000000       0.08179059 </v>
   </varray>
  </crystal>
  <varray name="positions" >
   <v>       0.99426450       0.00748214       0.99708089 </v>
   <v>       0.00821244       0.00799729       0.33485020 </v>
   <v>       0.00000000       0.00000000       0.66666667 </v>
   <v>       0.99994579       0.33822261       0.99311104 </v>
   <v>       0.98900911       0.33954525       0.32780744 </v>
   <v>       0.00000000       0.33333333       0.66666667 </v>
   <v>       0.00000000       0.66666667       0.00000000 </v>
   <v>       0.00000000       0.66666667       0.33333333 </v>
   <v>       0.00000000       0.66666667       0.66666667 </v>
   <v>       0.33135132       0.00277746       0.00233725 </v>
   <v>       0.33563042       0.98617369       0.34053548 </v>
   <v>       0.33333333       0.00000000       0.66666667 </v>
   <v>       0.32173188       0.34126102       0.99240495 </v>
   <v>       0.33742944       0.33416497       0.32247983 </v>
   <v>       0.33333333       0.33333333       0.66666667 </v>
   <v>       0.33333333       0.66666667       0.00000000 </v>
   <v>       0.33333333       0.66666667       0.33333333 </v>
   <v>       0.33333333       0.66666667       0.66666667 </v>
   <v>       0.66666667       0.00000000       0.00000000 </v>
   <v>       0.66666667       0.00000000       0.33333333 </v>
   <v>       0.66666667       0.00000000       0.66666667 </v>
   <v>       0.66666667       0.33333333       0.00000000 </v>
   <v>       0.66666667       0.33333333       0.33333333 </v>
   <v>       0.66666667       0.33333333       0.66666667 </v>
   <v>       0.66666667       0.66666667       0.00000000 </v>
   <v>       0.66666667       0.66666667       0.33333333 </v>
   <v>       0.66666667       0.66666667       0.66666667 </v>
   <v>       0.16729174       0.17171689       0.49449688 </v>
   <v>       0.17519018       0.16615641       0.83392719 </v>
   <v>       0.16852786       0.50064600       0.17076405 </v>
   <v>       0.16666667       0.50000000       0.50000000 </v>
   <v>       0.16666667       0.50000000       0.83333333 </v>
   <v>       0.16677679       0.84349226       0.17299892 </v>
   <v>       0.16666667       0.83333333       0.50000000 </v>
   <v>       0.16666667       0.83333333       0.83333333 </v>
   <v>       0.49931714       0.16755349       0.16706944 </v>
   <v>       0.50000000       0.16666667       0.50000000 </v>
   <v>       0.50000000       0.16666667       0.83333333 </v>
   <v>       0.50000000       0.50000000       0.16666667 </v>
   <v>       0.50000000       0.50000000       0.50000000 </v>
   <v>       0.50000000       0.50000000       0.83333333 </v>
   <v>       0.50000000       0.83333333       0.16666667 </v>
   <v>       0.50000000       0.83333333       0.50000000 </v>
   <v>       0.50000000       0.83333333       0.83333333 </v>
   <v>       0.83856624       0.16123328       0.16401104 </v>
   <v>       0.83333333       0.16666667       0.50000000 </v>
   <v>       0.83333333       0.16666667       0.83333333 </v>
   <v>       0.83333333       0.50000000       0.16666667 </v>
   <v>       0.83333333       0.50000000       0.50000000 </v>
   <v>       0.83333333       0.50000000       0.83333333 </v>
   <v>       0.83333333       0.83333333       0.16666667 </v>
   <v>       0.83333333       0.83333333       0.50000000 </v>
   <v>       0.83333333       0.83333333       0.83333333 </v>
  </varray>
 </structure>
 <calculation>
  <scstep>
   <time name="dav">    0.57    0.57</time>
   <time name="total">    3.29    3.33</time>
   <energy>
    <i name="alphaZ">   1436.48757412 </i>
    <i name="ewald"> -21813.34278416 </i>
    <i name="hartreedc">  -3540.62809052 </i>
    <i name="XCdc">    832.66554279 </i>
    <i name="pawpsdc">  19905.73909771 </i>
    <i name="pawaedc"> -19710.81889590 </i>
    <i name="eentropy">     -0.10606515 </i>
    <i name="bandstr">   -396.00729989 </i>
    <i name="atom">  25630.00721240 </i>
    <i name="e_fr_energy">   2343.99629141 </i>
    <i name="e_wo_entrp">   2344.10235656 </i>
    <i name="e_0_energy">   2344.04932398 </i>
   </energy>
  </scstep>
  <scstep>
   <time name="dav">    0.55    0.55</time>
   <time name="total">    0.55    0.55</time>
   <energy>
    <i name="e_fr_energy">     34.69088268 </i>
    <i name="e_wo_entrp">     34.73389537 </i>
    <i name="e_0_energy">     34.71238902 </i>
   </energy>
  </scstep>
  <scstep>
   <time name="dav">    0.54    0.54</time>
   <time name="total">    0.54    0.54</time>
   <energy>
    <i name="e_fr_energy">   -174.82264745 </i>
    <i name="e_wo_entrp">   -174.81811225 </i>
    <i name="e_0_energy">   -174.82037985 </i>
   </energy>
  </scstep>
  <scstep>
   <time name="dav">    0.53    0.53</time>
   <time name="total">    0.53    0.53</time>
   <energy>
    <i name="e_fr_energy">   -178.02329176 </i>
    <i name="e_wo_entrp">   -178.02006602 </i>
    <i name="e_0_energy">   -178.02167889 </i>
   </energy>
  </scstep>
  <scstep>
   <time name="dav">    0.53    0.53</time>
   <time name="total">    0.59    0.59</time>
   <energy>
    <i name="e_fr_energy">   -178.08598871 </i>
    <i name="e_wo_entrp">   -178.08287677 </i>
    <i name="e_0_energy">   -178.08443274 </i>
   </energy>
  </scstep>
  <scstep>
   <time name="dav">    0.50    0.51</time>
   <time name="total">    2.97    2.97</time>
   <energy>
    <i name="e_fr_energy">   -172.34023336 </i>
    <i name="e_wo_entrp">   -172.34023307 </i>
    <i name="e_0_energy">   -172.34023321 </i>
   </energy>
  </scstep>
  <scstep>
   <time name="dav">    0.52    0.52</time>
   <time name="total">    2.83    2.84</time>
   <energy>
    <i name="e_fr_energy">   -175.04041549 </i>
    <i name="e_wo_entrp">   -175.04041549 </i>
    <i name="e_0_energy">   -175.04041549 </i>
   </energy>
  </scstep>
  <scstep>
   <time name="dav">    0.53    0.53</time>
   <time name="total">    2.84    2.85</time>
   <energy>
    <i name="e_fr_energy">   -177.11825125 </i>
    <i name="e_wo_entrp">   -177.11825125 </i>
    <i name="e_0_energy">   -177.11825125 </i>
   </energy>
  </scstep>
  <scstep>
   <time name="dav">    0.52    0.52</time>
   <time name="total">    2.78    2.78</time>
   <energy>
    <i name="e_fr_energy">   -178.20340007 </i>
    <i name="e_wo_entrp">   -178.20340007 </i>
    <i name="e_0_energy">   -178.20340007 </i>
   </energy>
  </scstep>
  <scstep>
   <time name="dav">    0.51    0.51</time>
   <time name="total">    2.75    2.75</time>
   <energy>
    <i name="e_fr_energy">   -178.36892620 </i>
    <i name="e_wo_entrp">   -178.36892619 </i>
    <i name="e_0_energy">   -178.36892619 </i>
   </energy>
  </scstep>
  <scstep>
   <time name="dav">    0.52    0.52</time>
   <time name="total">    2.63    2.64</time>
   <energy>
    <i name="e_fr_energy">   -178.41215975 </i>
    <i name="e_wo_entrp">   -178.41215963 </i>
    <i name="e_0_energy">   -178.41215969 </i>
   </energy>
  </scstep>
  <scstep>
   <time name="dav">    0.50    0.50</time>
   <time name="total">    2.61    2.62</time>
   <energy>
    <i name="e_fr_energy">   -178.43576875 </i>
    <i name="e_wo_entrp">   -178.43576708 </i>
    <i name="e_0_energy">   -178.43576791 </i>
   </energy>
  </scstep>
  <scstep>
   <time name="dav">    0.54    0.54</time>
   <time name="total">    2.65    2.66</time>
   <energy>
    <i name="e_fr_energy">   -178.43632266 </i>
    <i name="e_wo_entrp">   -178.43632074 </i>
    <i name="e_0_energy">   -178.43632170 </i>
   </energy>
  </scstep>
  <scstep>
   <time name="dav">    0.45    0.45</time>
   <time name="total">    2.57    2.57</time>
   <energy>
    <i name="e_fr_energy">   -178.43647394 </i>
    <i name="e_wo_entrp">   -178.43647191 </i>
    <i name="e_0_energy">   -178.43647293 </i>
   </energy>
  </scstep>
  <scstep>
   <time name="dav">    0.45    0.45</time>
   <time name="total">    2.56    2.57</time>
   <energy>
    <i name="e_fr_energy">   -178.43659898 </i>
    <i name="e_wo_entrp">   -178.43659693 </i>
    <i name="e_0_energy">   -178.43659796 </i>
   </energy>
  </scstep>
  <scstep>
   <time name="dav">    0.40    0.40</time>
   <time name="total">    2.53    2.54</time>
   <energy>
    <i name="e_fr_energy">   -178.43661644 </i>
    <i name="e_wo_entrp">   -178.43661437 </i>
    <i name="e_0_energy">   -178.43661540 </i>
   </energy>
  </scstep>
  <scstep>
   <time name="dav">    0.37    0.37</time>
   <time name="total">    2.44    2.44</time>
   <energy>
    <i name="alphaZ">   1436.48757412 </i>
    <i name="ewald"> -21813.34278416 </i>
    <i name="hartreedc">  -3654.14856591 </i>
    <i name="XCdc">    840.84284869 </i>
    <i name="pawpsdc">  24299.87085529 </i>
    <i name="pawaedc"> -24112.27634854 </i>
    <i name="eentropy">     -0.00000208 </i>
    <i name="bandstr">  -2805.87741251 </i>
    <i name="atom">  25630.00721240 </i>
    <i name="e_fr_energy">   -178.43662269 </i>
    <i name="e_wo_entrp">   -178.43662061 </i>
    <i name="e_0_energy">   -178.43662165 </i>
   </energy>
  </scstep>
  <structure>
   <crystal>
    <varray name="basis" >
     <v>      12.22634592       0.00000000       0.00000000 </v>
     <v>       0.00000000      12.22634592       0.00000000 </v>
     <v>       0.00000000       0.00000000      12.22634592 </v>
    </varray>
    <i name="volume">   1827.63740156 </i>
    <varray name="rec_basis" >
     <v>       0.08179059       0.00000000       0.00000000 </v>
     <v>       0.00000000       0.08179059       0.00000000 </v>
     <v>       0.00000000       0.00000000       0.08179059 </v>
    </varray>
   </crystal>
   <varray name="positions" >
    <v>       0.99426450       0.00748214       0.99708089 </v>
    <v>       0.00821244       0.00799729       0.33485020 </v>
    <v>       0.00000000       0.00000000       0.66666667 </v>
    <v>       0.99994579       0.33822261       0.99311104 </v>
    <v>       0.98900911       0.33954525       0.32780744 </v>
    <v>       0.00000000       0.33333333       0.66666667 </v>
    <v>       0.00000000       0.66666667       0.00000000 </v>
    <v>       0.00000000       0.66666667       0.33333333 </v>
    <v>       0.00000000       0.66666667       0.66666667 </v>
    <v>       0.33135132       0.00277746       0.00233725 </v>
    <v>       0.33563042       0.98617369       0.34053548 </v>
    <v>       0.33333333       0.00000000       0.66666667 </v>
    <v>       0.32173188       0.34126102       0.99240495 </v>
    <v>       0.33742944       0.33416497       0.32247983 </v>
    <v>       0.33333333       0.33333333       0.66666667 </v>
    <v>       0.33333333       0.66666667       0.00000000 </v>
    <v>       0.33333333       0.66666667       0.33333333 </v>
    <v>       0.33333333       0.66666667       0.66666667 </v>
    <v>       0.66666667       0.00000000       0.00000000 </v>
    <v>       0.66666667       0.00000000       0.33333333 </v>
    <v>       0.66666667       0.00000000       0.66666667 </v>
    <v>       0.66666667       0.33333333       0.00000000 </v>
    <v>       0.66666667       0.33333333       0.33333333 </v>
    <v>       0.66666667       0.33333333       0.66666667 </v>
    <v>       0.66666667       0.66666667       0.00000000 </v>
    <v>       0.66666667       0.66666667       0.33333333 </v>
    <v>       0.66666667       0.66666667       0.66666667 </v>
    <v>       0.16729174       0.17171689       0.49449688 </v>
    <v>       0.17519018       0.16615641       0.83392719 </v>
    <v>       0.16852786       0.50064600       0.17076405 </v>
    <v>       0.16666667       0.50000000       0.50000000 </v>
    <v>       0.16666667       0.50000000       0.83333333 </v>
    <v>       0.16677679       0.84349226       0.17299892 </v>
    <v>       0.16666667       0.83333333       0.50000000 </v>
    <v>       0.16666667       0.83333333       0.83333333 </v>
    <v>       0.49931714       0.16755349       0.16706944 </v>
    <v>       0.50000000       0.16666667       0.50000000 </v>
    <v>       0.50000000       0.16666667       0.83333333 </v>
    <v>       0.50000000       0.50000000       0.16666667 </v>
    <v>       0.50000000       0.50000000       0.50000000 </v>
    <v>       0.50000000       0.50000000       0.83333333 </v>
    <v>       0.50000000       0.83333333       0.16666667 </v>
    <v>       0.50000000       0.83333333       0.50000000 </v>
    <v>       0.50000000       0.83333333       0.83333333 </v>
    <v>       0.83856624       0.16123328       0.16401104 </v>
    <v>       0.83333333       0.16666667       0.50000000 </v>
    <v>       0.83333333       0.16666667       0.83333333 </v>
    <v>       0.83333333       0.50000000       0.16666667 </v>
    <v>       0.83333333       0.50000000       0.50000000 </v>
    <v>       0.83333333       0.50000000       0.83333333 </v>
    <v>       0.83333333       0.83333333       0.16666667 </v>
    <v>       0.83333333       0.83333333       0.50000000 </v>
    <v>       0.83333333       0.83333333       0.83333333 </v>
   </varray>
  </structure>
  <varray name="forces" >
   <v>       0.08520636      -0.16339423       0.02636489 </v>
   <v>      -0.12872776      -0.08384158      -0.00349164 </v>
   <v>       0.01062379      -0.00790682      -0.02802920 </v>
   <v>      -0.07349137      -0.05155436       0.03874198 </v>
   <v>       0.17969436      -0.05391024       0.12793227 </v>
   <v>       0.02322017      -0.01077377      -0.09437971 </v>
   <v>      -0.00164080       0.10085956       0.02677923 </v>
   <v>      -0.00119694       0.08474904       0.02600760 </v>
   <v>      -0.00425880       0.01242851      -0.02301415 </v>
   <v>       0.09002351      -0.05361763      -0.02714351 </v>
   <v>       0.04230069       0.26439455      -0.03472756 </v>
   <v>       0.02437145       0.01774743       0.02085428 </v>
   <v>       0.29040135      -0.08757822       0.08515008 </v>
   <v>      -0.06713502      -0.06410227       0.20592535 </v>
   <v>       0.03896195      -0.00475831      -0.12071083 </v>
   <v>       0.02464054       0.08156382       0.01508811 </v>
   <v>       0.00443958      -0.06090646       0.02585096 </v>
   <v>       0.00915517      -0.00341898      -0.01302133 </v>
   <v>      -0.05325180      -0.01861750       0.00260878 </v>
   <v>       0.04279000       0.00175830      -0.00694527 </v>
   <v>      -0.01338735       0.00055050      -0.00372426 </v>
   <v>      -0.06906369      -0.02592483       0.00588936 </v>
   <v>      -0.05253830      -0.02672419       0.01850055 </v>
   <v>      -0.02851119      -0.00860144      -0.00943972 </v>
   <v>      -0.00783888       0.02136076      -0.00003011 </v>
   <v>       0.00300665       0.01565595       0.00563086 </v>
   <v>      -0.00450029       0.00721997      -0.00377651 </v>
   <v>       0.00272474      -0.05280600       0.05755653 </v>
   <v>      -0.22051944       0.02401789      -0.03143560 </v>
   <v>      -0.08097370       0.03852632      -0.12525832 </v>
   <v>      -0.01829583       0.02227410       0.00525261 </v>
   <v>      -0.05592535       0.05987103      -0.02965451 </v>
   <v>      -0.02099217      -0.15088326      -0.14411272 </v>
   <v>      -0.01948672      -0.01906939       0.06249434 </v>
   <v>      -0.01657427      -0.00397950       0.02696464 </v>
   <v>       0.01426068      -0.02638809      -0.03435994 </v>
   <v>       0.01339156      -0.00645830      -0.00253091 </v>
   <v>       0.01945891       0.01919670       0.01119928 </v>
   <v>       0.02229783       0.03243149      -0.04955723 </v>
   <v>       0.01734707       0.00877788      -0.00955470 </v>
   <v>      -0.00551226       0.01672782       0.00654128 </v>
   <v>       0.00107042      -0.02662631      -0.00554722 </v>
   <v>       0.03945413      -0.05369559       0.04387265 </v>
   <v>      -0.00626610      -0.01044501       0.00307176 </v>
   <v>      -0.07891934       0.15895812       0.03830563 </v>
   <v>       0.00257452       0.02342597       0.00034438 </v>
   <v>       0.02175603       0.04051755      -0.02955307 </v>
   <v>      -0.01972929       0.01177891      -0.06158403 </v>
   <v>      -0.01984838       0.01090141       0.01645031 </v>
   <v>       0.00455322       0.01441186      -0.00547875 </v>
   <v>       0.01847885      -0.01526945      -0.01139302 </v>
   <v>       0.01476812       0.00561430       0.00920837 </v>
   <v>       0.00761337      -0.00446800      -0.00413226 </v>
  </varray>
  <varray name="stress" >
   <v>      -6.78968931      -0.22051239       0.16174181 </v>
   <v>      -0.22051233      -6.84209663      -0.08620162 </v>
   <v>       0.16174212      -0.08620126      -6.83203740 </v>
  </varray>
  <energy>
   <i name="e_fr_energy">   -178.43662269 </i>
   <i name="e_wo_entrp">   -178.43662061 </i>
   <i name="e_0_energy">   -178.43662165 </i>
  </energy>
  <time name="totalsc">   42.76   42.89</time>
 </calculation>
 <calculation>
  <scstep>
   <time name="dav">    0.48    0.48</time>
   <time name="total">    2.65    2.66</time>
   <energy>
    <i name="alphaZ">   1436.48757412 </i>
    <i name="ewald"> -21813.92693558 </i>
    <i name="hartreedc">  -3653.70754758 </i>
    <i name="XCdc">    840.82247225 </i>
    <i name="pawpsdc">  24300.01091266 </i>
    <i name="pawaedc"> -24112.41700009 </i>
    <i name="eentropy">     -0.00000212 </i>
    <i name="bandstr">  -2805.73378176 </i>
    <i name="atom">  25630.00721240 </i>
    <i name="e_fr_energy">   -178.45709569 </i>
    <i name="e_wo_entrp">   -178.45709357 </i>
    <i name="e_0_energy">   -178.45709463 </i>
   </energy>
  </scstep>
  <scstep>
   <time name="dav">    0.50    0.50</time>
   <time name="total">    2.77    2.78</time>
   <energy>
    <i name="e_fr_energy">   -178.46550328 </i>
    <i name="e_wo_entrp">   -178.46550121 </i>
    <i name="e_0_energy">   -178.46550224 </i>
   </energy>
  </scstep>
  <scstep>
   <time name="dav">    0.54    0.54</time>
   <time name="total">    2.81    2.82</time>
   <energy>
    <i name="e_fr_energy">   -178.46515503 </i>
    <i name="e_wo_entrp">   -178.46515300 </i>
    <i name="e_0_energy">   -178.46515402 </i>
   </energy>
  </scstep>
  <scstep>
   <time name="dav">    0.53    0.53</time>
   <time name="total">    2.81    2.81</time>
   <energy>
    <i name="e_fr_energy">   -178.46490885 </i>
    <i name="e_wo_entrp">   -178.46490686 </i>
    <i name="e_0_energy">   -178.46490785 </i>
   </energy>
  </scstep>
  <scstep>
   <time name="dav">    0.53    0.53</time>
   <time name="total">    2.80    2.81</time>
   <energy>
    <i name="e_fr_energy">   -178.46490297 </i>
    <i name="e_wo_entrp">   -178.46490099 </i>
    <i name="e_0_energy">   -178.46490198 </i>
   </energy>
  </scstep>
  <scstep>
   <time name="dav">    0.41    0.41</time>
   <time name="total">    2.62    2.62</time>
   <energy>
    <i name="alphaZ">   1436.48757412 </i>
    <i name="ewald"> -21813.92693558 </i>
    <i name="hartreedc">  -3653.66945499 </i>
    <i name="XCdc">    840.81545157 </i>
    <i name="pawpsdc">  24297.09225982 </i>
    <i name="pawaedc"> -24109.49359585 </i>
    <i name="eentropy">     -0.00000195 </i>
    <i name="bandstr">  -2805.77740437 </i>
    <i name="atom">  25630.00721240 </i>
    <i name="e_fr_energy">   -178.46489482 </i>
    <i name="e_wo_entrp">   -178.46489287 </i>
    <i name="e_0_energy">   -178.46489385 </i>
   </energy>
  </scstep>
  <structure>
   <crystal>
    <varray name="basis" >
     <v>      12.22634592       0.00000000       0.00000000 </v>
     <v>       0.00000000      12.22634592       0.00000000 </v>
     <v>       0.00000000       0.00000000      12.22634592 </v>
    </varray>
    <i name="volume">   1827.63740156 </i>
    <varray name="rec_basis" >
     <v>       0.08179059       0.00000000       0.00000000 </v>
     <v>       0.00000000       0.08179059       0.00000000 </v>
     <v>       0.00000000       0.00000000       0.08179059 </v>
    </varray>
   </crystal>
   <varray name="positions" >
    <v>       0.99460071       0.00683742       0.99718492 </v>
    <v>       0.00770450       0.00766647       0.33483642 </v>
    <v>       0.00004192       0.99996880       0.66655607 </v>
    <v>       0.99965581       0.33801918       0.99326390 </v>
    <v>       0.98971815       0.33933254       0.32831223 </v>
    <v>       0.00009162       0.33329082       0.66629426 </v>
    <v>       0.99999353       0.66706464       0.00010567 </v>
    <v>       0.99999528       0.66700107       0.33343595 </v>
    <v>       0.99998320       0.66671571       0.66657586 </v>
    <v>       0.33170653       0.00256589       0.00223015 </v>
    <v>       0.33579733       0.98721694       0.34039845 </v>
    <v>       0.33342950       0.00007003       0.66674895 </v>
    <v>       0.32287775       0.34091545       0.99274093 </v>
    <v>       0.33716454       0.33391204       0.32329237 </v>
    <v>       0.33348707       0.33331456       0.66619037 </v>
    <v>       0.33343056       0.66698850       0.00005953 </v>
    <v>       0.33335085       0.66642634       0.33343534 </v>
    <v>       0.33336946       0.66665318       0.66661529 </v>
    <v>       0.66645655       0.99992654       0.00001029 </v>
    <v>       0.66683551       0.00000694       0.33330593 </v>
    <v>       0.66661384       0.00000217       0.66665197 </v>
    <v>       0.66639416       0.33323104       0.00002324 </v>
    <v>       0.66645936       0.33322789       0.33340633 </v>
    <v>       0.66655417       0.33329939       0.66662942 </v>
    <v>       0.66663574       0.66675095       0.99999988 </v>
    <v>       0.66667853       0.66672844       0.33335555 </v>
    <v>       0.66664891       0.66669516       0.66665177 </v>
    <v>       0.16730249       0.17150853       0.49472399 </v>
    <v>       0.17432006       0.16625118       0.83380315 </v>
    <v>       0.16820835       0.50079802       0.17026981 </v>
    <v>       0.16659448       0.50008789       0.50002073 </v>
    <v>       0.16644600       0.50023624       0.83321632 </v>
    <v>       0.16669396       0.84289690       0.17243028 </v>
    <v>       0.16658978       0.83325809       0.50024659 </v>
    <v>       0.16660127       0.83331763       0.83343973 </v>
    <v>       0.49937341       0.16744937       0.16693387 </v>
    <v>       0.50005284       0.16664118       0.49999001 </v>
    <v>       0.50007678       0.16674241       0.83337752 </v>
    <v>       0.50008798       0.50012797       0.16647112 </v>
    <v>       0.50006845       0.50003464       0.49996230 </v>
    <v>       0.49997825       0.50006600       0.83335914 </v>
    <v>       0.50000422       0.83322827       0.16664478 </v>
    <v>       0.50015568       0.83312146       0.50017311 </v>
    <v>       0.49997528       0.83329212       0.83334545 </v>
    <v>       0.83825484       0.16186050       0.16416219 </v>
    <v>       0.83334349       0.16675910       0.50000136 </v>
    <v>       0.83341918       0.16682654       0.83321672 </v>
    <v>       0.83325549       0.50004648       0.16642367 </v>
    <v>       0.83325502       0.50004301       0.50006491 </v>
    <v>       0.83335130       0.50005687       0.83331172 </v>
    <v>       0.83340625       0.83327308       0.16662171 </v>
    <v>       0.83339161       0.83335549       0.50003633 </v>
    <v>       0.83336337       0.83331570       0.83331703 </v>
   </varray>
  </structure>
  <varray name="forces" >
   <v>       0.07994459      -0.15246440       0.02191479 </v>
   <v>      -0.11917857      -0.08018198      -0.00578305 </v>
   <v>       0.00833454      -0.00631200      -0.02090538 </v>
   <v>      -0.06413833      -0.04610180       0.03482931 </v>
   <v>       0.15655824      -0.04546451       0.11957719 </v>
   <v>       0.01887358      -0.00633494      -0.07741552 </v>
   <v>      -0.00050429       0.08376525       0.02204846 </v>
   <v>      -0.00231363       0.07254372       0.02008042 </v>
   <v>      -0.00473675       0.00849927      -0.01499017 </v>
   <v>       0.07760606      -0.04938502      -0.02968107 </v>
   <v>       0.03480321       0.23325693      -0.03655264 </v>
   <v>       0.01807737       0.01325877       0.02213369 </v>
   <v>       0.25300938      -0.07517338       0.07022056 </v>
   <v>      -0.06525229      -0.04729382       0.17964791 </v>
   <v>       0.03021813      -0.00132652      -0.09916541 </v>
   <v>       0.01700371       0.06943904       0.01166272 </v>
   <v>       0.00234168      -0.05116049       0.02023588 </v>
   <v>       0.00581762      -0.00356060      -0.00712542 </v>
   <v>      -0.04109734      -0.01561610       0.00074725 </v>
   <v>       0.03994134      -0.00024545      -0.00662347 </v>
   <v>      -0.00758239      -0.00029828      -0.00132290 </v>
   <v>      -0.05552744      -0.01866443       0.00378783 </v>
   <v>      -0.04077903      -0.01904853       0.01274516 </v>
   <v>      -0.01938664      -0.00415786      -0.00469371 </v>
   <v>      -0.00346336       0.01486799      -0.00174319 </v>
   <v>       0.00488169       0.01097418       0.00330465 </v>
   <v>      -0.00116147       0.00438548      -0.00075320 </v>
   <v>       0.00349698      -0.05208526       0.05175542 </v>
   <v>      -0.19570269       0.02336566      -0.02801055 </v>
   <v>      -0.06980624       0.03312732      -0.11123274 </v>
   <v>      -0.01497985       0.01923692       0.00148250 </v>
   <v>      -0.04474066       0.05013921      -0.02470153 </v>
   <v>      -0.01524539      -0.13459217      -0.12444885 </v>
   <v>      -0.01305124      -0.01276511       0.05347820 </v>
   <v>      -0.01322361      -0.00022246       0.02406212 </v>
   <v>       0.00998853      -0.02335592      -0.02836225 </v>
   <v>       0.01211658      -0.00726267      -0.00338275 </v>
   <v>       0.01562372       0.01690797       0.00862467 </v>
   <v>       0.01672053       0.02627316      -0.04163333 </v>
   <v>       0.01506284       0.00651440      -0.00981384 </v>
   <v>      -0.00531656       0.01584318       0.00316270 </v>
   <v>       0.00099372      -0.02159779      -0.00182909 </v>
   <v>       0.03412909      -0.04540175       0.03752791 </v>
   <v>      -0.00561994      -0.00739467       0.00221426 </v>
   <v>      -0.07158235       0.14071099       0.03457082 </v>
   <v>       0.00166560       0.02046900      -0.00094594 </v>
   <v>       0.01862383       0.03374132      -0.02719727 </v>
   <v>      -0.01731730       0.00938218      -0.05108555 </v>
   <v>      -0.01906232       0.01044366       0.01284694 </v>
   <v>       0.00156746       0.01387022      -0.00708129 </v>
   <v>       0.01558159      -0.00957331      -0.00853895 </v>
   <v>       0.01271383       0.00760362       0.00733606 </v>
   <v>       0.00507424      -0.00157821      -0.00497834 </v>
  </varray>
  <varray name="stress" >
   <v>      -6.86855189      -0.19999434       0.14212259 </v>
   <v>      -0.19999380      -6.92743723      -0.08002070 </v>
   <v>       0.14212269      -0.08002070      -6.91405683 </v>
  </varray>
  <energy>
   <i name="e_fr_energy">   -178.46489482 </i>
   <i name="e_wo_entrp">   -178.46489287 </i>
   <i name="e_0_energy">   -178.46489385 </i>
  </energy>
  <time name="totalsc">   21.66   21.71</time>
 </calculation>
 <calculation>
  <scstep>
   <time name="dav">    0.47    0.47</time>
   <time name="total">    2.55    2.56</time>
   <energy>
    <i name="alphaZ">   1436.48757412 </i>
    <i name="ewald"> -21814.29429113 </i>
    <i name="hartreedc">  -3653.58367416 </i>
    <i name="XCdc">    840.78913910 </i>
    <i name="pawpsdc">  24296.29784843 </i>
    <i name="pawaedc"> -24108.69888266 </i>
    <i name="eentropy">     -0.00000211 </i>
    <i name="bandstr">  -2805.45985766 </i>
    <i name="atom">  25630.00721240 </i>
    <i name="e_fr_energy">   -178.45493365 </i>
    <i name="e_wo_entrp">   -178.45493154 </i>
    <i name="e_0_energy">   -178.45493260 </i>
   </energy>
  </scstep>
  <scstep>
   <time name="dav">    0.50    0.50</time>
   <time name="total">    2.78    2.78</time>
   <energy>
    <i name="e_fr_energy">   -178.53128637 </i>
    <i name="e_wo_entrp">   -178.53128437 </i>
    <i name="e_0_energy">   -178.53128537 </i>
   </energy>
  </scstep>
  <scstep>
   <time name="dav">    0.54    0.54</time>
   <time name="total">    2.81    2.82</time>
   <energy>
    <i name="e_fr_energy">   -178.52818611 </i>
    <i name="e_wo_entrp">   -178.52818424 </i>
    <i name="e_0_energy">   -178.52818517 </i>
   </energy>
  </scstep>
  <scstep>
   <time name="dav">    0.53    0.53</time>
   <time name="total">    2.80    2.81</time>
   <energy>
    <i name="e_fr_energy">   -178.52615398 </i>
    <i name="e_wo_entrp">   -178.52615221 </i>
    <i name="e_0_energy">   -178.52615310 </i>
   </energy>
  </scstep>
  <scstep>
   <time name="dav">    0.53    0.53</time>
   <time name="total">    2.80    2.81</time>
   <energy>
    <i name="e_fr_energy">   -178.52601294 </i>
    <i name="e_wo_entrp">   -178.52601121 </i>
    <i name="e_0_energy">   -178.52601208 </i>
   </energy>
  </scstep>
  <scstep>
   <time name="dav">    0.54    0.54</time>
   <time name="total">    2.82    2.82</time>
   <energy>
    <i name="e_fr_energy">   -178.52594514 </i>
    <i name="e_wo_entrp">   -178.52594343 </i>
    <i name="e_0_energy">   -178.52594429 </i>
   </energy>
  </scstep>
  <scstep>
   <time name="dav">    0.50    0.51</time>
   <time name="total">    2.69    2.69</time>
   <energy>
    <i name="e_fr_energy">   -178.52591488 </i>
    <i name="e_wo_entrp">   -178.52591319 </i>
    <i name="e_0_energy">   -178.52591403 </i>
   </energy>
  </scstep>
  <scstep>
   <time name="dav">    0.53    0.53</time>
   <time name="total">    2.73    2.74</time>
   <energy>
    <i name="e_fr_energy">   -178.52592137 </i>
    <i name="e_wo_entrp">   -178.52591968 </i>
    <i name="e_0_energy">   -178.52592052 </i>
   </energy>
  </scstep>
  <scstep>
   <time name="dav">    0.36    0.36</time>
   <time name="total">    2.49    2.50</time>
   <energy>
    <i name="alphaZ">   1436.48757412 </i>
    <i name="ewald"> -21814.29429113 </i>
    <i name="hartreedc">  -3653.57322296 </i>
    <i name="XCdc">    840.78551923 </i>
    <i name="pawpsdc">  24291.77096530 </i>
    <i name="pawaedc"> -24104.16600476 </i>
    <i name="eentropy">     -0.00000169 </i>
    <i name="bandstr">  -2805.54367188 </i>
    <i name="atom">  25630.00721240 </i>
    <i name="e_fr_energy">   -178.52592135 </i>
    <i name="e_wo_entrp">   -178.52591967 </i>
    <i name="e_0_energy">   -178.52592051 </i>
   </energy>
  </scstep>
  <structure>
   <crystal>
    <varray name="basis" >
     <v>      12.22634592       0.00000000       0.00000000 </v>
     <v>       0.00000000      12.22634592       0.00000000 </v>
     <v>       0.00000000       0.00000000      12.22634592 </v>
    </varray>
    <i name="volume">   1827.63740156 </i>
    <varray name="rec_basis" >
     <v>       0.08179059       0.00000000       0.00000000 </v>
     <v>       0.00000000       0.08179059       0.00000000 </v>
     <v>       0.00000000       0.00000000       0.08179059 </v>
    </varray>
   </crystal>
   <varray name="positions" >
    <v>       0.99560933       0.00490325       0.99749702 </v>
    <v>       0.00618070       0.00667400       0.33479509 </v>
    <v>       0.00016768       0.99987521       0.66622428 </v>
    <v>       0.99878586       0.33740891       0.99372251 </v>
    <v>       0.99184526       0.33869438       0.32982662 </v>
    <v>       0.00036649       0.33316329       0.66517705 </v>
    <v>       0.99997410       0.66825855       0.00042266 </v>
    <v>       0.99998111       0.66800428       0.33374382 </v>
    <v>       0.99993278       0.66686283       0.66630343 </v>
    <v>       0.33277218       0.00193120       0.00190884 </v>
    <v>       0.33629805       0.99034668       0.33998737 </v>
    <v>       0.33371799       0.00028011       0.66699581 </v>
    <v>       0.32631534       0.33987875       0.99374889 </v>
    <v>       0.33636983       0.33315324       0.32572999 </v>
    <v>       0.33394828       0.33325823       0.66476147 </v>
    <v>       0.33372224       0.66795400       0.00023814 </v>
    <v>       0.33340340       0.66570537       0.33374134 </v>
    <v>       0.33347783       0.66661270       0.66646115 </v>
    <v>       0.66582618       0.99970616       0.00004117 </v>
    <v>       0.66734203       0.00002775       0.33322371 </v>
    <v>       0.66645537       0.00000869       0.66660789 </v>
    <v>       0.66557662       0.33292416       0.00009295 </v>
    <v>       0.66583745       0.33291154       0.33362533 </v>
    <v>       0.66621667       0.33319758       0.66651768 </v>
    <v>       0.66654294       0.66700381       0.99999952 </v>
    <v>       0.66671412       0.66691377       0.33342221 </v>
    <v>       0.66659564       0.66678062       0.66660706 </v>
    <v>       0.16733474       0.17088344       0.49540531 </v>
    <v>       0.17170968       0.16653549       0.83343103 </v>
    <v>       0.16724984       0.50125407       0.16878708 </v>
    <v>       0.16637790       0.50035156       0.50008290 </v>
    <v>       0.16578399       0.50094496       0.83286529 </v>
    <v>       0.16644547       0.84111084       0.17072437 </v>
    <v>       0.16635910       0.83303236       0.50098636 </v>
    <v>       0.16640507       0.83327052       0.83375892 </v>
    <v>       0.49954222       0.16713700       0.16652714 </v>
    <v>       0.50021136       0.16656473       0.49996005 </v>
    <v>       0.50030712       0.16696965       0.83351009 </v>
    <v>       0.50035193       0.50051187       0.16588450 </v>
    <v>       0.50027379       0.50013854       0.49984920 </v>
    <v>       0.49991300       0.50026402       0.83343658 </v>
    <v>       0.50001689       0.83291309       0.16657911 </v>
    <v>       0.50062271       0.83248585       0.50069245 </v>
    <v>       0.49990110       0.83316848       0.83338182 </v>
    <v>       0.83732064       0.16374214       0.16461562 </v>
    <v>       0.83337397       0.16703640       0.50000544 </v>
    <v>       0.83367671       0.16730616       0.83286689 </v>
    <v>       0.83302194       0.50018591       0.16569467 </v>
    <v>       0.83302006       0.50017206       0.50025964 </v>
    <v>       0.83340520       0.50022746       0.83324686 </v>
    <v>       0.83362499       0.83309233       0.16648685 </v>
    <v>       0.83356642       0.83342194       0.50014534 </v>
    <v>       0.83345350       0.83326281       0.83326811 </v>
   </varray>
  </structure>
  <varray name="forces" >
   <v>       0.05767630      -0.11638575       0.01378420 </v>
   <v>      -0.09234725      -0.06853397      -0.01450538 </v>
   <v>       0.00155688      -0.00210319      -0.00230001 </v>
   <v>      -0.03213163      -0.02637941       0.02449948 </v>
   <v>       0.09256464      -0.01695021       0.08965087 </v>
   <v>       0.00461637       0.00835149      -0.02344582 </v>
   <v>       0.00109298       0.03008746       0.00480054 </v>
   <v>      -0.00469497       0.03200455       0.00172857 </v>
   <v>      -0.00714493      -0.00133978       0.00574873 </v>
   <v>       0.03903125      -0.03979120      -0.03700947 </v>
   <v>       0.01161679       0.12723683      -0.03598581 </v>
   <v>       0.00100774       0.00227881       0.02667225 </v>
   <v>       0.15074206      -0.04265450       0.03648876 </v>
   <v>      -0.05950971      -0.00234321       0.10760240 </v>
   <v>       0.00302714       0.01129373      -0.03321074 </v>
   <v>      -0.00549444       0.02836288       0.00056810 </v>
   <v>      -0.00390167      -0.02139693       0.00267543 </v>
   <v>      -0.00335293      -0.00361555       0.00878948 </v>
   <v>      -0.00384228      -0.00598927      -0.00459433 </v>
   <v>       0.03283116      -0.00547971      -0.00715417 </v>
   <v>       0.00826370      -0.00205380       0.00537030 </v>
   <v>      -0.01088621       0.00297976      -0.00274363 </v>
   <v>      -0.00557310       0.00487238      -0.00344954 </v>
   <v>       0.00493427       0.00896989       0.00831883 </v>
   <v>       0.00842863      -0.00095016      -0.00724499 </v>
   <v>       0.01042696      -0.00061206      -0.00367291 </v>
   <v>       0.00867550      -0.00341032       0.00828153 </v>
   <v>       0.00831026      -0.04858731       0.03225484 </v>
   <v>      -0.11425476       0.01867602      -0.01725003 </v>
   <v>      -0.03353205       0.01158925      -0.06667189 </v>
   <v>      -0.00157525       0.00881233      -0.01267937 </v>
   <v>      -0.00575986       0.01717947      -0.01179976 </v>
   <v>       0.00280781      -0.08575985      -0.06757666 </v>
   <v>       0.00897001       0.01010827       0.01916005 </v>
   <v>       0.00006472       0.01576027       0.01245118 </v>
   <v>      -0.00385283      -0.01605274      -0.00781145 </v>
   <v>       0.00634132      -0.00985353      -0.00683364 </v>
   <v>       0.00089768       0.00811308      -0.00108639 </v>
   <v>      -0.00329345       0.00527216      -0.01203317 </v>
   <v>       0.00560326      -0.00147249      -0.01184812 </v>
   <v>      -0.00624315       0.01157864      -0.00890683 </v>
   <v>      -0.00009599      -0.00175216       0.01164557 </v>
   <v>       0.01398338      -0.01393065       0.01383284 </v>
   <v>      -0.00379072       0.00595726      -0.00145733 </v>
   <v>      -0.04942407       0.08455817       0.02608167 </v>
   <v>      -0.00217683       0.01025779      -0.00778942 </v>
   <v>       0.00330576       0.00930039      -0.01817963 </v>
   <v>      -0.01084086       0.00306962      -0.01330168 </v>
   <v>      -0.01700537       0.00870443      -0.00072323 </v>
   <v>      -0.00981190       0.01167709      -0.01334042 </v>
   <v>       0.00437658       0.01284632       0.00280511 </v>
   <v>       0.00459933       0.01627223      -0.00065617 </v>
   <v>      -0.00521627       0.01122719      -0.00794876 </v>
  </varray>
  <varray name="stress" >
   <v>      -7.09001243      -0.13392764       0.09634149 </v>
   <v>      -0.13392781      -7.11658864      -0.06487967 </v>
   <v>       0.09634166      -0.06487982      -7.09799875 </v>
  </varray>
  <energy>
   <i name="e_fr_energy">   -178.52592135 </i>
   <i name="e_wo_entrp">   -178.52591967 </i>
   <i name="e_0_energy">   -178.52592051 </i>
  </energy>
  <time name="totalsc">   29.68   29.75</time>
 </calculation>
 <calculation>
  <scstep>
   <time name="dav">    0.47    0.47</time>
   <time name="total">    2.67    2.68</time>
   <energy>
    <i name="alphaZ">   1436.48757412 </i>
    <i name="ewald"> -21808.77238426 </i>
    <i name="hartreedc">  -3659.05016475 </i>
    <i name="XCdc">    840.82411494 </i>
    <i name="pawpsdc">  24291.90503161 </i>
    <i name="pawaedc"> -24104.29991538 </i>
    <i name="eentropy">     -0.00000200 </i>
    <i name="bandstr">  -2805.36346856 </i>
    <i name="atom">  25630.00721240 </i>
    <i name="e_fr_energy">   -178.26200187 </i>
    <i name="e_wo_entrp">   -178.26199987 </i>
    <i name="e_0_energy">   -178.26200087 </i>
   </energy>
  </scstep>
  <scstep>
   <time name="dav">    0.50    0.51</time>
   <time name="total">    2.76    2.77</time>
   <energy>
    <i name="e_fr_energy">   -178.57959167 </i>
    <i name="e_wo_entrp">   -178.57958990 </i>
    <i name="e_0_energy">   -178.57959079 </i>
   </energy>
  </scstep>
  <scstep>
   <time name="dav">    0.54    0.54</time>
   <time name="total">    2.79    2.80</time>
   <energy>
    <i name="e_fr_energy">   -178.56670617 </i>
    <i name="e_wo_entrp">   -178.56670454 </i>
    <i name="e_0_energy">   -178.56670536 </i>
   </energy>
  </scstep>
  <scstep>
   <time name="dav">    0.54    0.54</time>
   <time name="total">    2.85    2.86</time>
   <energy>
    <i name="e_fr_energy">   -178.55895442 </i>
    <i name="e_wo_entrp">   -178.55895296 </i>
    <i name="e_0_energy">   -178.55895369 </i>
   </energy>
  </scstep>
  <scstep>
   <time name="dav">    0.53    0.53</time>
   <time name="total">    2.81    2.82</time>
   <energy>
    <i name="e_fr_energy">   -178.55788871 </i>
    <i name="e_wo_entrp">   -178.55788732 </i>
    <i name="e_0_energy">   -178.55788801 </i>
   </energy>
  </scstep>
  <scstep>
   <time name="dav">    0.54    0.54</time>
   <time name="total">    2.82    2.82</time>
   <energy>
    <i name="e_fr_energy">   -178.55754191 </i>
    <i name="e_wo_entrp">   -178.55754059 </i>
    <i name="e_0_energy">   -178.55754125 </i>
   </energy>
  </scstep>
  <scstep>
   <time name="dav">    0.58    0.58</time>
   <time name="total">    2.65    2.66</time>
   <energy>
    <i name="e_fr_energy">   -178.55741788 </i>
    <i name="e_wo_entrp">   -178.55741658 </i>
    <i name="e_0_energy">   -178.55741723 </i>
   </energy>
  </scstep>
  <scstep>
   <time name="dav">    0.52    0.53</time>
   <time name="total">    2.61    2.62</time>
   <energy>
    <i name="e_fr_energy">   -178.55743073 </i>
    <i name="e_wo_entrp">   -178.55742944 </i>
    <i name="e_0_energy">   -178.55743008 </i>
   </energy>
  </scstep>
  <scstep>
   <time name="dav">    0.39    0.39</time>
   <time name="total">    2.42    2.42</time>
   <energy>
    <i name="alphaZ">   1436.48757412 </i>
    <i name="ewald"> -21808.77238426 </i>
    <i name="hartreedc">  -3659.40072239 </i>
    <i name="XCdc">    840.87357703 </i>
    <i name="pawpsdc">  24299.26884266 </i>
    <i name="pawaedc"> -24111.67797545 </i>
    <i name="eentropy">     -0.00000129 </i>
    <i name="bandstr">  -2805.34354800 </i>
    <i name="atom">  25630.00721240 </i>
    <i name="e_fr_energy">   -178.55742518 </i>
    <i name="e_wo_entrp">   -178.55742389 </i>
    <i name="e_0_energy">   -178.55742454 </i>
   </energy>
  </scstep>
  <structure>
   <crystal>
    <varray name="basis" >
     <v>      12.22634592       0.00000000       0.00000000 </v>
     <v>       0.00000000      12.22634592       0.00000000 </v>
     <v>       0.00000000       0.00000000      12.22634592 </v>
    </varray>
    <i name="volume">   1827.63740156 </i>
    <varray name="rec_basis" >
     <v>       0.08179059       0.00000000       0.00000000 </v>
     <v>       0.00000000       0.08179059       0.00000000 </v>
     <v>       0.00000000       0.00000000       0.08179059 </v>
    </varray>
   </crystal>
   <varray name="positions" >
    <v>       0.99762657       0.00103493       0.99812120 </v>
    <v>       0.00313310       0.00468907       0.33471242 </v>
    <v>       0.00041919       0.99968801       0.66556069 </v>
    <v>       0.99704597       0.33618838       0.99463971 </v>
    <v>       0.99609948       0.33741807       0.33285539 </v>
    <v>       0.00091622       0.33290822       0.66294264 </v>
    <v>       0.99993526       0.67064638       0.00105665 </v>
    <v>       0.99995277       0.67001069       0.33435954 </v>
    <v>       0.99983196       0.66715707       0.66575858 </v>
    <v>       0.33490346       0.00066182       0.00126623 </v>
    <v>       0.33729951       0.99660616       0.33916520 </v>
    <v>       0.33429498       0.00070028       0.66748953 </v>
    <v>       0.33319053       0.33780536       0.99576480 </v>
    <v>       0.33478043       0.33163563       0.33060522 </v>
    <v>       0.33487069       0.33314558       0.66190366 </v>
    <v>       0.33430560       0.66988501       0.00059535 </v>
    <v>       0.33350851       0.66426342       0.33435336 </v>
    <v>       0.33369458       0.66653176       0.66615287 </v>
    <v>       0.66456546       0.99926539       0.00010294 </v>
    <v>       0.66835507       0.00006938       0.33305929 </v>
    <v>       0.66613843       0.00002172       0.66651972 </v>
    <v>       0.66394156       0.33231039       0.00023238 </v>
    <v>       0.66459361       0.33227885       0.33406333 </v>
    <v>       0.66554167       0.33299394       0.66629419 </v>
    <v>       0.66635736       0.66750952       0.99999881 </v>
    <v>       0.66678530       0.66728442       0.33355552 </v>
    <v>       0.66648909       0.66695155       0.66651765 </v>
    <v>       0.16739925       0.16963327       0.49676794 </v>
    <v>       0.16648894       0.16710411       0.83268680 </v>
    <v>       0.16533280       0.50216617       0.16582162 </v>
    <v>       0.16594475       0.50087889       0.50020726 </v>
    <v>       0.16445997       0.50236239       0.83216323 </v>
    <v>       0.16594848       0.83753871       0.16731253 </v>
    <v>       0.16589776       0.83258089       0.50246590 </v>
    <v>       0.16601268       0.83317631       0.83439730 </v>
    <v>       0.49987984       0.16651227       0.16571367 </v>
    <v>       0.50052840       0.16641184       0.49990014 </v>
    <v>       0.50076781       0.16742413       0.83377523 </v>
    <v>       0.50087983       0.50127968       0.16471124 </v>
    <v>       0.50068448       0.50034636       0.49962299 </v>
    <v>       0.49978250       0.50066005       0.83359144 </v>
    <v>       0.50004224       0.83228271       0.16644778 </v>
    <v>       0.50155678       0.83121462       0.50173112 </v>
    <v>       0.49975275       0.83292119       0.83345454 </v>
    <v>       0.83545224       0.16750544       0.16552250 </v>
    <v>       0.83343492       0.16759101       0.50001359 </v>
    <v>       0.83419178       0.16826541       0.83216723 </v>
    <v>       0.83255486       0.50046477       0.16423669 </v>
    <v>       0.83255016       0.50043015       0.50064910 </v>
    <v>       0.83351299       0.50056866       0.83311715 </v>
    <v>       0.83406247       0.83273083       0.16621712 </v>
    <v>       0.83391605       0.83355486       0.50036334 </v>
    <v>       0.83363374       0.83315704       0.83317028 </v>
   </varray>
  </structure>
  <varray name="forces" >
   <v>       0.01183116      -0.02980922      -0.00608632 </v>
   <v>      -0.08325358      -0.08419259      -0.02495168 </v>
   <v>      -0.01540245       0.00639371       0.03990426 </v>
   <v>       0.01384651       0.02128758       0.01332965 </v>
   <v>       0.02787295       0.02062272      -0.00693341 </v>
   <v>      -0.02475101       0.03521147       0.05959944 </v>
   <v>      -0.00141020      -0.05575892      -0.03325705 </v>
   <v>      -0.00886041      -0.03201228      -0.03130248 </v>
   <v>      -0.01231648      -0.02447794       0.05273283 </v>
   <v>      -0.03434851      -0.01960708      -0.04434817 </v>
   <v>      -0.01732827      -0.00823761      -0.04171641 </v>
   <v>      -0.03473663      -0.02455849       0.03214561 </v>
   <v>      -0.00595924      -0.00650602       0.00765844 </v>
   <v>      -0.02922606       0.07686706       0.02483978 </v>
   <v>      -0.05198506       0.03722995       0.05829363 </v>
   <v>      -0.04656531      -0.04018140      -0.02039212 </v>
   <v>      -0.01655345       0.02505840      -0.02995802 </v>
   <v>      -0.02305792      -0.00539173       0.04266188 </v>
   <v>       0.06489574       0.00810001      -0.01618499 </v>
   <v>       0.01465817      -0.01614658      -0.00460591 </v>
   <v>       0.04048485      -0.00635061       0.01896977 </v>
   <v>       0.07065709       0.04486378      -0.01675010 </v>
   <v>       0.05538740       0.04814555      -0.03355032 </v>
   <v>       0.05793511       0.03586674       0.03638421 </v>
   <v>       0.03409341      -0.03777254      -0.01851341 </v>
   <v>       0.02154433      -0.02681693      -0.01713948 </v>
   <v>       0.02760650      -0.01921911       0.02688922 </v>
   <v>       0.01759163      -0.04668723       0.00114823 </v>
   <v>       0.02819036       0.00338892      -0.00171803 </v>
   <v>       0.02986857      -0.02771463       0.01572972 </v>
   <v>       0.02694507      -0.01330332      -0.03849146 </v>
   <v>       0.05436034      -0.03101135      -0.00448893 </v>
   <v>       0.03532108       0.00773552       0.03040909 </v>
   <v>       0.04501850       0.04652340      -0.04220663 </v>
   <v>       0.02922587       0.04477197      -0.01689689 </v>
   <v>      -0.02256748      -0.00887699       0.03179930 </v>
   <v>      -0.00223447      -0.01489741      -0.01034535 </v>
   <v>      -0.02802861      -0.01526134      -0.02440222 </v>
   <v>      -0.03359382      -0.02798119       0.04293001 </v>
   <v>      -0.01469674      -0.01883456      -0.01426341 </v>
   <v>      -0.00725334       0.00103483      -0.03281779 </v>
   <v>      -0.00134039       0.03917324       0.03851836 </v>
   <v>      -0.01732560       0.04128374      -0.02445865 </v>
   <v>       0.00035215       0.03026969      -0.00935128 </v>
   <v>      -0.01686320      -0.01233274       0.02151352 </v>
   <v>      -0.01026893      -0.01372989      -0.02110596 </v>
   <v>      -0.03435242      -0.03529065      -0.00540707 </v>
   <v>      -0.00720387       0.00006708       0.05140989 </v>
   <v>      -0.01048377       0.00254798      -0.02810386 </v>
   <v>      -0.03325107       0.00644353      -0.02511563 </v>
   <v>      -0.02258856       0.05543172       0.02710250 </v>
   <v>      -0.01420642       0.03019321      -0.01543576 </v>
   <v>      -0.02567352       0.03444860      -0.01367055 </v>
  </varray>
  <varray name="stress" >
   <v>      -7.22984685      -0.04316390       0.03448823 </v>
   <v>      -0.04316389      -7.24926543      -0.03209893 </v>
   <v>       0.03448857      -0.03209909      -7.22813555 </v>
  </varray>
  <energy>
   <i name="e_fr_energy">   -178.55742518 </i>
   <i name="e_wo_entrp">   -178.55742389 </i>
   <i name="e_0_energy">   -178.55742454 </i>
  </energy>
  <time name="totalsc">   29.40   29.48</time>
 </calculation>
 <calculation>
  <scstep>
   <time name="dav">    0.47    0.47</time>
   <time name="total">    2.55    2.56</time>
   <energy>
    <i name="alphaZ">   1436.48757412 </i>
    <i name="ewald"> -21810.56447463 </i>
    <i name="hartreedc">  -3657.61809235 </i>
    <i name="XCdc">    840.83190212 </i>
    <i name="pawpsdc">  24299.64384285 </i>
    <i name="pawaedc"> -24112.05148595 </i>
    <i name="eentropy">     -0.00000126 </i>
    <i name="bandstr">  -2805.28458043 </i>
    <i name="atom">  25630.00721240 </i>
    <i name="e_fr_energy">   -178.54810313 </i>
    <i name="e_wo_entrp">   -178.54810186 </i>
    <i name="e_0_energy">   -178.54810250 </i>
   </energy>
  </scstep>
  <scstep>
   <time name="dav">    0.50    0.51</time>
   <time name="total">    2.77    2.78</time>
   <energy>
    <i name="e_fr_energy">   -178.56056138 </i>
    <i name="e_wo_entrp">   -178.56056009 </i>
    <i name="e_0_energy">   -178.56056074 </i>
   </energy>
  </scstep>
  <scstep>
   <time name="dav">    0.54    0.54</time>
   <time name="total">    2.81    2.82</time>
   <energy>
    <i name="e_fr_energy">   -178.56006434 </i>
    <i name="e_wo_entrp">   -178.56006302 </i>
    <i name="e_0_energy">   -178.56006368 </i>
   </energy>
  </scstep>
  <scstep>
   <time name="dav">    0.53    0.53</time>
   <time name="total">    2.81    2.81</time>
   <energy>
    <i name="e_fr_energy">   -178.55977909 </i>
    <i name="e_wo_entrp">   -178.55977775 </i>
    <i name="e_0_energy">   -178.55977842 </i>
   </energy>
  </scstep>
  <scstep>
   <time name="dav">    0.52    0.52</time>
   <time name="total">    2.78    2.79</time>
   <energy>
    <i name="e_fr_energy">   -178.55974932 </i>
    <i name="e_wo_entrp">   -178.55974797 </i>
    <i name="e_0_energy">   -178.55974864 </i>
   </energy>
  </scstep>
  <scstep>
   <time name="dav">    0.46    0.46</time>
   <time name="total">    2.67    2.68</time>
   <energy>
    <i name="alphaZ">   1436.48757412 </i>
    <i name="ewald"> -21810.56447463 </i>
    <i name="hartreedc">  -3657.54806428 </i>
    <i name="XCdc">    840.81998371 </i>
    <i name="pawpsdc">  24295.09501073 </i>
    <i name="pawaedc"> -24107.49514392 </i>
    <i name="eentropy">     -0.00000135 </i>
    <i name="bandstr">  -2805.36184455 </i>
    <i name="atom">  25630.00721240 </i>
    <i name="e_fr_energy">   -178.55974777 </i>
    <i name="e_wo_entrp">   -178.55974642 </i>
    <i name="e_0_energy">   -178.55974710 </i>
   </energy>
  </scstep>
  <structure>
   <crystal>
    <varray name="basis" >
     <v>      12.22634592       0.00000000       0.00000000 </v>
     <v>       0.00000000      12.22634592       0.00000000 </v>
     <v>       0.00000000       0.00000000      12.22634592 </v>
    </varray>
    <i name="volume">   1827.63740156 </i>
    <varray name="rec_basis" >
     <v>       0.08179059       0.00000000       0.00000000 </v>
     <v>       0.00000000       0.08179059       0.00000000 </v>
     <v>       0.00000000       0.00000000       0.08179059 </v>
    </varray>
   </crystal>
   <varray name="positions" >
    <v>       0.99721848       0.00181751       0.99799492 </v>
    <v>       0.00374964       0.00509063       0.33472915 </v>
    <v>       0.00036831       0.99972588       0.66569494 </v>
    <v>       0.99739796       0.33643530       0.99445416 </v>
    <v>       0.99523884       0.33767627       0.33224266 </v>
    <v>       0.00080501       0.33295982       0.66339467 </v>
    <v>       0.99994312       0.67016331       0.00092840 </v>
    <v>       0.99995850       0.66960479       0.33423498 </v>
    <v>       0.99985235       0.66709754       0.66586880 </v>
    <v>       0.33447230       0.00091862       0.00139623 </v>
    <v>       0.33709692       0.99533985       0.33933153 </v>
    <v>       0.33417825       0.00061528       0.66738965 </v>
    <v>       0.33179966       0.33822481       0.99535697 </v>
    <v>       0.33510197       0.33194265       0.32961895 </v>
    <v>       0.33468408       0.33316837       0.66248181 </v>
    <v>       0.33418758       0.66949436       0.00052308 </v>
    <v>       0.33348725       0.66455513       0.33422955 </v>
    <v>       0.33365073       0.66654814       0.66621524 </v>
    <v>       0.66482051       0.99935456       0.00009044 </v>
    <v>       0.66815013       0.00006096       0.33309255 </v>
    <v>       0.66620255       0.00001908       0.66653755 </v>
    <v>       0.66427233       0.33243456       0.00020418 </v>
    <v>       0.66484524       0.33240685       0.33397472 </v>
    <v>       0.66567823       0.33303513       0.66633941 </v>
    <v>       0.66639490       0.66740721       0.99999896 </v>
    <v>       0.66677090       0.66720943       0.33352855 </v>
    <v>       0.66651065       0.66691697       0.66653574 </v>
    <v>       0.16738620       0.16988618       0.49649228 </v>
[...]
        <r>  0.0000  0.0005  0.0000 </r>
        <r>  0.0000  0.0024  0.0000 </r>
        <r>  0.0000  0.0037  0.0000 </r>
        <r>  0.0000  0.0010  0.0000 </r>
        <r>  0.0000  0.0010  0.0000 </r>
        <r>  0.0000  0.0036  0.0000 </r>
        <r>  0.0000  0.0006  0.0000 </r>
        <r>  0.0000  0.0011  0.0000 </r>
        <r>  0.0000  0.0013  0.0000 </r>
       </set>
       <set comment="band 276">
        <r>  0.0000  0.0002  0.0032 </r>
        <r>  0.0000  0.0001  0.0019 </r>
        <r>  0.0000  0.0004  0.0012 </r>
        <r>  0.0000  0.0005  0.0118 </r>
        <r>  0.0000  0.0000  0.0031 </r>
        <r>  0.0000  0.0004  0.0120 </r>
        <r>  0.0000  0.0002  0.0171 </r>
        <r>  0.0000  0.0002  0.0042 </r>
        <r>  0.0000  0.0000  0.0218 </r>
        <r>  0.0000  0.0001  0.0141 </r>
        <r>  0.0000  0.0001  0.0017 </r>
        <r>  0.0000  0.0002  0.0161 </r>
        <r>  0.0000  0.0006  0.0041 </r>
        <r>  0.0000  0.0002  0.0219 </r>
        <r>  0.0000  0.0002  0.0045 </r>
        <r>  0.0000  0.0002  0.0034 </r>
        <r>  0.0000  0.0002  0.0169 </r>
        <r>  0.0000  0.0001  0.0046 </r>
        <r>  0.0000  0.0001  0.0093 </r>
        <r>  0.0000  0.0000  0.0077 </r>
        <r>  0.0000  0.0000  0.0154 </r>
        <r>  0.0000  0.0001  0.0112 </r>
        <r>  0.0000  0.0001  0.0095 </r>
        <r>  0.0000  0.0000  0.0092 </r>
        <r>  0.0000  0.0001  0.0141 </r>
        <r>  0.0000  0.0001  0.0253 </r>
        <r>  0.0000  0.0000  0.0090 </r>
        <r>  0.0000  0.0011  0.0000 </r>
        <r>  0.0000  0.0011  0.0000 </r>
        <r>  0.0000  0.0002  0.0000 </r>
        <r>  0.0000  0.0008  0.0000 </r>
        <r>  0.0000  0.0003  0.0000 </r>
        <r>  0.0000  0.0002  0.0000 </r>
        <r>  0.0000  0.0012  0.0000 </r>
        <r>  0.0000  0.0011  0.0000 </r>
        <r>  0.0000  0.0004  0.0000 </r>
        <r>  0.0000  0.0018  0.0000 </r>
        <r>  0.0000  0.0018  0.0000 </r>
        <r>  0.0000  0.0035  0.0000 </r>
        <r>  0.0000  0.0022  0.0000 </r>
        <r>  0.0000  0.0011  0.0000 </r>
        <r>  0.0000  0.0027  0.0000 </r>
        <r>  0.0000  0.0040  0.0000 </r>
        <r>  0.0000  0.0004  0.0000 </r>
        <r>  0.0000  0.0005  0.0000 </r>
        <r>  0.0000  0.0019  0.0000 </r>
        <r>  0.0000  0.0021  0.0000 </r>
        <r>  0.0000  0.0024  0.0000 </r>
        <r>  0.0000  0.0008  0.0000 </r>
        <r>  0.0000  0.0010  0.0000 </r>
        <r>  0.0000  0.0019  0.0000 </r>
        <r>  0.0000  0.0045  0.0000 </r>
        <r>  0.0000  0.0017  0.0000 </r>
       </set>
       <set comment="band 277">
        <r>  0.0000  0.0002  0.0014 </r>
        <r>  0.0000  0.0002  0.0028 </r>
        <r>  0.0000  0.0005  0.0009 </r>
        <r>  0.0000  0.0001  0.0089 </r>
        <r>  0.0000  0.0004  0.0039 </r>
        <r>  0.0000  0.0003  0.0133 </r>
        <r>  0.0000  0.0002  0.0095 </r>
        <r>  0.0000  0.0000  0.0016 </r>
        <r>  0.0000  0.0000  0.0080 </r>
        <r>  0.0000  0.0004  0.0057 </r>
        <r>  0.0000  0.0001  0.0078 </r>
        <r>  0.0000  0.0005  0.0189 </r>
        <r>  0.0000  0.0004  0.0062 </r>
        <r>  0.0000  0.0001  0.0155 </r>
        <r>  0.0000  0.0004  0.0036 </r>
        <r>  0.0000  0.0003  0.0047 </r>
        <r>  0.0000  0.0001  0.0226 </r>
        <r>  0.0000  0.0000  0.0145 </r>
        <r>  0.0000  0.0004  0.0069 </r>
        <r>  0.0000  0.0003  0.0164 </r>
        <r>  0.0000  0.0001  0.0200 </r>
        <r>  0.0000  0.0006  0.0155 </r>
        <r>  0.0000  0.0003  0.0124 </r>
        <r>  0.0000  0.0001  0.0064 </r>
        <r>  0.0000  0.0000  0.0214 </r>
        <r>  0.0000  0.0000  0.0213 </r>
        <r>  0.0000  0.0000  0.0011 </r>
        <r>  0.0000  0.0002  0.0000 </r>
        <r>  0.0000  0.0001  0.0000 </r>
        <r>  0.0000  0.0010  0.0000 </r>
        <r>  0.0000  0.0032  0.0000 </r>
        <r>  0.0000  0.0021  0.0000 </r>
        <r>  0.0000  0.0011  0.0000 </r>
        <r>  0.0000  0.0045  0.0000 </r>
        <r>  0.0000  0.0025  0.0000 </r>
        <r>  0.0000  0.0003  0.0000 </r>
        <r>  0.0000  0.0015  0.0000 </r>
        <r>  0.0000  0.0005  0.0000 </r>
        <r>  0.0000  0.0041  0.0000 </r>
        <r>  0.0000  0.0015  0.0000 </r>
        <r>  0.0000  0.0018  0.0000 </r>
        <r>  0.0000  0.0027  0.0000 </r>
        <r>  0.0000  0.0007  0.0000 </r>
        <r>  0.0000  0.0025  0.0000 </r>
        <r>  0.0000  0.0003  0.0000 </r>
        <r>  0.0000  0.0021  0.0000 </r>
        <r>  0.0000  0.0008  0.0000 </r>
        <r>  0.0000  0.0037  0.0000 </r>
        <r>  0.0000  0.0035  0.0000 </r>
        <r>  0.0000  0.0004  0.0000 </r>
        <r>  0.0000  0.0031  0.0000 </r>
        <r>  0.0000  0.0040  0.0000 </r>
        <r>  0.0000  0.0009  0.0000 </r>
       </set>
       <set comment="band 278">
        <r>  0.0000  0.0005  0.0181 </r>
        <r>  0.0000  0.0006  0.0035 </r>
        <r>  0.0000  0.0000  0.0063 </r>
        <r>  0.0000  0.0001  0.0009 </r>
        <r>  0.0000  0.0006  0.0072 </r>
        <r>  0.0000  0.0003  0.0148 </r>
        <r>  0.0000  0.0003  0.0107 </r>
        <r>  0.0000  0.0001  0.0054 </r>
        <r>  0.0000  0.0004  0.0029 </r>
        <r>  0.0000  0.0004  0.0016 </r>
        <r>  0.0000  0.0003  0.0120 </r>
        <r>  0.0000  0.0001  0.0067 </r>
        <r>  0.0000  0.0002  0.0123 </r>
        <r>  0.0000  0.0009  0.0019 </r>
        <r>  0.0000  0.0004  0.0052 </r>
        <r>  0.0000  0.0003  0.0027 </r>
        <r>  0.0000  0.0003  0.0075 </r>
        <r>  0.0000  0.0004  0.0102 </r>
        <r>  0.0000  0.0003  0.0176 </r>
        <r>  0.0000  0.0002  0.0085 </r>
        <r>  0.0000  0.0000  0.0177 </r>
        <r>  0.0000  0.0000  0.0057 </r>
        <r>  0.0000  0.0001  0.0199 </r>
        <r>  0.0000  0.0000  0.0060 </r>
        <r>  0.0000  0.0003  0.0154 </r>
        <r>  0.0000  0.0002  0.0095 </r>
        <r>  0.0000  0.0000  0.0363 </r>
        <r>  0.0000  0.0021  0.0000 </r>
        <r>  0.0000  0.0020  0.0000 </r>
        <r>  0.0000  0.0004  0.0000 </r>
        <r>  0.0000  0.0019  0.0000 </r>
        <r>  0.0000  0.0016  0.0000 </r>
        <r>  0.0000  0.0004  0.0000 </r>
        <r>  0.0000  0.0003  0.0000 </r>
        <r>  0.0000  0.0006  0.0000 </r>
        <r>  0.0000  0.0030  0.0000 </r>
        <r>  0.0000  0.0025  0.0000 </r>
        <r>  0.0000  0.0009  0.0000 </r>
        <r>  0.0000  0.0000  0.0000 </r>
        <r>  0.0000  0.0048  0.0000 </r>
        <r>  0.0000  0.0051  0.0000 </r>
        <r>  0.0000  0.0026  0.0000 </r>
        <r>  0.0000  0.0010  0.0000 </r>
        <r>  0.0000  0.0052  0.0000 </r>
        <r>  0.0000  0.0029  0.0000 </r>
        <r>  0.0000  0.0024  0.0000 </r>
        <r>  0.0000  0.0028  0.0000 </r>
        <r>  0.0000  0.0005  0.0000 </r>
        <r>  0.0000  0.0034  0.0000 </r>
        <r>  0.0000  0.0026  0.0000 </r>
        <r>  0.0000  0.0029  0.0000 </r>
        <r>  0.0000  0.0017  0.0000 </r>
        <r>  0.0000  0.0082  0.0000 </r>
       </set>
       <set comment="band 279">
        <r>  0.0000  0.0002  0.0047 </r>
        <r>  0.0000  0.0006  0.0048 </r>
        <r>  0.0000  0.0002  0.0068 </r>
        <r>  0.0000  0.0005  0.0049 </r>
        <r>  0.0000  0.0004  0.0139 </r>
        <r>  0.0000  0.0004  0.0108 </r>
        <r>  0.0000  0.0006  0.0030 </r>
        <r>  0.0000  0.0003  0.0047 </r>
        <r>  0.0000  0.0001  0.0086 </r>
        <r>  0.0000  0.0003  0.0052 </r>
        <r>  0.0000  0.0004  0.0072 </r>
        <r>  0.0000  0.0001  0.0057 </r>
        <r>  0.0000  0.0003  0.0048 </r>
        <r>  0.0000  0.0001  0.0037 </r>
        <r>  0.0000  0.0002  0.0083 </r>
        <r>  0.0000  0.0007  0.0023 </r>
        <r>  0.0000  0.0004  0.0061 </r>
        <r>  0.0000  0.0001  0.0227 </r>
        <r>  0.0000  0.0003  0.0036 </r>
        <r>  0.0000  0.0004  0.0139 </r>
        <r>  0.0000  0.0001  0.0459 </r>
        <r>  0.0000  0.0001  0.0095 </r>
        <r>  0.0000  0.0002  0.0011 </r>
        <r>  0.0000  0.0002  0.0278 </r>
        <r>  0.0000  0.0001  0.0126 </r>
        <r>  0.0000  0.0001  0.0104 </r>
        <r>  0.0000  0.0000  0.0146 </r>
        <r>  0.0000  0.0008  0.0000 </r>
        <r>  0.0000  0.0007  0.0000 </r>
        <r>  0.0000  0.0012  0.0000 </r>
        <r>  0.0000  0.0022  0.0000 </r>
        <r>  0.0000  0.0033  0.0000 </r>
        <r>  0.0000  0.0013  0.0000 </r>
        <r>  0.0000  0.0009  0.0000 </r>
        <r>  0.0000  0.0015  0.0000 </r>
        <r>  0.0000  0.0006  0.0000 </r>
        <r>  0.0000  0.0049  0.0000 </r>
        <r>  0.0000  0.0024  0.0000 </r>
        <r>  0.0000  0.0018  0.0000 </r>
        <r>  0.0000  0.0012  0.0000 </r>
        <r>  0.0000  0.0052  0.0000 </r>
        <r>  0.0000  0.0029  0.0000 </r>
        <r>  0.0000  0.0039  0.0000 </r>
        <r>  0.0000  0.0034  0.0000 </r>
        <r>  0.0000  0.0005  0.0000 </r>
        <r>  0.0000  0.0054  0.0000 </r>
        <r>  0.0000  0.0029  0.0000 </r>
        <r>  0.0000  0.0006  0.0000 </r>
        <r>  0.0000  0.0028  0.0000 </r>
        <r>  0.0000  0.0032  0.0000 </r>
        <r>  0.0000  0.0015  0.0000 </r>
        <r>  0.0000  0.0029  0.0000 </r>
        <r>  0.0000  0.0009  0.0000 </r>
       </set>
       <set comment="band 280">
        <r>  0.0000  0.0009  0.0052 </r>
        <r>  0.0000  0.0004  0.0181 </r>
        <r>  0.0000  0.0002  0.0147 </r>
        <r>  0.0000  0.0006  0.0047 </r>
        <r>  0.0000  0.0004  0.0036 </r>
        <r>  0.0000  0.0003  0.0029 </r>
        <r>  0.0000  0.0002  0.0066 </r>
        <r>  0.0000  0.0006  0.0060 </r>
        <r>  0.0000  0.0001  0.0054 </r>
        <r>  0.0000  0.0004  0.0082 </r>
        <r>  0.0000  0.0002  0.0018 </r>
        <r>  0.0000  0.0003  0.0137 </r>
        <r>  0.0000  0.0005  0.0043 </r>
        <r>  0.0000  0.0001  0.0139 </r>
        <r>  0.0000  0.0004  0.0113 </r>
        <r>  0.0000  0.0000  0.0104 </r>
        <r>  0.0000  0.0001  0.0049 </r>
        <r>  0.0000  0.0001  0.0079 </r>
        <r>  0.0000  0.0002  0.0146 </r>
        <r>  0.0000  0.0002  0.0091 </r>
        <r>  0.0000  0.0001  0.0111 </r>
        <r>  0.0000  0.0006  0.0104 </r>
        <r>  0.0000  0.0005  0.0088 </r>
        <r>  0.0000  0.0001  0.0092 </r>
        <r>  0.0000  0.0003  0.0076 </r>
        <r>  0.0000  0.0003  0.0236 </r>
        <r>  0.0000  0.0000  0.0265 </r>
        <r>  0.0000  0.0024  0.0000 </r>
        <r>  0.0000  0.0023  0.0000 </r>
        <r>  0.0000  0.0010  0.0000 </r>
        <r>  0.0000  0.0018  0.0000 </r>
        <r>  0.0000  0.0021  0.0000 </r>
        <r>  0.0000  0.0010  0.0000 </r>
        <r>  0.0000  0.0046  0.0000 </r>
        <r>  0.0000  0.0033  0.0000 </r>
        <r>  0.0000  0.0009  0.0000 </r>
        <r>  0.0000  0.0018  0.0000 </r>
        <r>  0.0000  0.0044  0.0000 </r>
        <r>  0.0000  0.0018  0.0000 </r>
        <r>  0.0000  0.0077  0.0000 </r>
        <r>  0.0000  0.0035  0.0000 </r>
        <r>  0.0000  0.0019  0.0000 </r>
        <r>  0.0000  0.0054  0.0000 </r>
        <r>  0.0000  0.0033  0.0000 </r>
        <r>  0.0000  0.0009  0.0000 </r>
        <r>  0.0000  0.0003  0.0000 </r>
        <r>  0.0000  0.0004  0.0000 </r>
        <r>  0.0000  0.0030  0.0000 </r>
        <r>  0.0000  0.0040  0.0000 </r>
        <r>  0.0000  0.0016  0.0000 </r>
        <r>  0.0000  0.0036  0.0000 </r>
        <r>  0.0000  0.0040  0.0000 </r>
        <r>  0.0000  0.0010  0.0000 </r>
       </set>
       <set comment="band 281">
        <r>  0.0000  0.0003  0.0253 </r>
        <r>  0.0000  0.0002  0.0068 </r>
        <r>  0.0000  0.0002  0.0040 </r>
        <r>  0.0000  0.0003  0.0025 </r>
        <r>  0.0000  0.0004  0.0203 </r>
        <r>  0.0000  0.0001  0.0081 </r>
        <r>  0.0000  0.0003  0.0045 </r>
        <r>  0.0000  0.0002  0.0086 </r>
        <r>  0.0000  0.0002  0.0160 </r>
        <r>  0.0000  0.0003  0.0085 </r>
        <r>  0.0000  0.0002  0.0086 </r>
        <r>  0.0000  0.0005  0.0058 </r>
        <r>  0.0000  0.0001  0.0116 </r>
        <r>  0.0000  0.0007  0.0063 </r>
        <r>  0.0000  0.0004  0.0053 </r>
        <r>  0.0000  0.0005  0.0060 </r>
        <r>  0.0000  0.0002  0.0035 </r>
        <r>  0.0000  0.0002  0.0123 </r>
        <r>  0.0000  0.0003  0.0102 </r>
        <r>  0.0000  0.0003  0.0058 </r>
        <r>  0.0000  0.0001  0.0214 </r>
        <r>  0.0000  0.0002  0.0024 </r>
        <r>  0.0000  0.0002  0.0172 </r>
        <r>  0.0000  0.0001  0.0027 </r>
        <r>  0.0000  0.0002  0.0083 </r>
        <r>  0.0000  0.0001  0.0242 </r>
        <r>  0.0000  0.0000  0.0135 </r>
        <r>  0.0000  0.0012  0.0000 </r>
        <r>  0.0000  0.0011  0.0000 </r>
        <r>  0.0000  0.0011  0.0000 </r>
        <r>  0.0000  0.0021  0.0000 </r>
        <r>  0.0000  0.0017  0.0000 </r>
        <r>  0.0000  0.0012  0.0000 </r>
        <r>  0.0000  0.0014  0.0000 </r>
        <r>  0.0000  0.0012  0.0000 </r>
        <r>  0.0000  0.0018  0.0000 </r>
        <r>  0.0000  0.0022  0.0000 </r>
        <r>  0.0000  0.0015  0.0000 </r>
        <r>  0.0000  0.0018  0.0000 </r>
        <r>  0.0000  0.0026  0.0000 </r>
        <r>  0.0000  0.0014  0.0000 </r>
        <r>  0.0000  0.0010  0.0000 </r>
        <r>  0.0000  0.0024  0.0000 </r>
        <r>  0.0000  0.0032  0.0000 </r>
        <r>  0.0000  0.0018  0.0000 </r>
        <r>  0.0000  0.0035  0.0000 </r>
        <r>  0.0000  0.0016  0.0000 </r>
        <r>  0.0000  0.0039  0.0000 </r>
        <r>  0.0000  0.0023  0.0000 </r>
        <r>  0.0000  0.0015  0.0000 </r>
        <r>  0.0000  0.0029  0.0000 </r>
        <r>  0.0000  0.0008  0.0000 </r>
        <r>  0.0000  0.0056  0.0000 </r>
       </set>
       <set comment="band 282">
        <r>  0.0000  0.0003  0.0030 </r>
        <r>  0.0000  0.0002  0.0132 </r>
        <r>  0.0000  0.0003  0.0075 </r>
        <r>  0.0000  0.0006  0.0114 </r>
        <r>  0.0000  0.0001  0.0090 </r>
        <r>  0.0000  0.0002  0.0032 </r>
        <r>  0.0000  0.0002  0.0051 </r>
        <r>  0.0000  0.0003  0.0057 </r>
        <r>  0.0000  0.0001  0.0220 </r>
        <r>  0.0000  0.0003  0.0083 </r>
        <r>  0.0000  0.0002  0.0091 </r>
        <r>  0.0000  0.0002  0.0063 </r>
        <r>  0.0000  0.0003  0.0124 </r>
        <r>  0.0000  0.0004  0.0048 </r>
        <r>  0.0000  0.0002  0.0081 </r>
        <r>  0.0000  0.0002  0.0101 </r>
        <r>  0.0000  0.0002  0.0100 </r>
        <r>  0.0000  0.0001  0.0375 </r>
        <r>  0.0000  0.0003  0.0028 </r>
        <r>  0.0000  0.0005  0.0042 </r>
        <r>  0.0000  0.0001  0.0109 </r>
        <r>  0.0000  0.0005  0.0034 </r>
        <r>  0.0000  0.0004  0.0034 </r>
        <r>  0.0000  0.0001  0.0142 </r>
        <r>  0.0000  0.0002  0.0065 </r>
        <r>  0.0000  0.0002  0.0244 </r>
        <r>  0.0000  0.0000  0.0126 </r>
        <r>  0.0000  0.0015  0.0000 </r>
        <r>  0.0000  0.0014  0.0000 </r>
        <r>  0.0000  0.0007  0.0000 </r>
        <r>  0.0000  0.0027  0.0000 </r>
        <r>  0.0000  0.0030  0.0000 </r>
        <r>  0.0000  0.0008  0.0000 </r>
        <r>  0.0000  0.0045  0.0000 </r>
        <r>  0.0000  0.0034  0.0000 </r>
        <r>  0.0000  0.0013  0.0000 </r>
        <r>  0.0000  0.0016  0.0000 </r>
        <r>  0.0000  0.0026  0.0000 </r>
        <r>  0.0000  0.0023  0.0000 </r>
        <r>  0.0000  0.0029  0.0000 </r>
        <r>  0.0000  0.0018  0.0000 </r>
        <r>  0.0000  0.0021  0.0000 </r>
        <r>  0.0000  0.0043  0.0000 </r>
        <r>  0.0000  0.0011  0.0000 </r>
        <r>  0.0000  0.0012  0.0000 </r>
        <r>  0.0000  0.0017  0.0000 </r>
        <r>  0.0000  0.0015  0.0000 </r>
        <r>  0.0000  0.0010  0.0000 </r>
        <r>  0.0000  0.0028  0.0000 </r>
        <r>  0.0000  0.0015  0.0000 </r>
        <r>  0.0000  0.0016  0.0000 </r>
        <r>  0.0000  0.0025  0.0000 </r>
        <r>  0.0000  0.0036  0.0000 </r>
       </set>
      </set>
     </set>
    </set>
   </array>
  </projected>
 </calculation>
 <structure name="finalpos" >
  <crystal>
   <varray name="basis" >
    <v>      12.22634592       0.00000000       0.00000000 </v>
    <v>       0.00000000      12.22634592       0.00000000 </v>
    <v>       0.00000000       0.00000000      12.22634592 </v>
   </varray>
   <i name="volume">   1827.63740156 </i>
   <varray name="rec_basis" >
    <v>       0.08179059       0.00000000       0.00000000 </v>
    <v>       0.00000000       0.08179059       0.00000000 </v>
    <v>       0.00000000       0.00000000       0.08179059 </v>
   </varray>
  </crystal>
  <varray name="positions" >
   <v>       0.99891330       0.99937432       0.99845876 </v>
   <v>       0.99836004       0.99938925       0.33433026 </v>
   <v>       0.00008021       0.00063888       0.66633977 </v>
   <v>       0.99817402       0.33585279       0.99677415 </v>
   <v>       0.99909846       0.33732547       0.33365185 </v>
   <v>       0.99994691       0.33356416       0.66560993 </v>
   <v>       0.00005827       0.66746265       0.00001779 </v>
   <v>       0.99996020       0.66865772       0.33330981 </v>
   <v>       0.99970093       0.66697877       0.66691557 </v>
   <v>       0.33446870       0.99983123       0.99907921 </v>
   <v>       0.33636246       0.99840221       0.33589407 </v>
   <v>       0.33341781       0.00016708       0.66756861 </v>
   <v>       0.33491288       0.33569140       0.99717000 </v>
   <v>       0.33393095       0.33471505       0.33372445 </v>
   <v>       0.33334854       0.33356806       0.66470957 </v>
   <v>       0.33298739       0.66791951       0.00014493 </v>
   <v>       0.33353070       0.66685234       0.33320150 </v>
   <v>       0.33345087       0.66714715       0.66692586 </v>
   <v>       0.66689250       0.00049579       0.99987110 </v>
   <v>       0.66761739       0.00009374       0.33333843 </v>
   <v>       0.66680329       0.00028815       0.66628284 </v>
   <v>       0.66682092       0.33340322       0.99993371 </v>
   <v>       0.66641865       0.33354999       0.33286487 </v>
   <v>       0.66691660       0.33354140       0.66665712 </v>
   <v>       0.66654918       0.66658819       0.99974164 </v>
   <v>       0.66649739       0.66668417       0.33325917 </v>
   <v>       0.66640655       0.66697871       0.66639094 </v>
   <v>       0.16711001       0.16692950       0.49751251 </v>
   <v>       0.16612050       0.16802562       0.83293205 </v>
   <v>       0.16590461       0.50083480       0.16527188 </v>
   <v>       0.16637301       0.50077602       0.49855091 </v>
   <v>       0.16649797       0.50120423       0.83206374 </v>
   <v>       0.16700877       0.83615928       0.16734923 </v>
   <v>       0.16725928       0.83407263       0.50064654 </v>
   <v>       0.16654482       0.83461000       0.83384103 </v>
   <v>       0.49847284       0.16660976       0.16650604 </v>
   <v>       0.50062993       0.16636999       0.49984496 </v>
   <v>       0.49960954       0.16740845       0.83278975 </v>
   <v>       0.49929593       0.50019163       0.16603829 </v>
   <v>       0.50001261       0.49978387       0.49925971 </v>
   <v>       0.49986020       0.50119724       0.83205846 </v>
   <v>       0.50037543       0.83346974       0.16745579 </v>
   <v>       0.50099358       0.83247585       0.50092560 </v>
   <v>       0.50013824       0.83380108       0.83352236 </v>
   <v>       0.83450466       0.16808263       0.16601687 </v>
   <v>       0.83367440       0.16764176       0.49928653 </v>
   <v>       0.83290004       0.16695597       0.83244727 </v>
   <v>       0.83283541       0.50125206       0.16611150 </v>
   <v>       0.83279593       0.50128150       0.49960253 </v>
   <v>       0.83242094       0.50130071       0.83218591 </v>
   <v>       0.83356632       0.83476775       0.16656005 </v>
   <v>       0.83382521       0.83410808       0.50002400 </v>
   <v>       0.83288954       0.83395119       0.83290521 </v>
  </varray>
 </structure>
</modeling>
