       N       E                     dE             d eps       ncg     rms           ort
DAV:   1    -0.315258428237E+05   -0.31526E+05   -0.15043E+05   448   0.119E+03  
DAV:   2    -0.344388270588E+05   -0.29130E+04   -0.27723E+04   448   0.347E+02  
DAV:   3    -0.348057817595E+05   -0.36695E+03   -0.35883E+03   448   0.120E+02  
DAV:   4    -0.348496481234E+05   -0.43866E+02   -0.43380E+02   448   0.452E+01  
DAV:   5    -0.492230476872E+03    0.34357E+05   -0.16636E+02   448   0.402E+01  
SDA:   6    -0.271807634293E+03    0.22042E+03   -0.31929E+03   448   0.798E+03   0.000E+00
DMP:   7    -0.392411995611E+03   -0.12060E+03   -0.51051E+01   448   0.973E+02  -0.221E+03
DMP:   8    -0.389107435841E+03    0.33046E+01   -0.49262E+02   448   0.135E+03  -0.301E+02
DMP:   9    -0.415193820459E+03   -0.26086E+02   -0.62302E+01   448   0.120E+02   0.924E+01
DMP:  10    -0.416651437381E+03   -0.14576E+01   -0.51954E+01   448   0.160E+02  -0.783E+01
DMP:  11    -0.419822225351E+03   -0.31708E+01   -0.15281E+01   448   0.272E+01   0.288E+01
DMP:  12    -0.420262956805E+03   -0.44073E+00   -0.53332E+00   448   0.196E+01  -0.165E+01
DMP:  13    -0.420609867941E+03   -0.34691E+00   -0.33086E+00   448   0.675E+00   0.398E+00
DMP:  14    -0.420766872638E+03   -0.15700E+00   -0.81016E-01   448   0.218E+00  -0.417E-01
DMP:  15    -0.420825383890E+03   -0.58511E-01   -0.79182E-01   448   0.164E+00   0.896E-01
DMP:  16    -0.420882358135E+03   -0.56974E-01   -0.33604E-01   448   0.510E-01   0.865E-01
DMP:  17    -0.420909083960E+03   -0.26726E-01   -0.24170E-01   448   0.415E-01   0.494E-01
DMP:  18    -0.420930621814E+03   -0.21538E-01   -0.17704E-01   448   0.262E-01   0.472E-01
DMP:  19    -0.420946406889E+03   -0.15785E-01   -0.12313E-01   448   0.176E-01   0.345E-01
DMP:  20    -0.420958039703E+03   -0.11633E-01   -0.94803E-02   448   0.133E-01   0.272E-01
DMP:  21    -0.420967072561E+03   -0.90329E-02   -0.72383E-02   448   0.994E-02   0.214E-01
DMP:  22    -0.420974046649E+03   -0.69741E-02   -0.57577E-02   448   0.801E-02   0.167E-01
DMP:  23    -0.420979635399E+03   -0.55888E-02   -0.47019E-02   448   0.660E-02   0.135E-01
DMP:  24    -0.420984213720E+03   -0.45783E-02   -0.38615E-02   448   0.542E-02   0.111E-01
DMP:  25    -0.420987984856E+03   -0.37711E-02   -0.31872E-02   448   0.447E-02   0.915E-02
DMP:  26    -0.420991099238E+03   -0.31144E-02   -0.26650E-02   448   0.377E-02   0.756E-02
DMP:  27    -0.420993675003E+03   -0.25758E-02   -0.23365E-02   448   0.348E-02   0.618E-02
DMP:  28    -0.420995787850E+03   -0.21128E-02   -0.23508E-02   448   0.408E-02   0.469E-02
DMP:  29    -0.420997453111E+03   -0.16653E-02   -0.29834E-02   448   0.653E-02   0.242E-02
DMP:  30    -0.420998654899E+03   -0.12018E-02   -0.44796E-02   448   0.118E-01  -0.147E-02
DMP:  31    -0.420999443219E+03   -0.78832E-03   -0.67458E-02   448   0.196E-01  -0.728E-02
DMP:  32    -0.420999939367E+03   -0.49615E-03   -0.94089E-02   448   0.290E-01  -0.144E-01
DMP:  33    -0.421000391108E+03   -0.45174E-03   -0.11330E-01   448   0.365E-01  -0.213E-01
DMP:  34    -0.421001369699E+03   -0.97859E-03   -0.10432E-01   448   0.350E-01  -0.234E-01
DMP:  35    -0.421003038567E+03   -0.16689E-02   -0.74159E-02   448   0.253E-01  -0.177E-01
DMP:  36    -0.421004611539E+03   -0.15730E-02   -0.50411E-02   448   0.167E-01  -0.107E-01
DMP:  37    -0.421005932629E+03   -0.13211E-02   -0.31168E-02   448   0.101E-01  -0.601E-02
DMP:  38    -0.421007293507E+03   -0.13609E-02   -0.13281E-02   448   0.370E-02  -0.100E-02
DMP:  39    -0.421008292115E+03   -0.99861E-03   -0.83256E-03   448   0.145E-02   0.166E-02
DMP:  40    -0.421009068210E+03   -0.77610E-03   -0.88217E-03   448   0.152E-02   0.179E-02
DMP:  41    -0.421009866208E+03   -0.79800E-03   -0.84323E-03   448   0.143E-02   0.177E-02
DMP:  42    -0.421010680170E+03   -0.81396E-03   -0.83674E-03   448   0.135E-02   0.195E-02
DMP:  43    -0.421011507748E+03   -0.82758E-03   -0.86264E-03   448   0.138E-02   0.203E-02
DMP:  44    -0.421012360504E+03   -0.85276E-03   -0.88857E-03   448   0.142E-02   0.209E-02
DMP:  45    -0.421013241180E+03   -0.88068E-03   -0.89949E-03   448   0.142E-02   0.217E-02
DMP:  46    -0.421014132416E+03   -0.89124E-03   -0.92022E-03   448   0.146E-02   0.219E-02
DMP:  47    -0.421015042956E+03   -0.91054E-03   -0.91148E-03   448   0.142E-02   0.224E-02
DMP:  48    -0.421015941712E+03   -0.89876E-03   -0.92473E-03   448   0.147E-02   0.220E-02
DMP:  49    -0.421016845096E+03   -0.90338E-03   -0.90780E-03   448   0.143E-02   0.219E-02
DMP:  50    -0.421017701304E+03   -0.85621E-03   -0.96578E-03   448   0.165E-02   0.200E-02
DMP:  51    -0.421018518063E+03   -0.81676E-03   -0.11144E-02   448   0.216E-02   0.165E-02
DMP:  52    -0.421019222032E+03   -0.70397E-03   -0.15241E-02   448   0.353E-02   0.724E-03
DMP:  53    -0.421019839993E+03   -0.61796E-03   -0.21104E-02   448   0.556E-02  -0.746E-03
DMP:  54    -0.421020350673E+03   -0.51068E-03   -0.29055E-02   448   0.830E-02  -0.272E-02
DMP:  55    -0.421020747798E+03   -0.39712E-03   -0.43819E-02   448   0.130E-01  -0.532E-02
DMP:  56    -0.421020476491E+03    0.27131E-03   -0.85507E-02   448   0.261E-01  -0.123E-01
DMP:  57    -0.421019486606E+03    0.98989E-03   -0.15732E-01   448   0.494E-01  -0.264E-01
DMP:  58    -0.421017309127E+03    0.21775E-02   -0.26068E-01   448   0.843E-01  -0.501E-01
DMP:  59    -0.421015523855E+03    0.17853E-02   -0.35625E-01   448   0.117E+00  -0.743E-01
DMP:  60    -0.421012956925E+03    0.25669E-02   -0.45041E-01   448   0.151E+00  -0.102E+00
DMP:  61    -0.421013045156E+03   -0.88230E-04   -0.45649E-01   448   0.157E+00  -0.112E+00
DMP:  62    -0.421013924046E+03   -0.87889E-03   -0.39765E-01   448   0.141E+00  -0.109E+00
DMP:  63    -0.421018248803E+03   -0.43248E-02   -0.25803E-01   448   0.943E-01  -0.780E-01
DMP:  64    -0.421021090507E+03   -0.28417E-02   -0.16198E-01   448   0.596E-01  -0.501E-01
DMP:  65    -0.421023744208E+03   -0.26537E-02   -0.92107E-02   448   0.335E-01  -0.274E-01
DMP:  66    -0.421024915796E+03   -0.11716E-02   -0.59284E-02   448   0.213E-01  -0.171E-01
DMP:  67    -0.421026008477E+03   -0.10927E-02   -0.37653E-02   448   0.130E-01  -0.945E-02
DMP:  68    -0.421026430146E+03   -0.42167E-03   -0.30501E-02   448   0.104E-01  -0.725E-02
DMP:  69    -0.421027066678E+03   -0.63653E-03   -0.18317E-02   448   0.629E-02  -0.449E-02
DMP:  70    -0.421027521743E+03   -0.45506E-03   -0.10756E-02   448   0.356E-02  -0.229E-02
DMP:  71    -0.421027940129E+03   -0.41839E-03   -0.56360E-03   448   0.165E-02  -0.620E-03
DMP:  72    -0.421028226140E+03   -0.28601E-03   -0.38590E-03   448   0.957E-03   0.209E-04
DMP:  73    -0.421028486884E+03   -0.26074E-03   -0.27345E-03   448   0.558E-03   0.329E-03
DMP:  74    -0.421028715696E+03   -0.22881E-03   -0.22811E-03   448   0.396E-03   0.455E-03
DMP:  75    -0.421028929305E+03   -0.21361E-03   -0.21098E-03   448   0.340E-03   0.490E-03
DMP:  76    -0.421029133212E+03   -0.20391E-03   -0.20531E-03   448   0.328E-03   0.486E-03
DMP:  77    -0.421029334387E+03   -0.20118E-03   -0.20033E-03   448   0.315E-03   0.486E-03
DMP:  78    -0.421029531973E+03   -0.19759E-03   -0.19975E-03   448   0.316E-03   0.481E-03
DMP:  79    -0.421029729827E+03   -0.19785E-03   -0.19801E-03   448   0.311E-03   0.483E-03
DMP:  80    -0.421029925513E+03   -0.19569E-03   -0.19943E-03   448   0.317E-03   0.476E-03
DMP:  81    -0.421030118821E+03   -0.19331E-03   -0.21184E-03   448   0.354E-03   0.461E-03
DMP:  82    -0.421030302078E+03   -0.18326E-03   -0.28051E-03   448   0.556E-03   0.379E-03
DMP:  83    -0.421030444015E+03   -0.14194E-03   -0.56524E-03   448   0.141E-02   0.103E-05
DMP:  84    -0.421030464407E+03   -0.20392E-04   -0.14319E-02   448   0.408E-02  -0.132E-02
DMP:  85    -0.421030218615E+03    0.24579E-03   -0.34414E-02   448   0.104E-01  -0.482E-02
DMP:  86    -0.421029558796E+03    0.65982E-03   -0.73010E-02   448   0.228E-01  -0.119E-01
DMP:  87    -0.421028041321E+03    0.15175E-02   -0.15306E-01   448   0.481E-01  -0.258E-01
DMP:  88    -0.421024507079E+03    0.35342E-02   -0.32865E-01   448   0.104E+00  -0.559E-01
DMP:  89    -0.421017167395E+03    0.73397E-02   -0.65071E-01   448   0.208E+00  -0.119E+00
DMP:  90    -0.421007229552E+03    0.99378E-02   -0.10204E+00   448   0.336E+00  -0.212E+00
DMP:  91    -0.421001061559E+03    0.61680E-02   -0.11601E+00   448   0.399E+00  -0.286E+00
DMP:  92    -0.421005011469E+03   -0.39499E-02   -0.93496E-01   448   0.337E+00  -0.270E+00
DMP:  93    -0.421013608822E+03   -0.85974E-02   -0.63585E-01   448   0.232E+00  -0.191E+00
DMP:  94    -0.421018942148E+03   -0.53333E-02   -0.43819E-01   448   0.160E+00  -0.132E+00
DMP:  95    -0.421025070855E+03   -0.61287E-02   -0.21312E-01   448   0.834E-01  -0.789E-01
DMP:  96    -0.421029377869E+03   -0.43070E-02   -0.91346E-02   448   0.349E-01  -0.317E-01
DMP:  97    -0.421030274282E+03   -0.89641E-03   -0.74700E-02   448   0.257E-01  -0.184E-01
DMP:  98    -0.421030810581E+03   -0.53630E-03   -0.50896E-02   448   0.188E-01  -0.160E-01
DMP:  99    -0.421031668661E+03   -0.85808E-03   -0.27213E-02   448   0.100E-01  -0.847E-02
DMP: 100    -0.421032033460E+03   -0.36480E-03   -0.16665E-02   448   0.606E-02  -0.497E-02
   1 F= -.42103203E+03 E0= -.42103203E+03  d E =-.421032E+03
       N       E                     dE             d eps       ncg     rms           ort
SDA:   1    -0.355877068989E+03    0.65155E+02   -0.11968E+03   448   0.299E+03   0.000E+00
DMP:   2    -0.408871079298E+03   -0.52994E+02   -0.71761E+01   448   0.317E+02  -0.359E+02
DMP:   3    -0.409981480546E+03   -0.11104E+01   -0.14338E+02   448   0.406E+02  -0.124E+02
DMP:   4    -0.417965022007E+03   -0.79835E+01   -0.24320E+01   448   0.446E+01   0.424E+01
DMP:   5    -0.418511196776E+03   -0.54617E+00   -0.13172E+01   448   0.456E+01  -0.333E+01
DMP:   6    -0.419297090882E+03   -0.78589E+00   -0.64593E+00   448   0.137E+01   0.640E+00
DMP:   7    -0.419530370453E+03   -0.23328E+00   -0.11835E+00   448   0.466E+00  -0.446E+00
DMP:   8    -0.419587653839E+03   -0.57283E-01   -0.99155E-01   448   0.251E+00  -0.900E-02
DMP:   9    -0.419639898574E+03   -0.52245E-01   -0.22193E-01   448   0.507E-01   0.124E-01
DMP:  10    -0.419648269571E+03   -0.83710E-02   -0.10318E-01   448   0.312E-01  -0.140E-01
DMP:  11    -0.419653462269E+03   -0.51927E-02   -0.49932E-02   448   0.123E-01   0.404E-03
DMP:  12    -0.419655845049E+03   -0.23828E-02   -0.15522E-02   448   0.399E-02  -0.281E-03
DMP:  13    -0.419656604378E+03   -0.75933E-03   -0.70797E-03   448   0.178E-02  -0.289E-04
DMP:  14    -0.419657021326E+03   -0.41695E-03   -0.30455E-03   448   0.664E-03   0.255E-03
DMP:  15    -0.419657204020E+03   -0.18269E-03   -0.13004E-03   448   0.279E-03   0.120E-03
DMP:  16    -0.419657280145E+03   -0.76124E-04   -0.66818E-04   448   0.140E-03   0.698E-04
DMP:  17    -0.419657320724E+03   -0.40579E-04   -0.36454E-04   448   0.678E-04   0.612E-04
DMP:  18    -0.419657344859E+03   -0.24134E-04   -0.20962E-04   448   0.361E-04   0.426E-04
DMP:  19    -0.419657360947E+03   -0.16088E-04   -0.13410E-04   448   0.219E-04   0.303E-04
DMP:  20    -0.419657371677E+03   -0.10730E-04   -0.91902E-05   448   0.149E-04   0.210E-04
DMP:  21    -0.419657378626E+03   -0.69493E-05   -0.64415E-05   448   0.106E-04   0.144E-04
DMP:  22    -0.419657383143E+03   -0.45167E-05   -0.47606E-05   448   0.824E-05   0.959E-05
DMP:  23    -0.419657386377E+03   -0.32346E-05   -0.35358E-05   448   0.637E-05   0.645E-05
DMP:  24    -0.419657388644E+03   -0.22670E-05   -0.28345E-05   448   0.559E-05   0.391E-05
DMP:  25    -0.419657390305E+03   -0.16602E-05   -0.23225E-05   448   0.494E-05   0.227E-05
DMP:  26    -0.419657391409E+03   -0.11045E-05   -0.21459E-05   448   0.511E-05   0.662E-06
DMP:  27    -0.419657392263E+03   -0.85356E-06   -0.18661E-05   448   0.479E-05  -0.324E-06
DMP:  28    -0.419657392921E+03   -0.65875E-06   -0.15873E-05   448   0.427E-05  -0.786E-06
DMP:  29    -0.419657393437E+03   -0.51517E-06   -0.13877E-05   448   0.383E-05  -0.939E-06
DMP:  30    -0.419657393815E+03   -0.37876E-06   -0.13949E-05   448   0.396E-05  -0.124E-05
DMP:  31    -0.419657394020E+03   -0.20449E-06   -0.17179E-05   448   0.512E-05  -0.216E-05
DMP:  32    -0.419657394195E+03   -0.17559E-06   -0.19858E-05   448   0.619E-05  -0.321E-05
DMP:  33    -0.419657394308E+03   -0.11257E-06   -0.21029E-05   448   0.686E-05  -0.419E-05
DMP:  34    -0.419657394615E+03   -0.30682E-06   -0.15930E-05   448   0.536E-05  -0.360E-05
DMP:  35    -0.419657394880E+03   -0.26493E-06   -0.10254E-05   448   0.352E-05  -0.251E-05
DMP:  36    -0.419657395190E+03   -0.31072E-06   -0.49247E-06   448   0.158E-05  -0.916E-06
DMP:  37    -0.419657395359E+03   -0.16808E-06   -0.33562E-06   448   0.948E-06  -0.286E-06
DMP:  38    -0.419657395483E+03   -0.12465E-06   -0.29395E-06   448   0.787E-06  -0.135E-06
DMP:  39    -0.419657395592E+03   -0.10893E-06   -0.25427E-06   448   0.680E-06  -0.116E-06
DMP:  40    -0.419657395690E+03   -0.97754E-07   -0.23274E-06   448   0.611E-06  -0.766E-07
DMP:  41    -0.419657395775E+03   -0.85254E-07   -0.25069E-06   448   0.665E-06  -0.990E-07
DMP:  42    -0.419657395823E+03   -0.47998E-07   -0.34136E-06   448   0.977E-06  -0.324E-06
DMP:  43    -0.419657395880E+03   -0.57042E-07   -0.41119E-06   448   0.123E-05  -0.524E-06
DMP:  44    -0.419657395896E+03   -0.15845E-07   -0.55118E-06   448   0.172E-05  -0.893E-06
DMP:  45    -0.419657395943E+03   -0.47283E-07   -0.64898E-06   448   0.205E-05  -0.111E-05
DMP:  46    -0.419657395908E+03    0.35343E-07   -0.93262E-06   448   0.300E-05  -0.174E-05
DMP:  47    -0.419657395928E+03   -0.20107E-07   -0.11621E-05   448   0.375E-05  -0.222E-05
DMP:  48    -0.419657395804E+03    0.12370E-06   -0.17040E-05   448   0.559E-05  -0.347E-05
DMP:  49    -0.419657395810E+03   -0.52041E-08   -0.19796E-05   448   0.657E-05  -0.423E-05
DMP:  50    -0.419657395669E+03    0.14011E-06   -0.24119E-05   448   0.817E-05  -0.559E-05
DMP:  51    -0.419657395800E+03   -0.13045E-06   -0.21724E-05   448   0.749E-05  -0.539E-05
DMP:  52    -0.419657395800E+03   -0.39472E-09   -0.20086E-05   448   0.707E-05  -0.537E-05
DMP:  53    -0.419657396051E+03   -0.25021E-06   -0.13408E-05   448   0.480E-05  -0.378E-05
DMP:  54    -0.419657396123E+03   -0.72385E-07   -0.10316E-05   448   0.370E-05  -0.295E-05
DMP:  55    -0.419657396293E+03   -0.16992E-06   -0.59112E-06   448   0.214E-05  -0.173E-05
DMP:  56    -0.419657396353E+03   -0.60591E-07   -0.39864E-06   448   0.143E-05  -0.114E-05
DMP:  57    -0.419657396440E+03   -0.86249E-07   -0.20275E-06   448   0.721E-06  -0.560E-06
DMP:  58    -0.419657396477E+03   -0.36904E-07   -0.12283E-06   448   0.421E-06  -0.297E-06
DMP:  59    -0.419657396515E+03   -0.38805E-07   -0.60475E-07   448   0.190E-06  -0.102E-06
   2 F= -.41965740E+03 E0= -.41965740E+03  d E =0.137464E+01
       N       E                     dE             d eps       ncg     rms           ort
SDA:   1    -0.399206322429E+03    0.20451E+02   -0.41779E+02   448   0.104E+03   0.000E+00
DMP:   2    -0.418663628350E+03   -0.19457E+02   -0.28241E+01   448   0.964E+01  -0.677E+01
DMP:   3    -0.419205615607E+03   -0.54199E+00   -0.50979E+01   448   0.144E+02  -0.434E+01
DMP:   4    -0.421548187298E+03   -0.23426E+01   -0.56163E+00   448   0.180E+01  -0.105E+01
DMP:   5    -0.421689010525E+03   -0.14082E+00   -0.61010E+00   448   0.179E+01  -0.700E+00
DMP:   6    -0.422026821825E+03   -0.33781E+00   -0.13715E+00   448   0.281E+00   0.162E+00
DMP:   7    -0.422072828566E+03   -0.46007E-01   -0.68279E-01   448   0.214E+00  -0.115E+00
DMP:   8    -0.422111735616E+03   -0.38907E-01   -0.30595E-01   448   0.673E-01   0.241E-01
DMP:   9    -0.422124219612E+03   -0.12484E-01   -0.87701E-02   448   0.271E-01  -0.134E-01
DMP:  10    -0.422129188015E+03   -0.49684E-02   -0.49171E-02   448   0.112E-01   0.282E-02
DMP:  11    -0.422131917787E+03   -0.27298E-02   -0.15542E-02   448   0.348E-02   0.106E-02
DMP:  12    -0.422132857862E+03   -0.94008E-03   -0.89298E-03   448   0.197E-02   0.691E-03
DMP:  13    -0.422133419778E+03   -0.56192E-03   -0.39958E-03   448   0.769E-03   0.601E-03
DMP:  14    -0.422133695119E+03   -0.27534E-03   -0.21711E-03   448   0.390E-03   0.400E-03
DMP:  15    -0.422133868294E+03   -0.17318E-03   -0.12344E-03   448   0.194E-03   0.301E-03
DMP:  16    -0.422133978514E+03   -0.11022E-03   -0.83447E-04   448   0.128E-03   0.211E-03
DMP:  17    -0.422134056341E+03   -0.77827E-04   -0.58624E-04   448   0.846E-04   0.162E-03
DMP:  18    -0.422134111105E+03   -0.54764E-04   -0.42259E-04   448   0.600E-04   0.119E-03
DMP:  19    -0.422134151924E+03   -0.40819E-04   -0.32056E-04   448   0.449E-04   0.922E-04
DMP:  20    -0.422134183581E+03   -0.31657E-04   -0.24730E-04   448   0.346E-04   0.712E-04
DMP:  21    -0.422134208461E+03   -0.24880E-04   -0.19735E-04   448   0.280E-04   0.560E-04
DMP:  22    -0.422134228429E+03   -0.19969E-04   -0.16193E-04   448   0.233E-04   0.451E-04
DMP:  23    -0.422134244870E+03   -0.16440E-04   -0.13439E-04   448   0.194E-04   0.373E-04
DMP:  24    -0.422134258628E+03   -0.13758E-04   -0.11269E-04   448   0.162E-04   0.312E-04
DMP:  25    -0.422134270259E+03   -0.11632E-04   -0.95895E-05   448   0.139E-04   0.264E-04
DMP:  26    -0.422134280215E+03   -0.99563E-05   -0.82592E-05   448   0.120E-04   0.226E-04
DMP:  27    -0.422134288826E+03   -0.86108E-05   -0.71451E-05   448   0.104E-04   0.196E-04
DMP:  28    -0.422134296302E+03   -0.74760E-05   -0.62238E-05   448   0.906E-05   0.170E-04
DMP:  29    -0.422134302836E+03   -0.65343E-05   -0.54975E-05   448   0.806E-05   0.149E-04
DMP:  30    -0.422134308626E+03   -0.57895E-05   -0.49270E-05   448   0.729E-05   0.132E-04
DMP:  31    -0.422134313828E+03   -0.52022E-05   -0.44761E-05   448   0.667E-05   0.118E-04
DMP:  32    -0.422134318565E+03   -0.47368E-05   -0.41172E-05   448   0.618E-05   0.108E-04
DMP:  33    -0.422134322932E+03   -0.43675E-05   -0.38302E-05   448   0.579E-05   0.991E-05
DMP:  34    -0.422134327003E+03   -0.40709E-05   -0.36252E-05   448   0.554E-05   0.923E-05
DMP:  35    -0.422134330866E+03   -0.38627E-05   -0.34631E-05   448   0.532E-05   0.873E-05
DMP:  36    -0.422134334555E+03   -0.36894E-05   -0.33426E-05   448   0.518E-05   0.832E-05
DMP:  37    -0.422134338120E+03   -0.35642E-05   -0.32395E-05   448   0.506E-05   0.796E-05
DMP:  38    -0.422134341516E+03   -0.33966E-05   -0.32600E-05   448   0.529E-05   0.748E-05
DMP:  39    -0.422134344826E+03   -0.33096E-05   -0.34800E-05   448   0.610E-05   0.682E-05
DMP:  40    -0.422134347763E+03   -0.29366E-05   -0.46542E-05   448   0.983E-05   0.473E-05
DMP:  41    -0.422134350362E+03   -0.25990E-05   -0.82925E-05   448   0.209E-04  -0.502E-06
DMP:  42    -0.422134350371E+03   -0.94406E-08   -0.22422E-04   448   0.642E-04  -0.214E-04
DMP:  43    -0.422134346576E+03    0.37955E-05   -0.57927E-04   448   0.174E-03  -0.777E-04
DMP:  44    -0.422134330638E+03    0.15938E-04   -0.13753E-03   448   0.429E-03  -0.224E-03
DMP:  45    -0.422134305839E+03    0.24798E-04   -0.26836E-03   448   0.851E-03  -0.472E-03
DMP:  46    -0.422134246921E+03    0.58919E-04   -0.58953E-03   448   0.184E-02  -0.963E-03
DMP:  47    -0.422134037711E+03    0.20921E-03   -0.18161E-02   448   0.550E-02  -0.252E-02
DMP:  48    -0.422133280510E+03    0.75720E-03   -0.58839E-02   448   0.179E-01  -0.833E-02
DMP:  49    -0.422131105901E+03    0.21746E-02   -0.16064E-01   448   0.499E-01  -0.256E-01
DMP:  50    -0.422127196179E+03    0.39097E-02   -0.32689E-01   448   0.105E+00  -0.597E-01
DMP:  51    -0.422122274263E+03    0.49219E-02   -0.49206E-01   448   0.164E+00  -0.106E+00
DMP:  52    -0.422120630723E+03    0.16435E-02   -0.51699E-01   448   0.179E+00  -0.131E+00
DMP:  53    -0.422122518106E+03   -0.18874E-02   -0.42048E-01   448   0.151E+00  -0.120E+00
DMP:  54    -0.422125014502E+03   -0.24964E-02   -0.34510E-01   448   0.122E+00  -0.925E-01
DMP:  55    -0.422125893599E+03   -0.87910E-03   -0.32824E-01   448   0.113E+00  -0.820E-01
DMP:  56    -0.422125848190E+03    0.45409E-04   -0.29922E-01   448   0.106E+00  -0.822E-01
DMP:  57    -0.422128932472E+03   -0.30843E-02   -0.18236E-01   448   0.683E-01  -0.595E-01
DMP:  58    -0.422131562465E+03   -0.26300E-02   -0.81017E-02   448   0.326E-01  -0.323E-01
DMP:  59    -0.422133555817E+03   -0.19934E-02   -0.25812E-02   448   0.104E-01  -0.103E-01
DMP:  60    -0.422133933619E+03   -0.37780E-03   -0.14750E-02   448   0.542E-02  -0.454E-02
DMP:  61    -0.422134082196E+03   -0.14858E-03   -0.10923E-02   448   0.386E-02  -0.295E-02
DMP:  62    -0.422134115504E+03   -0.33309E-04   -0.97644E-03   448   0.342E-02  -0.257E-02
DMP:  63    -0.422134185858E+03   -0.70354E-04   -0.70023E-03   448   0.255E-02  -0.209E-02
DMP:  64    -0.422134257374E+03   -0.71516E-04   -0.41737E-03   448   0.158E-02  -0.139E-02
DMP:  65    -0.422134321961E+03   -0.64587E-04   -0.21393E-03   448   0.810E-03  -0.722E-03
DMP:  66    -0.422134349017E+03   -0.27056E-04   -0.12286E-03   448   0.460E-03  -0.399E-03
DMP:  67    -0.422134362386E+03   -0.13369E-04   -0.74884E-04   448   0.279E-03  -0.241E-03
DMP:  68    -0.422134374428E+03   -0.12042E-04   -0.34717E-04   448   0.135E-03  -0.127E-03
DMP:  69    -0.422134381131E+03   -0.67034E-05   -0.12430E-04   448   0.517E-04  -0.540E-04
DMP:  70    -0.422134384877E+03   -0.37456E-05   -0.27076E-05   448   0.115E-04  -0.124E-04
DMP:  71    -0.422134385560E+03   -0.68305E-06   -0.28804E-05   448   0.868E-05  -0.387E-05
DMP:  72    -0.422134385583E+03   -0.23379E-07   -0.40410E-05   448   0.129E-04  -0.735E-05
DMP:  73    -0.422134385387E+03    0.19619E-06   -0.63057E-05   448   0.201E-04  -0.113E-04
DMP:  74    -0.422134384956E+03    0.43073E-06   -0.10939E-04   448   0.344E-04  -0.184E-04
DMP:  75    -0.422134382396E+03    0.25603E-05   -0.22300E-04   448   0.711E-04  -0.401E-04
DMP:  76    -0.422134379927E+03    0.24691E-05   -0.36755E-04   448   0.118E-03  -0.689E-04
DMP:  77    -0.422134373373E+03    0.65539E-05   -0.60306E-04   448   0.198E-03  -0.124E-03
DMP:  78    -0.422134371149E+03    0.22237E-05   -0.69459E-04   448   0.236E-03  -0.163E-03
DMP:  79    -0.422134369985E+03    0.11642E-05   -0.63791E-04   448   0.228E-03  -0.179E-03
DMP:  80    -0.422134378508E+03   -0.85230E-05   -0.34225E-04   448   0.131E-03  -0.118E-03
DMP:  81    -0.422134383895E+03   -0.53873E-05   -0.13570E-04   448   0.562E-04  -0.583E-04
DMP:  82    -0.422134388165E+03   -0.42693E-05   -0.22579E-05   448   0.107E-04  -0.132E-04
DMP:  83    -0.422134388956E+03   -0.79090E-06   -0.68893E-06   448   0.238E-05  -0.171E-05
DMP:  84    -0.422134389178E+03   -0.22222E-06   -0.69238E-06   448   0.209E-05  -0.932E-06
DMP:  85    -0.422134389326E+03   -0.14852E-06   -0.74566E-06   448   0.231E-05  -0.116E-05
DMP:  86    -0.422134389484E+03   -0.15762E-06   -0.77131E-06   448   0.242E-05  -0.130E-05
DMP:  87    -0.422134389669E+03   -0.18459E-06   -0.74108E-06   448   0.232E-05  -0.123E-05
DMP:  88    -0.422134389802E+03   -0.13329E-06   -0.81400E-06   448   0.256E-05  -0.138E-05
DMP:  89    -0.422134389983E+03   -0.18136E-06   -0.82655E-06   448   0.259E-05  -0.138E-05
DMP:  90    -0.422134390076E+03   -0.92674E-07   -0.98900E-06   448   0.315E-05  -0.177E-05
DMP:  91    -0.422134390253E+03   -0.17739E-06   -0.10269E-05   448   0.328E-05  -0.186E-05
DMP:  92    -0.422134390309E+03   -0.55761E-07   -0.12579E-05   448   0.407E-05  -0.243E-05
DMP:  93    -0.422134390475E+03   -0.16580E-06   -0.13472E-05   448   0.436E-05  -0.259E-05
DMP:  94    -0.422134390474E+03    0.92041E-09   -0.18042E-05   448   0.585E-05  -0.350E-05
DMP:  95    -0.422134390501E+03   -0.27127E-07   -0.24715E-05   448   0.795E-05  -0.463E-05
DMP:  96    -0.422134390294E+03    0.20661E-06   -0.38313E-05   448   0.124E-04  -0.737E-05
DMP:  97    -0.422134389962E+03    0.33284E-06   -0.57770E-05   448   0.188E-04  -0.114E-04
DMP:  98    -0.422134389414E+03    0.54778E-06   -0.95875E-05   448   0.307E-04  -0.175E-04
DMP:  99    -0.422134387020E+03    0.23942E-05   -0.22507E-04   448   0.699E-04  -0.358E-04
DMP: 100    -0.422134380784E+03    0.62353E-05   -0.55201E-04   448   0.172E-03  -0.882E-04
   3 F= -.42213438E+03 E0= -.42213438E+03  d E =-.110235E+01
       N       E                     dE             d eps       ncg     rms           ort
SDA:   1    -0.422130592158E+03    0.37949E-02   -0.97135E-02   448   0.243E-01   0.000E+00
DMP:   2    -0.422133853677E+03   -0.32615E-02   -0.85023E-03   448   0.491E-02  -0.729E-02
DMP:   3    -0.422134284610E+03   -0.43093E-03   -0.11072E-02   448   0.274E-02   0.605E-04
DMP:   4    -0.422134766697E+03   -0.48209E-03   -0.15948E-03   448   0.606E-03  -0.543E-03
DMP:   5    -0.422134836543E+03   -0.69846E-04   -0.15943E-03   448   0.430E-03  -0.833E-04
DMP:   6    -0.422134878623E+03   -0.42080E-04   -0.30560E-04   448   0.126E-03  -0.129E-03
DMP:   7    -0.422134893008E+03   -0.14385E-04   -0.20349E-04   448   0.520E-04  -0.286E-05
DMP:   8    -0.422134904506E+03   -0.11498E-04   -0.47347E-05   448   0.161E-04  -0.113E-04
DMP:   9    -0.422134906554E+03   -0.20476E-05   -0.29286E-05   448   0.818E-05  -0.224E-05
DMP:  10    -0.422134905893E+03    0.66120E-06   -0.90191E-06   448   0.321E-05  -0.250E-05
DMP:  11    -0.422134905952E+03   -0.59348E-07   -0.69707E-06   448   0.205E-05  -0.804E-06
DMP:  12    -0.422134906482E+03   -0.53038E-06   -0.63475E-06   448   0.200E-05  -0.109E-05
DMP:  13    -0.422134906510E+03   -0.27647E-07   -0.10051E-05   448   0.322E-05  -0.184E-05
DMP:  14    -0.422134906315E+03    0.19477E-06   -0.15085E-05   448   0.486E-05  -0.284E-05
DMP:  15    -0.422134905969E+03    0.34668E-06   -0.27067E-05   448   0.878E-05  -0.528E-05
DMP:  16    -0.422134905782E+03    0.18644E-06   -0.39267E-05   448   0.128E-04  -0.789E-05
DMP:  17    -0.422134905185E+03    0.59681E-06   -0.59124E-05   448   0.197E-04  -0.128E-04
DMP:  18    -0.422134905034E+03    0.15131E-06   -0.65870E-05   448   0.224E-04  -0.155E-04
DMP:  19    -0.422134904784E+03    0.25009E-06   -0.67780E-05   448   0.237E-04  -0.176E-04
DMP:  20    -0.422134905156E+03   -0.37197E-06   -0.59019E-05   448   0.205E-04  -0.152E-04
DMP:  21    -0.422134904981E+03    0.17544E-06   -0.70031E-05   448   0.235E-04  -0.156E-04
DMP:  22    -0.422134904112E+03    0.86848E-06   -0.11389E-04   448   0.368E-04  -0.219E-04
DMP:  23    -0.422134902454E+03    0.16585E-05   -0.18802E-04   448   0.610E-04  -0.368E-04
DMP:  24    -0.422134899905E+03    0.25486E-05   -0.27572E-04   448   0.917E-04  -0.597E-04
DMP:  25    -0.422134899055E+03    0.85034E-06   -0.29460E-04   448   0.102E-03  -0.732E-04
DMP:  26    -0.422134899767E+03   -0.71188E-06   -0.24066E-04   448   0.869E-04  -0.701E-04
DMP:  27    -0.422134902242E+03   -0.24753E-05   -0.15554E-04   448   0.571E-04  -0.478E-04
DMP:  28    -0.422134903747E+03   -0.15056E-05   -0.10788E-04   448   0.390E-04  -0.314E-04
DMP:  29    -0.422134904009E+03   -0.26122E-06   -0.94019E-05   448   0.333E-04  -0.255E-04
DMP:  30    -0.422134904818E+03   -0.80897E-06   -0.70394E-05   448   0.251E-04  -0.196E-04
DMP:  31    -0.422134904935E+03   -0.11778E-06   -0.57228E-05   448   0.208E-04  -0.169E-04
DMP:  32    -0.422134905731E+03   -0.79520E-06   -0.32719E-05   448   0.122E-04  -0.104E-04
DMP:  33    -0.422134905949E+03   -0.21879E-06   -0.21370E-05   448   0.801E-05  -0.700E-05
DMP:  34    -0.422134906330E+03   -0.38021E-06   -0.98336E-06   448   0.380E-05  -0.350E-05
DMP:  35    -0.422134906434E+03   -0.10399E-06   -0.52194E-06   448   0.203E-05  -0.189E-05
DMP:  36    -0.422134906548E+03   -0.11412E-06   -0.18833E-06   448   0.762E-06  -0.762E-06
DMP:  37    -0.422134906575E+03   -0.26963E-07   -0.76824E-07   448   0.313E-06  -0.318E-06
   4 F= -.42213491E+03 E0= -.42213491E+03  d E =-.110287E+01
       N       E                     dE             d eps       ncg     rms           ort
SDA:   1    -0.422134891409E+03    0.15138E-04   -0.53741E-04   448   0.134E-03   0.000E+00
DMP:   2    -0.422134899877E+03   -0.84673E-05   -0.47902E-05   448   0.274E-04  -0.403E-04
DMP:   3    -0.422134901847E+03   -0.19705E-05   -0.61204E-05   448   0.152E-04   0.239E-06
DMP:   4    -0.422134907072E+03   -0.52252E-05   -0.89152E-06   448   0.337E-05  -0.300E-05
DMP:   5    -0.422134907921E+03   -0.84885E-06   -0.88314E-06   448   0.238E-05  -0.457E-06
DMP:   6    -0.422134907327E+03    0.59407E-06   -0.17566E-06   448   0.715E-06  -0.723E-06
DMP:   7    -0.422134907382E+03   -0.54744E-07   -0.11537E-06   448   0.297E-06  -0.236E-07
DMP:   8    -0.422134907690E+03   -0.30784E-06   -0.27961E-07   448   0.955E-07  -0.671E-07
DMP:   9    -0.422134907706E+03   -0.16589E-07   -0.16748E-07   448   0.472E-07  -0.140E-07
   5 F= -.42213491E+03 E0= -.42213491E+03  d E =-.110287E+01
       N       E                     dE             d eps       ncg     rms           ort
SDA:   1    -0.422124053384E+03    0.10854E-01   -0.10185E-01   448   0.255E-01   0.000E+00
DMP:   2    -0.422131559564E+03   -0.75062E-02   -0.45519E-02   448   0.676E-02   0.121E-01
DMP:   3    -0.422134448645E+03   -0.28891E-02   -0.10425E-02   448   0.143E-02   0.307E-02
DMP:   4    -0.422135012894E+03   -0.56425E-03   -0.22728E-03   448   0.488E-03   0.209E-03
DMP:   5    -0.422135115238E+03   -0.10234E-03   -0.93466E-04   448   0.255E-03  -0.566E-04
DMP:   6    -0.422135167200E+03   -0.51963E-04   -0.55766E-04   448   0.129E-03   0.281E-04
DMP:   7    -0.422135203273E+03   -0.36072E-04   -0.27846E-04   448   0.540E-04   0.408E-04
DMP:   8    -0.422135221088E+03   -0.17815E-04   -0.10228E-04   448   0.183E-04   0.191E-04
DMP:   9    -0.422135226982E+03   -0.58941E-05   -0.35093E-05   448   0.718E-05   0.417E-05
DMP:  10    -0.422135228641E+03   -0.16590E-05   -0.16342E-05   448   0.413E-05  -0.124E-06
DMP:  11    -0.422135229343E+03   -0.70189E-06   -0.92677E-06   448   0.252E-05  -0.526E-06
DMP:  12    -0.422135229762E+03   -0.41959E-06   -0.51510E-06   448   0.140E-05  -0.298E-06
DMP:  13    -0.422135229991E+03   -0.22910E-06   -0.28933E-06   448   0.779E-06  -0.145E-06
DMP:  14    -0.422135230078E+03   -0.86931E-07   -0.23616E-06   448   0.688E-06  -0.256E-06
DMP:  15    -0.422135230120E+03   -0.41142E-07   -0.21339E-06   448   0.674E-06  -0.368E-06
DMP:  16    -0.422135230147E+03   -0.27430E-07   -0.19417E-06   448   0.632E-06  -0.384E-06
DMP:  17    -0.422135230158E+03   -0.10688E-07   -0.19588E-06   448   0.649E-06  -0.418E-06
DMP:  18    -0.422135230171E+03   -0.13195E-07   -0.18268E-06   448   0.613E-06  -0.408E-06
DMP:  19    -0.422135230170E+03    0.72760E-09   -0.19023E-06   448   0.644E-06  -0.442E-06
DMP:  20    -0.422135230180E+03   -0.98262E-08   -0.17450E-06   448   0.592E-06  -0.409E-06
DMP:  21    -0.422135230172E+03    0.77034E-08   -0.19431E-06   448   0.660E-06  -0.455E-06
DMP:  22    -0.422135230177E+03   -0.48803E-08   -0.19894E-06   448   0.668E-06  -0.446E-06
DMP:  23    -0.422135230154E+03    0.22912E-07   -0.27860E-06   448   0.923E-06  -0.594E-06
DMP:  24    -0.422135230140E+03    0.13872E-07   -0.38504E-06   448   0.125E-05  -0.754E-06
DMP:  25    -0.422135230059E+03    0.81009E-07   -0.70524E-06   448   0.228E-05  -0.135E-05
DMP:  26    -0.422135229983E+03    0.76319E-07   -0.10837E-05   448   0.353E-05  -0.214E-05
DMP:  27    -0.422135229819E+03    0.16359E-06   -0.16111E-05   448   0.537E-05  -0.351E-05
DMP:  28    -0.422135229798E+03    0.21113E-07   -0.16708E-05   448   0.575E-05  -0.413E-05
DMP:  29    -0.422135229801E+03   -0.29941E-08   -0.14328E-05   448   0.517E-05  -0.416E-05
DMP:  30    -0.422135229990E+03   -0.18911E-06   -0.82416E-06   448   0.307E-05  -0.263E-05
DMP:  31    -0.422135230048E+03   -0.58031E-07   -0.64454E-06   448   0.229E-05  -0.178E-05
DMP:  32    -0.422135230012E+03    0.36160E-07   -0.10433E-05   448   0.328E-05  -0.175E-05
DMP:  33    -0.422135229621E+03    0.39103E-06   -0.39776E-05   448   0.117E-04  -0.467E-05
DMP:  34    -0.422135226781E+03    0.28399E-05   -0.21728E-04   448   0.634E-04  -0.239E-04
DMP:  35    -0.422135213489E+03    0.13292E-04   -0.10982E-03   448   0.321E-03  -0.121E-03
DMP:  36    -0.422135143178E+03    0.70311E-04   -0.50442E-03   448   0.150E-02  -0.625E-03
DMP:  37    -0.422134914787E+03    0.22839E-03   -0.17096E-02   448   0.519E-02  -0.241E-02
DMP:  38    -0.422134299062E+03    0.61572E-03   -0.44676E-02   448   0.140E-01  -0.735E-02
DMP:  39    -0.422133381021E+03    0.91804E-03   -0.80954E-02   448   0.263E-01  -0.158E-01
DMP:  40    -0.422132558705E+03    0.82232E-03   -0.10165E-01   448   0.347E-01  -0.243E-01
DMP:  41    -0.422132985533E+03   -0.42683E-03   -0.76179E-02   448   0.279E-01  -0.233E-01
DMP:  42    -0.422134057449E+03   -0.10719E-02   -0.33464E-02   448   0.136E-01  -0.137E-01
DMP:  43    -0.422134868777E+03   -0.81133E-03   -0.13212E-02   448   0.495E-02  -0.432E-02
DMP:  44    -0.422134824023E+03    0.44754E-04   -0.16147E-02   448   0.538E-02  -0.352E-02
DMP:  45    -0.422134804384E+03    0.19639E-04   -0.14894E-02   448   0.530E-02  -0.414E-02
DMP:  46    -0.422134976361E+03   -0.17198E-03   -0.75177E-03   448   0.297E-02  -0.286E-02
DMP:  47    -0.422135145178E+03   -0.16882E-03   -0.29490E-03   448   0.113E-02  -0.104E-02
DMP:  48    -0.422135142638E+03    0.25403E-05   -0.34283E-03   448   0.114E-02  -0.746E-03
DMP:  49    -0.422135143313E+03   -0.67547E-06   -0.33805E-03   448   0.117E-02  -0.858E-03
DMP:  50    -0.422135144488E+03   -0.11749E-05   -0.31128E-03   448   0.110E-02  -0.835E-03
DMP:  51    -0.422135164702E+03   -0.20214E-04   -0.28139E-03   448   0.964E-03  -0.682E-03
DMP:  52    -0.422135139442E+03    0.25260E-04   -0.35848E-03   448   0.121E-02  -0.825E-03
DMP:  53    -0.422135140726E+03   -0.12836E-05   -0.39816E-03   448   0.134E-02  -0.895E-03
DMP:  54    -0.422135096739E+03    0.43986E-04   -0.52687E-03   448   0.178E-02  -0.121E-02
DMP:  55    -0.422135102287E+03   -0.55474E-05   -0.53985E-03   448   0.184E-02  -0.130E-02
DMP:  56    -0.422135073799E+03    0.28488E-04   -0.57865E-03   448   0.201E-02  -0.149E-02
DMP:  57    -0.422135116166E+03   -0.42368E-04   -0.45240E-03   448   0.161E-02  -0.124E-02
DMP:  58    -0.422135121075E+03   -0.49082E-05   -0.37955E-03   448   0.137E-02  -0.110E-02
DMP:  59    -0.422135169941E+03   -0.48866E-04   -0.22843E-03   448   0.842E-03  -0.709E-03
DMP:  60    -0.422135182699E+03   -0.12758E-04   -0.15877E-03   448   0.589E-03  -0.503E-03
DMP:  61    -0.422135208480E+03   -0.25782E-04   -0.79504E-04   448   0.302E-03  -0.271E-03
DMP:  62    -0.422135215715E+03   -0.72342E-05   -0.46390E-04   448   0.177E-03  -0.160E-03
DMP:  63    -0.422135224863E+03   -0.91481E-05   -0.18926E-04   448   0.747E-04  -0.718E-04
DMP:  64    -0.422135227276E+03   -0.24135E-05   -0.88540E-05   448   0.352E-04  -0.342E-04
DMP:  65    -0.422135229437E+03   -0.21608E-05   -0.27036E-05   448   0.113E-04  -0.120E-04
DMP:  66    -0.422135229894E+03   -0.45696E-06   -0.88313E-06   448   0.378E-05  -0.411E-05
DMP:  67    -0.422135230186E+03   -0.29252E-06   -0.15090E-06   448   0.730E-06  -0.924E-06
DMP:  68    -0.422135230219E+03   -0.32062E-07   -0.17182E-07   448   0.981E-07  -0.144E-06
   6 F= -.42213523E+03 E0= -.42213523E+03  d E =-.322512E-03
       N       E                     dE             d eps       ncg     rms           ort
SDA:   1    -0.422095783104E+03    0.39447E-01   -0.36418E-01   448   0.910E-01   0.000E+00
DMP:   2    -0.422122587146E+03   -0.26804E-01   -0.16176E-01   448   0.240E-01   0.430E-01
DMP:   3    -0.422132783552E+03   -0.10196E-01   -0.36112E-02   448   0.500E-02   0.105E-01
DMP:   4    -0.422134696239E+03   -0.19127E-02   -0.77290E-03   448   0.173E-02   0.524E-03
DMP:   5    -0.422135028122E+03   -0.33188E-03   -0.32671E-03   448   0.921E-03  -0.273E-03
DMP:   6    -0.422135208753E+03   -0.18063E-03   -0.20083E-03   448   0.468E-03   0.901E-04
DMP:   7    -0.422135338771E+03   -0.13002E-03   -0.99554E-04   448   0.192E-03   0.148E-03
DMP:   8    -0.422135402331E+03   -0.63561E-04   -0.35425E-04   448   0.625E-04   0.681E-04
DMP:   9    -0.422135423030E+03   -0.20698E-04   -0.10923E-04   448   0.214E-04   0.154E-04
DMP:  10    -0.422135428818E+03   -0.57881E-05   -0.41715E-05   448   0.956E-05   0.229E-05
DMP:  11    -0.422135431155E+03   -0.23368E-05   -0.21122E-05   448   0.477E-05   0.133E-05
DMP:  12    -0.422135432478E+03   -0.13235E-05   -0.11432E-05   448   0.241E-05   0.117E-05
DMP:  13    -0.422135433184E+03   -0.70593E-06   -0.56349E-06   448   0.116E-05   0.655E-06
DMP:  14    -0.422135433523E+03   -0.33846E-06   -0.26127E-06   448   0.524E-06   0.338E-06
DMP:  15    -0.422135433680E+03   -0.15714E-06   -0.13733E-06   448   0.279E-06   0.169E-06
DMP:  16    -0.422135433770E+03   -0.90107E-07   -0.75152E-07   448   0.140E-06   0.126E-06
   7 F= -.42213543E+03 E0= -.42213543E+03  d E =-.526064E-03
       N       E                     dE             d eps       ncg     rms           ort
SDA:   1    -0.422134969015E+03    0.46466E-03   -0.40796E-03   448   0.102E-02   0.000E+00
DMP:   2    -0.422135274956E+03   -0.30594E-03   -0.20075E-03   448   0.309E-03   0.506E-03
DMP:   3    -0.422135402612E+03   -0.12766E-03   -0.49321E-04   448   0.716E-04   0.135E-03
DMP:   4    -0.422135428208E+03   -0.25596E-04   -0.98961E-05   448   0.225E-04   0.588E-05
DMP:   5    -0.422135432232E+03   -0.40239E-05   -0.37937E-05   448   0.112E-04  -0.451E-05
DMP:   6    -0.422135434409E+03   -0.21771E-05   -0.24229E-05   448   0.564E-05   0.108E-05
DMP:   7    -0.422135436043E+03   -0.16335E-05   -0.13099E-05   448   0.246E-05   0.214E-05
DMP:   8    -0.422135436902E+03   -0.85967E-06   -0.51916E-06   448   0.851E-06   0.117E-05
DMP:   9    -0.422135437246E+03   -0.34420E-06   -0.15861E-06   448   0.260E-06   0.358E-06
DMP:  10    -0.422135437357E+03   -0.11017E-06   -0.46144E-07   448   0.912E-07   0.633E-07
DMP:  11    -0.422135437385E+03   -0.28107E-07   -0.19012E-07   448   0.422E-07   0.140E-07
   8 F= -.42213544E+03 E0= -.42213544E+03  d E =-.529679E-03
       N       E                     dE             d eps       ncg     rms           ort
SDA:   1    -0.422130117513E+03    0.53198E-02   -0.61137E-02   448   0.153E-01   0.000E+00
DMP:   2    -0.422134122040E+03   -0.40045E-02   -0.18150E-02   448   0.272E-02   0.477E-02
DMP:   3    -0.422135128605E+03   -0.10066E-02   -0.50630E-03   448   0.108E-02   0.498E-03
DMP:   4    -0.422135406462E+03   -0.27786E-03   -0.16286E-03   448   0.363E-03   0.117E-03
DMP:   5    -0.422135479724E+03   -0.73262E-04   -0.53393E-04   448   0.150E-03  -0.424E-04
DMP:   6    -0.422135505253E+03   -0.25530E-04   -0.29107E-04   448   0.744E-04  -0.433E-05
DMP:   7    -0.422135522804E+03   -0.17550E-04   -0.14344E-04   448   0.300E-04   0.152E-04
DMP:   8    -0.422135531551E+03   -0.87471E-05   -0.51780E-05   448   0.999E-05   0.773E-05
DMP:   9    -0.422135534472E+03   -0.29216E-05   -0.19302E-05   448   0.411E-05   0.188E-05
DMP:  10    -0.422135535480E+03   -0.10077E-05   -0.10294E-05   448   0.242E-05   0.400E-06
DMP:  11    -0.422135535873E+03   -0.39311E-06   -0.98400E-06   448   0.271E-05  -0.658E-06
DMP:  12    -0.422135535985E+03   -0.11204E-06   -0.13713E-05   448   0.417E-05  -0.194E-05
DMP:  13    -0.422135535944E+03    0.41029E-07   -0.18646E-05   448   0.604E-05  -0.361E-05
DMP:  14    -0.422135535960E+03   -0.15834E-07   -0.20111E-05   448   0.676E-05  -0.453E-05
DMP:  15    -0.422135535919E+03    0.41284E-07   -0.22250E-05   448   0.756E-05  -0.523E-05
DMP:  16    -0.422135535986E+03   -0.67450E-07   -0.21265E-05   448   0.731E-05  -0.523E-05
DMP:  17    -0.422135536013E+03   -0.27361E-07   -0.17807E-05   448   0.642E-05  -0.516E-05
DMP:  18    -0.422135536289E+03   -0.27568E-06   -0.90655E-06   448   0.344E-05  -0.307E-05
DMP:  19    -0.422135536404E+03   -0.11503E-06   -0.46594E-06   448   0.180E-05  -0.167E-05
DMP:  20    -0.422135536509E+03   -0.10456E-06   -0.17163E-06   448   0.672E-06  -0.637E-06
DMP:  21    -0.422135536534E+03   -0.25570E-07   -0.93031E-07   448   0.342E-06  -0.286E-06
   9 F= -.42213554E+03 E0= -.42213554E+03  d E =-.991495E-04
       N       E                     dE             d eps       ncg     rms           ort
SDA:   1    -0.422129561917E+03    0.59746E-02   -0.67508E-02   448   0.169E-01   0.000E+00
DMP:   2    -0.422133984955E+03   -0.44230E-02   -0.20061E-02   448   0.300E-02   0.527E-02
DMP:   3    -0.422135097899E+03   -0.11129E-02   -0.55980E-03   448   0.119E-02   0.553E-03
DMP:   4    -0.422135405134E+03   -0.30723E-03   -0.18016E-03   448   0.401E-03   0.130E-03
DMP:   5    -0.422135486091E+03   -0.80957E-04   -0.59104E-04   448   0.166E-03  -0.473E-04
DMP:   6    -0.422135514325E+03   -0.28234E-04   -0.32237E-04   448   0.825E-04  -0.500E-05
DMP:   7    -0.422135533759E+03   -0.19435E-04   -0.15906E-04   448   0.333E-04   0.168E-04
DMP:   8    -0.422135543451E+03   -0.96911E-05   -0.57905E-05   448   0.112E-04   0.853E-05
DMP:   9    -0.422135546689E+03   -0.32382E-05   -0.22322E-05   448   0.484E-05   0.194E-05
DMP:  10    -0.422135547796E+03   -0.11076E-05   -0.12527E-05   448   0.307E-05   0.160E-06
DMP:  11    -0.422135548276E+03   -0.47921E-06   -0.99489E-06   448   0.279E-05  -0.796E-06
DMP:  12    -0.422135548502E+03   -0.22688E-06   -0.98354E-06   448   0.299E-05  -0.140E-05
DMP:  13    -0.422135548621E+03   -0.11860E-06   -0.94681E-06   448   0.307E-05  -0.184E-05
DMP:  14    -0.422135548737E+03   -0.11649E-06   -0.80439E-06   448   0.267E-05  -0.173E-05
DMP:  15    -0.422135548733E+03    0.44965E-08   -0.10608E-05   448   0.343E-05  -0.203E-05
DMP:  16    -0.422135548682E+03    0.50873E-07   -0.14737E-05   448   0.479E-05  -0.291E-05
DMP:  17    -0.422135548537E+03    0.14514E-06   -0.19247E-05   448   0.649E-05  -0.440E-05
DMP:  18    -0.422135548602E+03   -0.64585E-07   -0.17112E-05   448   0.599E-05  -0.448E-05
DMP:  19    -0.422135548665E+03   -0.62946E-07   -0.12907E-05   448   0.473E-05  -0.395E-05
DMP:  20    -0.422135548882E+03   -0.21718E-06   -0.62713E-06   448   0.238E-05  -0.213E-05
DMP:  21    -0.422135548946E+03   -0.64632E-07   -0.38129E-06   448   0.142E-05  -0.123E-05
DMP:  22    -0.422135549002E+03   -0.55381E-07   -0.22895E-06   448   0.829E-06  -0.671E-06
DMP:  23    -0.422135549012E+03   -0.10030E-07   -0.17385E-06   448   0.629E-06  -0.508E-06
DMP:  24    -0.422135549039E+03   -0.27070E-07   -0.87763E-07   448   0.333E-06  -0.296E-06
  10 F= -.42213555E+03 E0= -.42213555E+03  d E =-.111654E-03
