 vasp.6.5.1 10Mar25 (build May 05 2025 13:45:00) complex                        
  
 executed on             LinuxIFC date 2026.04.27  13:57:14
 running  112 mpi-ranks, on    1 nodes
 distrk:  each k-point on   56 cores,    2 groups
 distr:  one band on NCORE=   1 cores,   56 groups


--------------------------------------------------------------------------------------------------------


 INCAR:
   ALGO = Damped
   PREC = Normal
   LREAL = False
   EDIFF = 1e-07
   ENCUT = 400.0
   LASPH = True
   NELM = 100
   ISIF = 3
   IBRION = 2
   EDIFFG = -0.005
   NSW = 300
   ISMEAR = 0
   SIGMA = 0.1
   LWAVE = True
   LCHARG = False
   LORBIT = 10
   LHFCALC = True
   PRECFOCK = Fast
   AEXX = 0.36
   HFSCREEN = 0.2
   TIME = 0.4
   KPAR = 2

 POTCAR:    PAW_PBE Nd_3 06Sep2000                
 POTCAR:    PAW_PBE O 08Apr2002                   
 -----------------------------------------------------------------------------
|                                                                             |
|           W    W    AA    RRRRR   N    N  II  N    N   GGGG   !!!           |
|           W    W   A  A   R    R  NN   N  II  NN   N  G    G  !!!           |
|           W    W  A    A  R    R  N N  N  II  N N  N  G       !!!           |
|           W WW W  AAAAAA  RRRRR   N  N N  II  N  N N  G  GGG   !            |
|           WW  WW  A    A  R   R   N   NN  II  N   NN  G    G                |
|           W    W  A    A  R    R  N    N  II  N    N   GGGG   !!!           |
|                                                                             |
|     For optimal performance we recommend to set                             |
|       NCORE = 2 up to number-of-cores-per-socket                            |
|     NCORE specifies how many cores store one orbital (NPAR=cpu/NCORE).      |
|     This setting can greatly improve the performance of VASP for DFT.       |
|     The default, NCORE=1 might be grossly inefficient on modern             |
|     multi-core architectures or massively parallel machines. Do your        |
|     own testing! More info at https://www.vasp.at/wiki/index.php/NCORE      |
|     Unfortunately you need to use the default for GW and RPA                |
|     calculations (for HF NCORE is supported but not extensively tested      |
|     yet).                                                                   |
|                                                                             |
 -----------------------------------------------------------------------------

 POTCAR:    PAW_PBE Nd_3 06Sep2000                
   SHA256 =  90782177844a5d17e05a83442c3981b109958f4399d5595472847236a982ac31 Nd_3/POTCAR           
   COPYR  = (c) Copyright 06Sep2000 Georg Kresse                                                    
   COPYR  = This file is part of the software VASP. Any use, copying, and all other rights are regul
   COPYR  = If you do not have a valid VASP license, you may not use, copy or distribute this file. 
   VRHFIN =Nd : [core=Xe4]                                                                          
   LEXCH  = PE                                                                                      
   EATOM  =   934.1494 eV,   68.6580 Ry                                                             
                                                                                                    
   TITEL  = PAW_PBE Nd_3 06Sep2000                                                                  
   LULTRA =        F    use ultrasoft PP ?                                                          
   IUNSCR =        1    unscreen: 0-lin 1-nonlin 2-no                                               
   RPACOR =    2.400    partial core radius                                                         
   POMASS =  144.240; ZVAL   =   11.000    mass and valenz                                          
   RCORE  =    2.800    outmost cutoff radius                                                       
   RWIGS  =    3.000; RWIGS  =    1.588    wigner-seitz radius (au A)                               
   ENMAX  =  182.619; ENMIN  =  136.964 eV                                                          
   RCLOC  =    2.418    cutoff for local pot                                                        
   LCOR   =        T    correct aug charges                                                         
   LPAW   =        T    paw PP                                                                      
   EAUG   =  299.021                                                                                
   DEXC   =    0.000                                                                                
   RMAX   =    2.866    core radius for proj-oper                                                   
   RAUG   =    1.300    factor for augmentation sphere                                              
   RDEP   =    2.838    radius for radial grids                                                     
   RDEPT  =    2.433    core radius for aug-charge                                                  
                                                                                                    
   Atomic configuration                                                                             
   14 entries                                                                                       
     n  l   j            E        occ.                                                              
     1  0  0.50    -43395.8286   2.0000                                                             
     2  0  0.50     -7023.8781   2.0000                                                             
     2  1  1.50     -6278.5294   6.0000                                                             
     3  0  0.50     -1529.8925   2.0000                                                             
     3  1  1.50     -1294.9660   6.0000                                                             
     3  2  2.50      -969.3626  10.0000                                                             
     4  0  0.50      -309.7145   2.0000                                                             
     4  1  1.50      -232.6371   6.0000                                                             
     4  2  2.50      -123.0912  10.0000                                                             
     4  3  2.50        -6.9199   3.0000                                                             
     5  0  0.50       -43.6910   2.0000                                                             
     6  0  0.50        -3.8688   2.0000                                                             
     5  1  1.50       -24.6661   6.0000                                                             
     5  2  2.50        -2.9249   1.0000                                                             
   Description                                                                                      
     l       E           TYP  RCUT    TYP  RCUT                                                     
     0    -43.6910211     23  2.800                                                                 
     0     -3.8687565     23  2.800                                                                 
     1    -24.6660554     23  2.800                                                                 
     1     13.6058260     23  2.800                                                                 
     2     -2.9249058     23  2.800                                                                 
     2      0.2001824     23  2.800                                                                 
  local pseudopotential read in
  partial core-charges read in
  partial kinetic energy density read in
  atomic valenz-charges read in
  non local Contribution for L=           0  read in
    real space projection operators read in
  non local Contribution for L=           0  read in
    real space projection operators read in
  non local Contribution for L=           1  read in
    real space projection operators read in
  non local Contribution for L=           1  read in
    real space projection operators read in
  non local Contribution for L=           2  read in
    real space projection operators read in
  non local Contribution for L=           2  read in
    real space projection operators read in
    PAW grid and wavefunctions read in
 
   number of l-projection  operators is LMAX  =           6
   number of lm-projection operators is LMMAX =          18
 
 POTCAR:    PAW_PBE O 08Apr2002                   
   SHA256 =  818f92134a0a090dccd8ba1447fa70422a3b330e708bb4f08108d8ae51209ddf O/POTCAR              
   COPYR  = (c) Copyright 08Apr2002 Georg Kresse                                                    
   COPYR  = This file is part of the software VASP. Any use, copying, and all other rights are regul
   COPYR  = If you do not have a valid VASP license, you may not use, copy or distribute this file. 
   VRHFIN =O: s2p4                                                                                  
   LEXCH  = PE                                                                                      
   EATOM  =   432.3788 eV,   31.7789 Ry                                                             
                                                                                                    
   TITEL  = PAW_PBE O 08Apr2002                                                                     
   LULTRA =        F    use ultrasoft PP ?                                                          
   IUNSCR =        1    unscreen: 0-lin 1-nonlin 2-no                                               
   RPACOR =    1.200    partial core radius                                                         
   POMASS =   16.000; ZVAL   =    6.000    mass and valenz                                          
   RCORE  =    1.520    outmost cutoff radius                                                       
   RWIGS  =    1.550; RWIGS  =    0.820    wigner-seitz radius (au A)                               
   ENMAX  =  400.000; ENMIN  =  300.000 eV                                                          
   ICORE  =        2    local potential                                                             
   LCOR   =        T    correct aug charges                                                         
   LPAW   =        T    paw PP                                                                      
   EAUG   =  605.392                                                                                
   DEXC   =    0.000                                                                                
   RMAX   =    1.553    core radius for proj-oper                                                   
   RAUG   =    1.300    factor for augmentation sphere                                              
   RDEP   =    1.550    radius for radial grids                                                     
   RDEPT  =    1.329    core radius for aug-charge                                                  
                                                                                                    
   Atomic configuration                                                                             
    4 entries                                                                                       
     n  l   j            E        occ.                                                              
     1  0  0.50      -514.6923   2.0000                                                             
     2  0  0.50       -23.9615   2.0000                                                             
     2  1  0.50        -9.0305   4.0000                                                             
     3  2  1.50        -9.5241   0.0000                                                             
   Description                                                                                      
     l       E           TYP  RCUT    TYP  RCUT                                                     
     0    -23.9615318     23  1.200                                                                 
     0     -9.5240782     23  1.200                                                                 
     1     -9.0304911     23  1.520                                                                 
     1      8.1634956     23  1.520                                                                 
     2     -9.5240782      7  1.500                                                                 
  local pseudopotential read in
  partial core-charges read in
  partial kinetic energy density read in
  kinetic energy density of atom read in
  atomic valenz-charges read in
  non local Contribution for L=           0  read in
    real space projection operators read in
  non local Contribution for L=           0  read in
    real space projection operators read in
  non local Contribution for L=           1  read in
    real space projection operators read in
  non local Contribution for L=           1  read in
    real space projection operators read in
    PAW grid and wavefunctions read in
 
   number of l-projection  operators is LMAX  =           4
   number of lm-projection operators is LMMAX =           8
 
 -----------------------------------------------------------------------------
|                                                                             |
|               ----> ADVICE to this user running VASP <----                  |
|                                                                             |
|     You have a (more or less) 'large supercell' and for larger cells it     |
|     might be more efficient to use real-space projection operators.         |
|     Therefore, try LREAL= Auto in the INCAR file.                           |
|     Mind: For very accurate calculation, you might also keep the            |
|     reciprocal projection scheme (i.e. LREAL=.FALSE.).                      |
|                                                                             |
 -----------------------------------------------------------------------------

  PAW_PBE Nd_3 06Sep2000                :
 energy of atom  1       EATOM= -934.1494
 kinetic energy error for atom=    0.0015 (will be added to EATOM!!)
  PAW_PBE O 08Apr2002                   :
 energy of atom  2       EATOM= -432.3788
 kinetic energy error for atom=    0.1156 (will be added to EATOM!!)
 
 
 POSCAR: Nd16 O24
  positions in direct lattice
  No initial velocities read in


 exchange-correlation table for PE
   RHO(1)=    0.500       N(1)  =     2000
   RHO(2)=  100.500       N(2)  =     4000
 


--------------------------------------------------------------------------------------------------------


 ion  position               nearest neighbor table
   1  0.720  0.750  0.470-  33 2.36  29 2.36  39 2.36  35 2.36  23 2.46  20 2.46  13 3.70  16 3.70
                            10 3.72   8 3.72   9 3.72  11 3.72
   2  0.250  0.030  0.780-  35 2.36  37 2.36  32 2.36  34 2.36  17 2.46  19 2.46  13 3.70  14 3.70
                             7 3.72   9 3.72  11 3.72  12 3.72
   3  0.470  0.720  0.750-  38 2.36  34 2.36  33 2.36  31 2.36  22 2.46  24 2.46  13 3.70  15 3.70
                            10 3.72   7 3.72   8 3.72  12 3.72
   4  0.750  0.470  0.720-  39 2.36  40 2.36  38 2.36  36 2.36  28 2.46  18 2.46  15 3.70  16 3.70
                            11 3.72   7 3.72   9 3.72  12 3.72
   5  0.030  0.780  0.250-  32 2.36  36 2.36  30 2.36  29 2.36  21 2.46  26 2.46  14 3.70  16 3.70
                             8 3.72  10 3.72   7 3.72  12 3.72
   6  0.780  0.250  0.030-  30 2.36  31 2.36  37 2.36  40 2.36  27 2.46  25 2.46  14 3.70  15 3.70
                             8 3.72  11 3.72   9 3.72  10 3.72
   7  0.280  0.250  0.530-  28 2.36  17 2.36  22 2.36  26 2.36  38 2.46  32 2.46  13 3.70  16 3.70
                             4 3.72   2 3.72   3 3.72   5 3.72
   8  0.750  0.970  0.220-  24 2.36  26 2.36  20 2.36  27 2.36  29 2.46  31 2.46  13 3.70  14 3.70
                             1 3.72   3 3.72   5 3.72   6 3.72
   9  0.530  0.280  0.250-  23 2.36  27 2.36  28 2.36  19 2.36  39 2.46  37 2.46  13 3.70  15 3.70
                             4 3.72   1 3.72   2 3.72   6 3.72
  10  0.250  0.530  0.280-  22 2.36  21 2.36  23 2.36  25 2.36  33 2.46  30 2.46  15 3.70  16 3.70
                             5 3.72   1 3.72   3 3.72   6 3.72
  11  0.970  0.220  0.750-  20 2.36  25 2.36  18 2.36  17 2.36  40 2.46  35 2.46  14 3.70  16 3.70
                             2 3.72   4 3.72   1 3.72   6 3.72
  12  0.220  0.750  0.970-  18 2.36  19 2.36  24 2.36  21 2.36  34 2.46  36 2.46  14 3.70  15 3.70
                             2 3.72   5 3.72   3 3.72   4 3.72
  13  0.500  0.500  0.000-  24 2.40  37 2.40  29 2.40  17 2.40  23 2.40  38 2.40   1 3.70   2 3.70
                             3 3.70   7 3.70   8 3.70   9 3.70
  14  0.000  0.000  0.000-  19 2.40  25 2.40  26 2.40  31 2.40  35 2.40  36 2.40   2 3.70   5 3.70
                             6 3.70   8 3.70  11 3.70  12 3.70
  15  0.000  0.500  0.500-  18 2.40  30 2.40  27 2.40  34 2.40  22 2.40  39 2.40   3 3.70   4 3.70
                             6 3.70   9 3.70  10 3.70  12 3.70
  16  0.500  0.000  0.500-  20 2.40  32 2.40  21 2.40  40 2.40  33 2.40  28 2.40   1 3.70   4 3.70
                             5 3.70   7 3.70  10 3.70  11 3.70
  17  0.231  0.271  0.759-   7 2.36  11 2.36  13 2.40   2 2.46
  18  0.012  0.472  0.741-  12 2.36  11 2.36  15 2.40   4 2.46
  19  0.269  0.028  0.040-  12 2.36   9 2.36  14 2.40   2 2.46
  20  0.741  0.012  0.472-  11 2.36   8 2.36  16 2.40   1 2.46
  21  0.271  0.759  0.231-  10 2.36  12 2.36  16 2.40   5 2.46
  22  0.229  0.460  0.488-  10 2.36   7 2.36  15 2.40   3 2.46
  23  0.460  0.488  0.229-   9 2.36  10 2.36  13 2.40   1 2.46
  24  0.472  0.741  0.012-   8 2.36  12 2.36  13 2.40   3 2.46
  25  0.040  0.269  0.028-  11 2.36  10 2.36  14 2.40   6 2.46
  26  0.028  0.040  0.269-   8 2.36   7 2.36  14 2.40   5 2.46
  27  0.759  0.231  0.271-   9 2.36   8 2.36  15 2.40   6 2.46
  28  0.488  0.229  0.460-   7 2.36   9 2.36  16 2.40   4 2.46
  29  0.769  0.729  0.241-   1 2.36   5 2.36  13 2.40   8 2.46
  30  0.988  0.528  0.259-   6 2.36   5 2.36  15 2.40  10 2.46
  31  0.731  0.972  0.960-   6 2.36   3 2.36  14 2.40   8 2.46
  32  0.259  0.988  0.528-   5 2.36   2 2.36  16 2.40   7 2.46
  33  0.512  0.771  0.540-   1 2.36   3 2.36  16 2.40  10 2.46
  34  0.241  0.769  0.729-   3 2.36   2 2.36  15 2.40  12 2.46
  35  0.972  0.960  0.731-   2 2.36   1 2.36  14 2.40  11 2.46
  36  0.960  0.731  0.972-   5 2.36   4 2.36  14 2.40  12 2.46
  37  0.528  0.259  0.988-   2 2.36   6 2.36  13 2.40   9 2.46
  38  0.540  0.512  0.771-   3 2.36   4 2.36  13 2.40   7 2.46
  39  0.771  0.540  0.512-   4 2.36   1 2.36  15 2.40   9 2.46
  40  0.729  0.241  0.769-   4 2.36   6 2.36  16 2.40  11 2.46
 
  LATTYP: Found a body centered cubic cell.
 ALAT       =    11.1282452500
  
  Lattice vectors:
  
 A1 = (  -5.5641226250,   5.5641226250,   5.5641226250)
 A2 = (   5.5641226250,  -5.5641226250,   5.5641226250)
 A3 = (   5.5641226250,   5.5641226250,  -5.5641226250)


Analysis of symmetry for initial positions (statically):
=====================================================================
 Subroutine PRICEL returns:
 Original cell was already a primitive cell.
 

 Routine SETGRP: Setting up the symmetry group for a 
 body centered cubic supercell.


 Subroutine GETGRP returns: Found 24 space group operations
 (whereof  6 operations were pure point group operations)
 out of a pool of 48 trial point group operations.


The static configuration has the point symmetry S_6 .
 The point group associated with its full space group is T_h .


Analysis of symmetry for dynamics (positions and initial velocities):
=====================================================================
 Subroutine PRICEL returns:
 Original cell was already a primitive cell.
 

 Routine SETGRP: Setting up the symmetry group for a 
 body centered cubic supercell.


 Subroutine GETGRP returns: Found 24 space group operations
 (whereof  6 operations were pure point group operations)
 out of a pool of 48 trial point group operations.


The dynamic configuration has the point symmetry S_6 .
 The point group associated with its full space group is T_h .


 Subroutine INISYM returns: Found 24 space group operations
 (whereof  6 operations are pure point group operations),
 and found     1 'primitive' translations


----------------------------------------------------------------------------------------

                                     Primitive cell                                     

  volume of cell :     689.0489

  direct lattice vectors                    reciprocal lattice vectors
    -5.564122625  5.564122625  5.564122625    -0.000000000  0.089861427  0.089861427
     5.564122625 -5.564122625  5.564122625     0.089861427 -0.000000000  0.089861427
     5.564122625  5.564122625 -5.564122625     0.089861427  0.089861427 -0.000000000

  length of vectors
     9.637343086  9.637343086  9.637343086     0.127083249  0.127083249  0.127083249

  position of ions in fractional coordinates (direct lattice)
     0.719538430  0.750000000  0.469538430
     0.250000000  0.030461570  0.780461570
     0.469538430  0.719538430  0.750000000
     0.750000000  0.469538430  0.719538430
     0.030461570  0.780461570  0.250000000
     0.780461570  0.250000000  0.030461570
     0.280461570  0.250000000  0.530461570
     0.750000000  0.969538430  0.219538430
     0.530461570  0.280461570  0.250000000
     0.250000000  0.530461570  0.280461570
     0.969538430  0.219538430  0.750000000
     0.219538430  0.750000000  0.969538430
     0.500000000  0.500000000  1.000000000
     0.000000000  0.000000000  0.000000000
     0.000000000  0.500000000  0.500000000
     0.500000000  1.000000000  0.500000000
     0.230842430  0.271049930  0.758747030
     0.012302900  0.472095400  0.741252970
     0.269157570  0.027904600  0.040207500
     0.741252970  0.012302900  0.472095400
     0.271049930  0.758747030  0.230842430
     0.228950070  0.459792500  0.487697100
     0.459792500  0.487697100  0.228950070
     0.472095400  0.741252970  0.012302900
     0.040207500  0.269157570  0.027904600
     0.027904600  0.040207500  0.269157570
     0.758747030  0.230842430  0.271049930
     0.487697100  0.228950070  0.459792500
     0.769157570  0.728950070  0.241252970
     0.987697100  0.527904600  0.258747030
     0.730842430  0.972095400  0.959792500
     0.258747030  0.987697100  0.527904600
     0.512302900  0.771049930  0.540207500
     0.241252970  0.769157570  0.728950070
     0.972095400  0.959792500  0.730842430
     0.959792500  0.730842430  0.972095400
     0.527904600  0.258747030  0.987697100
     0.540207500  0.512302900  0.771049930
     0.771049930  0.540207500  0.512302900
     0.728950070  0.241252970  0.769157570

  ion indices of the primitive-cell ions
   primitive index   ion index
                 1           1
                 2           2
                 3           3
                 4           4
                 5           5
                 6           6
                 7           7
                 8           8
                 9           9
                10          10
                11          11
                12          12
                13          13
                14          14
                15          15
                16          16
                17          17
                18          18
                19          19
                20          20
                21          21
                22          22
                23          23
                24          24
                25          25
                26          26
                27          27
                28          28
                29          29
                30          30
                31          31
                32          32
                33          33
                34          34
                35          35
                36          36
                37          37
                38          38
                39          39
                40          40

----------------------------------------------------------------------------------------

 
 
 KPOINTS: Num irrep kpoints: 2                    

Automatic generation of k-mesh.
 Grid dimensions read from file:
 generate k-points for:    2    2    2

 Generating k-lattice:

  Cartesian coordinates                     Fractional coordinates (reciprocal lattice)
    -0.000000000  0.044930714  0.044930714     0.500000000  0.000000000 -0.000000000
     0.044930714 -0.000000000  0.044930714    -0.000000000  0.500000000 -0.000000000
     0.044930714  0.044930714 -0.000000000    -0.000000000  0.000000000  0.500000000

  Length of vectors
     0.063541625  0.063541625  0.063541625

  Shift w.r.t. Gamma in fractional coordinates (k-lattice)
     0.500000000  0.500000000  0.500000000

 
 Subroutine IBZKPT returns following result:
 ===========================================
 
 Found      2 irreducible k-points:
 
 Following reciprocal coordinates:
            Coordinates               Weight
  0.250000  0.250000  0.250000      2.000000
 -0.250000  0.250000  0.250000      6.000000
 
 Following cartesian coordinates:
            Coordinates               Weight
  0.044931  0.044931  0.044931      2.000000
  0.044931  0.000000 -0.000000      6.000000
 
 
 Subroutine IBZKPT_HF returns following result:
 ==============================================
 
 Found      8 k-points in 1st BZ
 the following      8 k-points will be used (e.g. in the exchange kernel)
 Following reciprocal coordinates:   # in IRBZ
  0.250000  0.250000  0.250000    0.12500000   1 t-inv F
 -0.250000  0.250000  0.250000    0.12500000   2 t-inv F
 -0.250000 -0.250000 -0.250000    0.12500000   1 t-inv F
  0.250000 -0.250000 -0.250000    0.12500000   2 t-inv F
  0.250000 -0.250000  0.250000    0.12500000   2 t-inv F
 -0.250000  0.250000 -0.250000    0.12500000   2 t-inv F
  0.250000  0.250000 -0.250000    0.12500000   2 t-inv F
 -0.250000 -0.250000  0.250000    0.12500000   2 t-inv F


--------------------------------------------------------------------------------------------------------




 Dimension of arrays:
   k-points           NKPTS =      2   k-points in BZ     NKDIM =      8   number of bands    NBANDS=    224
   number of dos      NEDOS =    301   number of ions     NIONS =     40
   non local maximal  LDIM  =      6   non local SUM 2l+1 LMDIM =     18
   total plane-waves  NPLWV = 110592
   max r-space proj   IRMAX =      1   max aug-charges    IRDMAX=  12984
   dimension x,y,z NGX =    48 NGY =   48 NGZ =   48
   dimension x,y,z NGXF=    96 NGYF=   96 NGZF=   96
   support grid    NGXF=    96 NGYF=   96 NGZF=   96
   ions per type =              16  24
   NGX,Y,Z   is equivalent  to a cutoff of   8.28,  8.28,  8.28 a.u.
   NGXF,Y,Z  is equivalent  to a cutoff of  16.56, 16.56, 16.56 a.u.

 SYSTEM =  unknown system                          
 POSCAR =  Nd16 O24                                

 Startparameter for this run:
   NWRITE =      2    write-flag & timer
   PREC   = normal    normal or accurate (medium, high low for compatibility)
   ISTART =      0    job   : 0-new  1-cont  2-samecut
   ICHARG =      2    charge: 1-file 2-atom 10-const
   ISPIN  =      1    spin polarized calculation?
   LNONCOLLINEAR =      F non collinear calculations
   LSORBIT =      F    spin-orbit coupling
   INIWAV =      1    electr: 0-lowe 1-rand  2-diag
   LASPH  =      T    aspherical Exc in radial PAW
 Electronic Relaxation 1
   ENCUT  =  400.0 eV  29.40 Ry    5.42 a.u.  15.72 15.72 15.72*2*pi/ulx,y,z
   ENINI  =  400.0     initial cutoff
   ENAUG  =  605.4 eV  augmentation charge cutoff
   NELM   =    100;   NELMIN=  2; NELMDL= -5     # of ELM steps 
   EDIFF  = 0.1E-06   stopping-criterion for ELM
   LREAL  =      F    real-space projection
   NLSPLINE    = F    spline interpolate recip. space projectors
   LCOMPAT=      F    compatible to vasp.4.4
   GGA_COMPAT  = T    GGA compatible to vasp.4.4-vasp.4.6
   LMAXPAW     = -100 max onsite density
   LMAXMIX     =    2 max onsite mixed and CHGCAR
   VOSKOWN=      0    Vosko Wilk Nusair interpolation
   ROPT   =    0.00000   0.00000
 Ionic relaxation
   EDIFFG = -.5E-02   stopping-criterion for IOM
   NSW    =    300    number of steps for IOM
   NBLOCK =      1;   KBLOCK =    300    inner block; outer block 
   IBRION =      2    ionic relax: 0-MD 1-quasi-New 2-CG
   NFREE  =      1    steps in history (QN), initial steepest desc. (CG)
   ISIF   =      3    stress and relaxation
   IWAVPR =     11    prediction:  0-non 1-charg 2-wave 3-comb
   ISYM   =      3    0-nonsym 1-usesym 2-fastsym
   LCORR  =      T    Harris-Foulkes like correction to forces

   POTIM  = 0.5000    time-step for ionic-motion
   TEIN   =    0.0    initial temperature
   TEBEG  =    0.0;   TEEND  =   0.0 temperature during run
   SMASS  =  -3.00    Nose mass-parameter (am)
   estimated Nose-frequenzy (Omega)   =  0.10E-29 period in steps = 0.13E+47 mass=  -0.212E-26a.u.
   SCALEE = 1.0000    scale energy and forces
   NPACO  =    256;   APACO  = 10.0  distance and # of slots for P.C.
   PSTRESS=    0.0 pullay stress

  Mass of Ions in am
   POMASS = 144.24 16.00
  Ionic Valenz
   ZVAL   =  11.00  6.00
  Atomic Wigner-Seitz radii
   RWIGS  =  -1.00 -1.00
  virtual crystal weights 
   VCA    =   1.00  1.00
   NELECT =     320.0000    total number of electrons
   NUPDOWN=      -1.0000    fix difference up-down

 DOS related values:
   EMIN   =  10.00;   EMAX   =-10.00  energy-range for DOS
   EFERMI =   0.00;   METHOD = LEGACY      
   ISMEAR =     0;   SIGMA  =   0.10  broadening in eV -4-tet -1-fermi 0-gaus
   EFERMI_NEDOS =   21; number of points for ismear=-14 and -15

 Electronic relaxation 2 (details)
   IALGO  =     53    algorithm
   LDIAG  =      T    sub-space diagonalisation (order eigenvalues)
   LSUBROT=      F    optimize rotation matrix (better conditioning)
   LROBUST=      F    robust break criterion during scf (extrapolated energy error)
   ISEARCH=      0    line search for conjugate gradient (0, 1=use gradient)
   TURBO    =      0    0=normal 1=particle mesh
   IRESTART =      0    0=no restart 2=restart with 2 vectors
   NREBOOT  =      0    no. of reboots
   NMIN     =      0    reboot dimension
   EREF     =   0.00    reference energy to select bands
   IMIX   =      4    mixing-type and parameters
     AMIX     =   0.40;   BMIX     =  1.00
     AMIX_MAG =   1.60;   BMIX_MAG =  1.00
     AMIN     =   0.10
     WC   =   100.;   INIMIX=   1;  MIXPRE=   1;  MAXMIX= -45

 Intra band minimization:
   WEIMIN = 0.0010     energy-eigenvalue tresh-hold
   EBREAK =  0.11E-09  absolut break condition
   DEPER  =   0.30     relativ break condition  

   TIME   =   0.40     timestep for ELM

  volume/ion in A,a.u.               =      17.23       116.25
  Fermi-wavevector in a.u.,A,eV,Ry     =   1.267773  2.395743 21.867939  1.607248
  Thomas-Fermi vector in A             =   2.400903
 
 Write flags
   LWAVE        =      T    write WAVECAR
   LDOWNSAMPLE  =      F    k-point downsampling of WAVECAR
   LCHARG       =      F    write CHGCAR
   LVTOT        =      F    write LOCPOT, total local potential
   LVHAR        =      F    write LOCPOT, Hartree potential only
   WRT_POTENTIAL= false  ! write potential to hdf5 file
   LELF         =      F    write electronic localiz. function (ELF)
   LORBIT       =     10    0 simple, 1 ext, 2 COOP (PROOUT), +10 PAW based schemes


 Python interface
   PLUGINS active      =      F    recompile with -DPLUGINS to activate
 
 Dipole corrections
   LMONO      =      F    monopole corrections only (constant potential shift)
   LDIPOL     =      F    correct potential (dipole corrections)
   IDIPOL     =      0    1-x, 2-y, 3-z, 4-all directions 
   EPSILON    =  1.0000000 bulk dielectric constant
   LVACPOTAV  =      F  vacuum potentials using an averaging scheme for the charge density
   VACPOTFLAT =  0.1000000 required flatness to determine vacuum potential
 
Coulomb truncation method
  LTRUNCATE          =      F  Coulomb kernel truncation to be used

 
 Exchange correlation treatment:
   GGA     = PE    functional components
   XC_C    = 1    coefficients multiplying the functional components
   LIBXC   =     F    Libxc                    
   VOSKOWN =     0    Vosko Wilk Nusair interpolation
   EXXOEP  =     0    0=HF, 1=EXX-LHF (local Hartree Fock) 2=EXX OEP
   LHFCALC =     T    Hartree Fock is set to
   LSYMGRAD=     F    symmetrize gradient (conserves proper symmetry)
   PRECFOCK=fast      Normal, Fast or Accurate (Low or Medium for compatibility)
   LRHFCALC=     F    long range Hartree Fock
   LRSCOR  =     F    long range correlation only (use DFT for short range part)
   LTHOMAS =     F    Thomas Fermi screening in HF
   LMODELHF=     F    short range full HF, long range fraction AEXX
   FOCKCORR=     1    mode to apply convergence corrections
   LFOCKACE=     T    use Adeptively-Compressed-Exchange operator
   ENCUT4O =  -1.0   cutoff for four orbital integrals eV
   LMAXFOCK=     4    L truncation for augmentation on plane wave grid
   LMAXFOCKAE=  -1    L truncation for all-electron charge restoration on plane wave grid
   NMAXFOCKAE=   1    number of basis functions for all-electron charge restoration
   LFOCKAEDFT=     F  apply the AE augmentation even for DFT
   NKREDX  =     1    reduce k-point grid by
   NKREDY  =     1    reduce k-point grid by
   NKREDZ  =     1    reduce k-point grid by
   SHIFTRED=     F    shift reduced grid of Gamma
   HFKIDENT=     F    idential grid for each k-point
   ODDONLY =     F    use only odd q-grid points
   EVENONLY=     F    use only even q-grid points
   HFALPHA =   -1.0000 decay constant for conv. correction
   MCALPHA =    0.0000 extent of test-charge in conv. correction in multipole expansion
   AEXX    =    0.3600 exact exchange contribution
   HFSCREEN=    0.2000 screening length (either q_TF or 0.3 A-1)
   HFSCREENC=   0.2000 screening length for correlation (either q_TF or 0.3 A-1)
   HFRCUT  =    0.0000 spherical cutoff for potential kernel
   ALDAX   =    0.6400 LDA exchange part
   AGGAX   =    0.6400 GGA exchange part
   AMGGAX  =    0.6400 meta-GGA exchange part
   ALDAC   =    1.0000 LDA correlation
   AGGAC   =    1.0000 GGA correlation
   AMGGAC  =    1.0000 meta-GGA correlation
   ENCUTFOCK=  -1.0 apply spherical cutoff to Coloumb kernel
   NBANDSGWLOW=     1    first orbital included in HF term
   NBLOCK_FOCK=    64    blocking factor in FOCK_ACC

 Parameters of functionals:
   PE:
     No parameter
 
 Van der Waals corrections
   IVDW    =     0    specifies the selected vdW correction

 Linear response parameters
   LEPSILON=     F    determine dielectric tensor
   LRPA    =     F    only Hartree local field effects (RPA)
   LNABLA  =     F    use nabla operator in PAW spheres
   LVEL    =     F    velocity operator in full k-point grid
   CSHIFT  =0.1000    complex shift for real part using Kramers Kronig
   OMEGAMAX=  -1.0    maximum frequency
   DEG_THRESHOLD= 0.2000000E-02 threshold for treating states as degnerate
   RTIME   =   -0.100 relaxation time in fs
  (WPLASMAI=    0.000 imaginary part of plasma frequency in eV, 0.658/RTIME)
   DFIELD  = 0.0000000 0.0000000 0.0000000 field for delta impulse in time
 
  Optional k-point grid parameters
   LKPOINTS_OPT  =     F    use optional k-point grid
   KPOINTS_OPT_MODE=     1    mode for optional k-point grid
 
 Orbital magnetization related:
   ORBITALMAG=     F  switch on orbital magnetization
   LCHIMAG   =     F  perturbation theory with respect to B field
   DQ        =  0.001000  dq finite difference perturbation B field
   LLRAUG    =     F  two centre corrections for induced B field
   LBONE     =     F  B-component reconstruction in AE one-centre
   LVGVCALC  =     T  calculate vGv susceptibility
   LVGVAPPL  =     F  apply vGv susceptibility instead of pGv for G=0

 Random number generation:
   RANDOM_GENERATOR = DEFAULT
   PCG_SEED         = not used


--------------------------------------------------------------------------------------------------------


 conjugate gradient relaxation of ions
 charge density and potential will be updated during run
 non-spin polarized calculation
 Conjugate gradient for all bands (Freysoldt, et al. PRB 79, 241103 (2009))
 perform sub-space diagonalisation
    before iterative eigenvector-optimisation
 modified Broyden-mixing scheme, WC =      100.0
 initial mixing is a Kerker type mixing with AMIX =  0.4000 and BMIX =      1.0000
 Hartree-type preconditioning will be used
 using additional bands           64
 reciprocal scheme for non local part
 use partial core corrections
 no Harris-corrections to forces 
 use gradient corrections 
 use of overlap-Matrix (Vanderbilt PP)
 Gauss-broadening in eV      SIGMA  =   0.10


--------------------------------------------------------------------------------------------------------


  energy-cutoff  :      400.00
  volume of cell :      689.05
      direct lattice vectors                 reciprocal lattice vectors
    -5.564122625  5.564122625  5.564122625    -0.000000000  0.089861427  0.089861427
     5.564122625 -5.564122625  5.564122625     0.089861427 -0.000000000  0.089861427
     5.564122625  5.564122625 -5.564122625     0.089861427  0.089861427 -0.000000000

  length of vectors
     9.637343086  9.637343086  9.637343086     0.127083249  0.127083249  0.127083249


 
 k-points in units of 2pi/SCALE and weight: Num irrep kpoints: 2                    
   0.04493071  0.04493071  0.04493071       0.250
   0.04493071  0.00000000 -0.00000000       0.750
 
 k-points in reciprocal lattice and weights: Num irrep kpoints: 2                    
   0.25000000  0.25000000  0.25000000       0.250
  -0.25000000  0.25000000  0.25000000       0.750
 
 position of ions in fractional coordinates (direct lattice) 
   0.71953843  0.75000000  0.46953843
   0.25000000  0.03046157  0.78046157
   0.46953843  0.71953843  0.75000000
   0.75000000  0.46953843  0.71953843
   0.03046157  0.78046157  0.25000000
   0.78046157  0.25000000  0.03046157
   0.28046157  0.25000000  0.53046157
   0.75000000  0.96953843  0.21953843
   0.53046157  0.28046157  0.25000000
   0.25000000  0.53046157  0.28046157
   0.96953843  0.21953843  0.75000000
   0.21953843  0.75000000  0.96953843
   0.50000000  0.50000000  0.00000000
   0.00000000  0.00000000  0.00000000
   0.00000000  0.50000000  0.50000000
   0.50000000  0.00000000  0.50000000
   0.23084243  0.27104993  0.75874703
   0.01230290  0.47209540  0.74125297
   0.26915757  0.02790460  0.04020750
   0.74125297  0.01230290  0.47209540
   0.27104993  0.75874703  0.23084243
   0.22895007  0.45979250  0.48769710
   0.45979250  0.48769710  0.22895007
   0.47209540  0.74125297  0.01230290
   0.04020750  0.26915757  0.02790460
   0.02790460  0.04020750  0.26915757
   0.75874703  0.23084243  0.27104993
   0.48769710  0.22895007  0.45979250
   0.76915757  0.72895007  0.24125297
   0.98769710  0.52790460  0.25874703
   0.73084243  0.97209540  0.95979250
   0.25874703  0.98769710  0.52790460
   0.51230290  0.77104993  0.54020750
   0.24125297  0.76915757  0.72895007
   0.97209540  0.95979250  0.73084243
   0.95979250  0.73084243  0.97209540
   0.52790460  0.25874703  0.98769710
   0.54020750  0.51230290  0.77104993
   0.77104993  0.54020750  0.51230290
   0.72895007  0.24125297  0.76915757
 
 position of ions in cartesian coordinates  (Angst):
   2.78206131  2.44307749  5.56412262
   3.12104513  5.56412263 -2.78206131
   5.56412263  2.78206131  2.44307749
   2.44307749  5.56412263  2.78206131
   5.56412263 -2.78206131  3.12104513
  -2.78206131  3.12104513  5.56412263
   2.78206131  3.12104513  0.00000000
   2.44307749  0.00000000  8.34618394
   0.00000000  2.78206131  3.12104513
   3.12104513 -0.00000000  2.78206131
  -0.00000000  8.34618394  2.44307749
   8.34618394  2.44307749 -0.00000000
   0.00000000  0.00000000  5.56412263
   0.00000000  0.00000000  0.00000000
   5.56412263  0.00000000  0.00000000
   0.00000000  5.56412263  0.00000000
   4.44548098  3.99804206 -1.42917088
   6.68276427  1.56608057 -1.42917088
  -1.11864165  1.56608057  1.42917088
  -1.42917088  6.68276427  1.56608057
   3.99804206 -1.42917088  4.44548098
   3.99804206  1.42917088  1.11864165
   1.42917088  1.11864165  3.99804206
   1.56608057 -1.42917088  6.68276427
   1.42917088 -1.11864165  1.56608057
   1.56608057  1.42917088 -1.11864165
  -1.42917088  4.44548098  3.99804206
   1.11864165  3.99804206  1.42917088
   1.11864165  1.56608057  6.99329351
  -1.11864165  3.99804206  6.99329351
   6.68276427  3.99804206  4.13495174
   6.99329351 -1.11864165  3.99804206
   4.44548098  1.56608057  4.13495174
   6.99329351  1.11864165  1.56608057
   3.99804206  4.13495174  6.68276427
   4.13495174  6.68276427  3.99804206
   3.99804206  6.99329351 -1.11864165
   4.13495174  4.44548098  1.56608057
   1.56608057  4.13495174  4.44548098
   1.56608057  6.99329351  1.11864165
 


--------------------------------------------------------------------------------------------------------


 k-point     1 :   0.2500 0.2500 0.2500  plane waves:   12532
 k-point     2 :  -0.2500 0.2500 0.2500  plane waves:   12522

 maximum and minimum number of plane-waves per node :     12532    12522

 maximum number of plane-waves:     12532
 maximum index in each direction: 
   IXMAX=   15   IYMAX=   15   IZMAX=   15
   IXMIN=  -15   IYMIN=  -15   IZMIN=  -15


 serial   3D FFT for wavefunctions
 parallel 3D FFT for charge:
    minimum data exchange during FFTs selected (reduces bandwidth)


 FFT grid for exact exchange (Hartree Fock) 
  NGX = 32; NGY = 32; NGZ = 32

 
 Radii for the augmentation spheres in the non-local exchange
 for species   1 augmentation radius   1.784 (default was   1.321)
       energy cutoff for augmentation   1600.0
 for species   2 augmentation radius   0.974 (default was   0.722)
       energy cutoff for augmentation   1600.0
 Maximum index for augmentation-charges in exchange         1139
  SETUP_FOCK is finished

 total amount of memory used by VASP MPI-rank0    62758. kBytes
=======================================================================

   base                                    :      30000. kBytes
   nonl-proj                               :      15253. kBytes
   fftplans                                :       1075. kBytes
   grid                                    :       5508. kBytes
   one-center                              :        622. kBytes
   HF                                      :        129. kBytes
   nonlr-proj                              :       5161. kBytes
   wavefun                                 :       5010. kBytes
 
     INWAV:  cpu time      0.0000: real time      0.0003
 Broyden mixing: mesh for mixing (old mesh)
   NGX = 31   NGY = 31   NGZ = 31
  (NGX  = 96   NGY  = 96   NGZ  = 96)
  gives a total of  29791 points

 initial charge density was supplied:
 charge density of overlapping atoms calculated
 number of electron     320.0000000 magnetization 
 keeping initial charge density in first step


--------------------------------------------------------------------------------------------------------


 Maximum index for augmentation-charges          571 (set IRDMAX)


--------------------------------------------------------------------------------------------------------


 First call to EWALD:  gamma=   0.201
 Maximum number of real-space cells   3x   3x   3
 Maximum number of reciprocal cells   3x   3x   3

    FEWALD:  cpu time      0.0123: real time      0.0126


--------------------------------------- Ionic step        1  -------------------------------------------




--------------------------------------- Iteration      1(   1)  ---------------------------------------


    POTLOK:  cpu time      0.0298: real time      0.0365
    SETDIJ:  cpu time      0.0562: real time      0.0570
    TRIAL :  cpu time      0.4552: real time      0.6987
    CORREC:  cpu time      0.0008: real time      0.0008
    --------------------------------------------
      LOOP:  cpu time      0.5447: real time      0.7963

 eigenvalue-minimisations  :  1344
 total energy-change (2. order) :-0.3152584E+05  (-0.1504302E+05)
 number of electron     320.0000000 magnetization 
 augmentation part      320.0000000 magnetization 

 Free energy of the ion-electron system (eV)
  ---------------------------------------------------
  alpha Z        PSCENC =      2064.76616134
  Ewald energy   TEWEN  =    -20296.40085970
  -Hartree energ DENC   =     -5286.51276004
  -exchange      EXHF   =         0.00000000
  -V(xc)+E(xc)   XCENC  =      1095.93435419
  PAW double counting   =     19843.41839182   -53283.05869380
  entropy T*S    EENTRO =        -0.05038828
  eigenvalues    EBANDS =      -973.06151320
  atomic energy  EATOM  =     25309.12248401
  ---------------------------------------------------
  free energy    TOTEN  =    -31525.84282367 eV

  energy without entropy =   -31525.79243539  energy(sigma->0) =   -31525.81762953
  exchange ACFDT corr.  =         0.00000000  see jH, gK, PRB 81, 115126


--------------------------------------------------------------------------------------------------------




--------------------------------------- Iteration      1(   2)  ---------------------------------------


    TRIAL :  cpu time      0.4660: real time      0.4699
    CORREC:  cpu time      0.0001: real time      0.0001
    --------------------------------------------
      LOOP:  cpu time      0.4779: real time      0.4938

 eigenvalue-minimisations  :  1680
 total energy-change (2. order) :-0.2912984E+04  (-0.2772347E+04)
 number of electron     320.0000000 magnetization 
 augmentation part      320.0000000 magnetization 

 Free energy of the ion-electron system (eV)
  ---------------------------------------------------
  alpha Z        PSCENC =      2064.76616134
  Ewald energy   TEWEN  =    -20296.40085970
  -Hartree energ DENC   =     -5286.51276004
  -exchange      EXHF   =         0.00000000
  -V(xc)+E(xc)   XCENC  =      1095.93435419
  PAW double counting   =     19843.41839182   -53283.05869380
  entropy T*S    EENTRO =        -0.00000000
  eigenvalues    EBANDS =     -3886.09613664
  atomic energy  EATOM  =     25309.12248401
  ---------------------------------------------------
  free energy    TOTEN  =    -34438.82705884 eV

  energy without entropy =   -34438.82705884  energy(sigma->0) =   -34438.82705884
  exchange ACFDT corr.  =         0.00000000  see jH, gK, PRB 81, 115126


--------------------------------------------------------------------------------------------------------




--------------------------------------- Iteration      1(   3)  ---------------------------------------


    TRIAL :  cpu time      0.4622: real time      0.4669
    CORREC:  cpu time      0.0001: real time      0.0001
    --------------------------------------------
      LOOP:  cpu time      0.4819: real time      0.4901

 eigenvalue-minimisations  :  1680
 total energy-change (2. order) :-0.3669547E+03  (-0.3588342E+03)
 number of electron     320.0000000 magnetization 
 augmentation part      320.0000000 magnetization 

 Free energy of the ion-electron system (eV)
  ---------------------------------------------------
  alpha Z        PSCENC =      2064.76616134
  Ewald energy   TEWEN  =    -20296.40085970
  -Hartree energ DENC   =     -5286.51276004
  -exchange      EXHF   =         0.00000000
  -V(xc)+E(xc)   XCENC  =      1095.93435419
  PAW double counting   =     19843.41839182   -53283.05869380
  entropy T*S    EENTRO =        -0.00000000
  eigenvalues    EBANDS =     -4253.05083732
  atomic energy  EATOM  =     25309.12248401
  ---------------------------------------------------
  free energy    TOTEN  =    -34805.78175951 eV

  energy without entropy =   -34805.78175951  energy(sigma->0) =   -34805.78175951
  exchange ACFDT corr.  =         0.00000000  see jH, gK, PRB 81, 115126


--------------------------------------------------------------------------------------------------------




--------------------------------------- Iteration      1(   4)  ---------------------------------------


    TRIAL :  cpu time      0.4623: real time      0.4830
    CORREC:  cpu time      0.0002: real time      0.0002
    --------------------------------------------
      LOOP:  cpu time      0.4767: real time      0.5057

 eigenvalue-minimisations  :  1624
 total energy-change (2. order) :-0.4386636E+02  (-0.4338023E+02)
 number of electron     320.0000000 magnetization 
 augmentation part      320.0000000 magnetization 

 Free energy of the ion-electron system (eV)
  ---------------------------------------------------
  alpha Z        PSCENC =      2064.76616134
  Ewald energy   TEWEN  =    -20296.40085970
  -Hartree energ DENC   =     -5286.51276004
  -exchange      EXHF   =         0.00000000
  -V(xc)+E(xc)   XCENC  =      1095.93435419
  PAW double counting   =     19843.41839182   -53283.05869380
  entropy T*S    EENTRO =        -0.00000000
  eigenvalues    EBANDS =     -4296.91720121
  atomic energy  EATOM  =     25309.12248401
  ---------------------------------------------------
  free energy    TOTEN  =    -34849.64812340 eV

  energy without entropy =   -34849.64812340  energy(sigma->0) =   -34849.64812340
  exchange ACFDT corr.  =         0.00000000  see jH, gK, PRB 81, 115126


--------------------------------------------------------------------------------------------------------




--------------------------------------- Iteration      1(   5)  ---------------------------------------


    POTLOK:  cpu time      0.0231: real time      0.0232
    SETDIJ:  cpu time      0.1870: real time      0.1876
    TRIAL :  cpu time      9.1516: real time      9.2139
    CORREC:  cpu time      0.0001: real time      0.0001
    CHARGE:  cpu time      0.0231: real time      0.0241
    --------------------------------------------
      LOOP:  cpu time      9.3971: real time      9.4710

 eigenvalue-minimisations  :  1624
 total energy-change (2. order) : 0.3435742E+05  (-0.1663556E+02)
 number of electron     319.9999274 magnetization 
 augmentation part       35.9811553 magnetization 

 Free energy of the ion-electron system (eV)
  ---------------------------------------------------
  alpha Z        PSCENC =      2064.76616134
  Ewald energy   TEWEN  =    -20296.40085970
  -Hartree energ DENC   =     -5286.51276004
  -exchange      EXHF   =      1336.59269948
  -V(xc)+E(xc)   XCENC  =       723.64885481
  PAW double counting   =     20191.15289987   -19702.54620992
  entropy T*S    EENTRO =        -0.00000000
  eigenvalues    EBANDS =     -4832.05374671
  atomic energy  EATOM  =     25309.12248401
  ---------------------------------------------------
  free energy    TOTEN  =      -492.23047687 eV

  energy without entropy =     -492.23047687  energy(sigma->0) =     -492.23047687
  exchange ACFDT corr.  =        -0.00000000  see jH, gK, PRB 81, 115126


--------------------------------------------------------------------------------------------------------




--------------------------------------- Iteration      1(   6)  ---------------------------------------


    POTLOK:  cpu time      0.0240: real time      0.0241
    SETDIJ:  cpu time      0.1861: real time      0.1867
    TRIAL :  cpu time      8.7236: real time      8.7660
    CORREC:  cpu time      0.0002: real time      0.0002
    CHARGE:  cpu time      0.0143: real time      0.0144
    --------------------------------------------
      LOOP:  cpu time      8.9680: real time      9.0137

 eigenvalue-minimisations  :     0
 total energy-change (2. order) : 0.2204228E+03  (-0.3192939E+03)
 number of electron     319.9999464 magnetization 
 augmentation part       31.9334487 magnetization 

 Free energy of the ion-electron system (eV)
  ---------------------------------------------------
  alpha Z        PSCENC =      2064.76616134
  Ewald energy   TEWEN  =    -20296.40085970
  -Hartree energ DENC   =     -7011.41494811
  -exchange      EXHF   =      1341.64594204
  -V(xc)+E(xc)   XCENC  =       791.75458704
  PAW double counting   =     28950.33054919   -28640.02775233
  entropy T*S    EENTRO =        -0.00000000
  eigenvalues    EBANDS =     -2781.58379777
  atomic energy  EATOM  =     25309.12248401
  ---------------------------------------------------
  free energy    TOTEN  =      -271.80763429 eV

  energy without entropy =     -271.80763429  energy(sigma->0) =     -271.80763429
  exchange ACFDT corr.  =        -0.00000000  see jH, gK, PRB 81, 115126


--------------------------------------------------------------------------------------------------------




--------------------------------------- Iteration      1(   7)  ---------------------------------------


    POTLOK:  cpu time      0.0232: real time      0.0234
    SETDIJ:  cpu time      0.1854: real time      0.1859
    TRIAL :  cpu time      8.7083: real time      8.7474
    CORREC:  cpu time      0.0002: real time      0.0002
    CHARGE:  cpu time      0.0145: real time      0.0145
    --------------------------------------------
      LOOP:  cpu time      8.9420: real time      8.9949

 eigenvalue-minimisations  :     0
 total energy-change (2. order) :-0.1206044E+03  (-0.5105122E+01)
 number of electron     319.9999515 magnetization 
 augmentation part       29.9396978 magnetization 

 Free energy of the ion-electron system (eV)
  ---------------------------------------------------
  alpha Z        PSCENC =      2064.76616134
  Ewald energy   TEWEN  =    -20296.40085970
  -Hartree energ DENC   =     -5623.88751314
  -exchange      EXHF   =      1234.54244581
  -V(xc)+E(xc)   XCENC  =       735.10830386
  PAW double counting   =     29632.44119947   -29290.12188039
  entropy T*S    EENTRO =        -0.00000000
  eigenvalues    EBANDS =     -4157.98233686
  atomic energy  EATOM  =     25309.12248401
  ---------------------------------------------------
  free energy    TOTEN  =      -392.41199561 eV

  energy without entropy =     -392.41199561  energy(sigma->0) =     -392.41199561
  exchange ACFDT corr.  =        -0.49236016  see jH, gK, PRB 81, 115126


--------------------------------------------------------------------------------------------------------




--------------------------------------- Iteration      1(   8)  ---------------------------------------


    POTLOK:  cpu time      0.0242: real time      0.0244
    SETDIJ:  cpu time      0.1841: real time      0.1847
    TRIAL :  cpu time      8.6936: real time      8.7331
    CORREC:  cpu time      0.0002: real time      0.0002
    CHARGE:  cpu time      0.0143: real time      0.0143
    --------------------------------------------
      LOOP:  cpu time      8.9281: real time      8.9804

 eigenvalue-minimisations  :     0
 total energy-change (2. order) : 0.3304560E+01  (-0.4926190E+02)
 number of electron     319.9999481 magnetization 
 augmentation part       29.7881112 magnetization 

 Free energy of the ion-electron system (eV)
  ---------------------------------------------------
  alpha Z        PSCENC =      2064.76616134
  Ewald energy   TEWEN  =    -20296.40085970
  -Hartree energ DENC   =     -5403.82493674
  -exchange      EXHF   =      1216.82835369
  -V(xc)+E(xc)   XCENC  =       725.89879431
  PAW double counting   =     29585.25273799   -29238.21083254
  entropy T*S    EENTRO =        -0.00000000
  eigenvalues    EBANDS =     -4352.53933820
  atomic energy  EATOM  =     25309.12248401
  ---------------------------------------------------
  free energy    TOTEN  =      -389.10743584 eV

  energy without entropy =     -389.10743584  energy(sigma->0) =     -389.10743584
  exchange ACFDT corr.  =        -0.00000000  see jH, gK, PRB 81, 115126


--------------------------------------------------------------------------------------------------------




--------------------------------------- Iteration      1(   9)  ---------------------------------------


    POTLOK:  cpu time      0.0233: real time      0.0235
    SETDIJ:  cpu time      0.1867: real time      0.1872
    TRIAL :  cpu time      8.6972: real time      8.7450
    CORREC:  cpu time      0.0001: real time      0.0001
    CHARGE:  cpu time      0.0139: real time      0.0140
    --------------------------------------------
      LOOP:  cpu time      8.9382: real time      8.9938

 eigenvalue-minimisations  :     0
 total energy-change (2. order) :-0.2608638E+02  (-0.6230153E+01)
 number of electron     319.9999456 magnetization 
 augmentation part       30.0947488 magnetization 

 Free energy of the ion-electron system (eV)
  ---------------------------------------------------
  alpha Z        PSCENC =      2064.76616134
  Ewald energy   TEWEN  =    -20296.40085970
  -Hartree energ DENC   =     -5724.44819542
  -exchange      EXHF   =      1240.80833883
  -V(xc)+E(xc)   XCENC  =       739.50102065
  PAW double counting   =     29124.18852993   -28782.00535012
  entropy T*S    EENTRO =        -0.00000000
  eigenvalues    EBANDS =     -4090.72594998
  atomic energy  EATOM  =     25309.12248401
  ---------------------------------------------------
  free energy    TOTEN  =      -415.19382046 eV

  energy without entropy =     -415.19382046  energy(sigma->0) =     -415.19382046
  exchange ACFDT corr.  =         0.00000000  see jH, gK, PRB 81, 115126


--------------------------------------------------------------------------------------------------------




--------------------------------------- Iteration      1(  10)  ---------------------------------------


    POTLOK:  cpu time      0.0232: real time      0.0233
    SETDIJ:  cpu time      0.1856: real time      0.1861
    TRIAL :  cpu time      8.7043: real time      8.7439
    CORREC:  cpu time      0.0002: real time      0.0002
    CHARGE:  cpu time      0.0139: real time      0.0139
    --------------------------------------------
      LOOP:  cpu time      8.9501: real time      8.9910

 eigenvalue-minimisations  :     0
 total energy-change (2. order) :-0.1457617E+01  (-0.5195445E+01)
 number of electron     319.9999458 magnetization 
 augmentation part       30.0390151 magnetization 

 Free energy of the ion-electron system (eV)
  ---------------------------------------------------
  alpha Z        PSCENC =      2064.76616134
  Ewald energy   TEWEN  =    -20296.40085970
  -Hartree energ DENC   =     -5890.44847716
  -exchange      EXHF   =      1252.11287070
  -V(xc)+E(xc)   XCENC  =       746.34733929
  PAW double counting   =     28856.96861894   -28513.85699969
  entropy T*S    EENTRO =        -0.00000000
  eigenvalues    EBANDS =     -3945.26257512
  atomic energy  EATOM  =     25309.12248401
  ---------------------------------------------------
  free energy    TOTEN  =      -416.65143738 eV

  energy without entropy =     -416.65143738  energy(sigma->0) =     -416.65143738
  exchange ACFDT corr.  =        -0.00000000  see jH, gK, PRB 81, 115126


--------------------------------------------------------------------------------------------------------




--------------------------------------- Iteration      1(  11)  ---------------------------------------


    POTLOK:  cpu time      0.0234: real time      0.0235
    SETDIJ:  cpu time      0.1853: real time      0.1859
    TRIAL :  cpu time      8.8517: real time      8.8904
    CORREC:  cpu time      0.0002: real time      0.0002
    CHARGE:  cpu time      0.0138: real time      0.0138
    --------------------------------------------
      LOOP:  cpu time      9.0920: real time      9.1376

 eigenvalue-minimisations  :     0
 total energy-change (2. order) :-0.3170788E+01  (-0.1528120E+01)
 number of electron     319.9999466 magnetization 
 augmentation part       29.7622440 magnetization 

 Free energy of the ion-electron system (eV)
  ---------------------------------------------------
  alpha Z        PSCENC =      2064.76616134
  Ewald energy   TEWEN  =    -20296.40085970
  -Hartree energ DENC   =     -5822.21557802
  -exchange      EXHF   =      1245.35524313
  -V(xc)+E(xc)   XCENC  =       743.45273558
  PAW double counting   =     28784.11423839   -28436.58766592
  entropy T*S    EENTRO =        -0.00000000
  eigenvalues    EBANDS =     -4011.42898414
  atomic energy  EATOM  =     25309.12248401
  ---------------------------------------------------
  free energy    TOTEN  =      -419.82222535 eV

  energy without entropy =     -419.82222535  energy(sigma->0) =     -419.82222535
  exchange ACFDT corr.  =        -0.00000000  see jH, gK, PRB 81, 115126


--------------------------------------------------------------------------------------------------------




--------------------------------------- Iteration      1(  12)  ---------------------------------------


    POTLOK:  cpu time      0.0227: real time      0.0228
    SETDIJ:  cpu time      0.1861: real time      0.1866
    TRIAL :  cpu time      8.6952: real time      8.7341
    CORREC:  cpu time      0.0001: real time      0.0001
    CHARGE:  cpu time      0.0137: real time      0.0138
    --------------------------------------------
      LOOP:  cpu time      8.9340: real time      8.9799

 eigenvalue-minimisations  :     0
 total energy-change (2. order) :-0.4407315E+00  (-0.5333240E+00)
 number of electron     319.9999465 magnetization 
 augmentation part       29.5406975 magnetization 

 Free energy of the ion-electron system (eV)
  ---------------------------------------------------
  alpha Z        PSCENC =      2064.76616134
  Ewald energy   TEWEN  =    -20296.40085970
  -Hartree energ DENC   =     -5741.23489904
  -exchange      EXHF   =      1238.17632471
  -V(xc)+E(xc)   XCENC  =       740.09218019
  PAW double counting   =     28786.52819651   -28436.14820712
  entropy T*S    EENTRO =        -0.00000000
  eigenvalues    EBANDS =     -4085.16433770
  atomic energy  EATOM  =     25309.12248401
  ---------------------------------------------------
  free energy    TOTEN  =      -420.26295681 eV

  energy without entropy =     -420.26295681  energy(sigma->0) =     -420.26295681
  exchange ACFDT corr.  =        -0.00000000  see jH, gK, PRB 81, 115126


--------------------------------------------------------------------------------------------------------




--------------------------------------- Iteration      1(  13)  ---------------------------------------


    POTLOK:  cpu time      0.0241: real time      0.0242
    SETDIJ:  cpu time      0.1854: real time      0.1859
    TRIAL :  cpu time      8.7126: real time      8.7498
    CORREC:  cpu time      0.0001: real time      0.0001
    CHARGE:  cpu time      0.0138: real time      0.0139
    --------------------------------------------
      LOOP:  cpu time      8.9508: real time      8.9985

 eigenvalue-minimisations  :     0
 total energy-change (2. order) :-0.3469111E+00  (-0.3308566E+00)
 number of electron     319.9999463 magnetization 
 augmentation part       29.4444409 magnetization 

 Free energy of the ion-electron system (eV)
  ---------------------------------------------------
  alpha Z        PSCENC =      2064.76616134
  Ewald energy   TEWEN  =    -20296.40085970
  -Hartree energ DENC   =     -5741.01115459
  -exchange      EXHF   =      1237.87401872
  -V(xc)+E(xc)   XCENC  =       740.13692793
  PAW double counting   =     28795.36336211   -28444.85116001
  entropy T*S    EENTRO =        -0.00000000
  eigenvalues    EBANDS =     -4085.60964775
  atomic energy  EATOM  =     25309.12248401
  ---------------------------------------------------
  free energy    TOTEN  =      -420.60986794 eV

  energy without entropy =     -420.60986794  energy(sigma->0) =     -420.60986794
  exchange ACFDT corr.  =        -0.00000000  see jH, gK, PRB 81, 115126


--------------------------------------------------------------------------------------------------------




--------------------------------------- Iteration      1(  14)  ---------------------------------------


    POTLOK:  cpu time      0.0231: real time      0.0232
    SETDIJ:  cpu time      0.1862: real time      0.1868
    TRIAL :  cpu time      8.6911: real time      8.7300
    CORREC:  cpu time      0.0001: real time      0.0001
    CHARGE:  cpu time      0.0138: real time      0.0139
    --------------------------------------------
      LOOP:  cpu time      8.9260: real time      8.9781

 eigenvalue-minimisations  :     0
 total energy-change (2. order) :-0.1570047E+00  (-0.8101604E-01)
 number of electron     319.9999462 magnetization 
 augmentation part       29.4072121 magnetization 

 Free energy of the ion-electron system (eV)
  ---------------------------------------------------
  alpha Z        PSCENC =      2064.76616134
  Ewald energy   TEWEN  =    -20296.40085970
  -Hartree energ DENC   =     -5765.94981345
  -exchange      EXHF   =      1239.77118896
  -V(xc)+E(xc)   XCENC  =       741.19137117
  PAW double counting   =     28811.21646779   -28460.24137165
  entropy T*S    EENTRO =        -0.00000000
  eigenvalues    EBANDS =     -4064.24250109
  atomic energy  EATOM  =     25309.12248401
  ---------------------------------------------------
  free energy    TOTEN  =      -420.76687264 eV

  energy without entropy =     -420.76687264  energy(sigma->0) =     -420.76687264
  exchange ACFDT corr.  =        -0.00000000  see jH, gK, PRB 81, 115126


--------------------------------------------------------------------------------------------------------




--------------------------------------- Iteration      1(  15)  ---------------------------------------


    POTLOK:  cpu time      0.0241: real time      0.0242
    SETDIJ:  cpu time      0.1849: real time      0.1854
    TRIAL :  cpu time      8.7049: real time      8.7432
    CORREC:  cpu time      0.0001: real time      0.0001
    CHARGE:  cpu time      0.0138: real time      0.0139
    --------------------------------------------
      LOOP:  cpu time      8.9474: real time      8.9901

 eigenvalue-minimisations  :     0
 total energy-change (2. order) :-0.5851125E-01  (-0.7918166E-01)
 number of electron     319.9999462 magnetization 
 augmentation part       29.3580846 magnetization 

 Free energy of the ion-electron system (eV)
  ---------------------------------------------------
  alpha Z        PSCENC =      2064.76616134
  Ewald energy   TEWEN  =    -20296.40085970
  -Hartree energ DENC   =     -5773.94184071
  -exchange      EXHF   =      1240.39293307
  -V(xc)+E(xc)   XCENC  =       741.50586634
  PAW double counting   =     28837.36787673   -28485.07032838
  entropy T*S    EENTRO =        -0.00000000
  eigenvalues    EBANDS =     -4058.56767659
  atomic energy  EATOM  =     25309.12248401
  ---------------------------------------------------
  free energy    TOTEN  =      -420.82538389 eV

  energy without entropy =     -420.82538389  energy(sigma->0) =     -420.82538389
  exchange ACFDT corr.  =        -0.00000000  see jH, gK, PRB 81, 115126


--------------------------------------------------------------------------------------------------------




--------------------------------------- Iteration      1(  16)  ---------------------------------------


    POTLOK:  cpu time      0.0239: real time      0.0241
    SETDIJ:  cpu time      0.1848: real time      0.1853
    TRIAL :  cpu time      8.7289: real time      8.7676
    CORREC:  cpu time      0.0001: real time      0.0001
    CHARGE:  cpu time      0.0138: real time      0.0139
    --------------------------------------------
      LOOP:  cpu time      8.9664: real time      9.0152

 eigenvalue-minimisations  :     0
 total energy-change (2. order) :-0.5697425E-01  (-0.3360402E-01)
 number of electron     319.9999462 magnetization 
 augmentation part       29.3002867 magnetization 

 Free energy of the ion-electron system (eV)
  ---------------------------------------------------
  alpha Z        PSCENC =      2064.76616134
  Ewald energy   TEWEN  =    -20296.40085970
  -Hartree energ DENC   =     -5768.49793596
  -exchange      EXHF   =      1239.96760452
  -V(xc)+E(xc)   XCENC  =       741.26236917
  PAW double counting   =     28863.15287254   -28509.65873519
  entropy T*S    EENTRO =        -0.00000000
  eigenvalues    EBANDS =     -4064.59631886
  atomic energy  EATOM  =     25309.12248401
  ---------------------------------------------------
  free energy    TOTEN  =      -420.88235813 eV

  energy without entropy =     -420.88235813  energy(sigma->0) =     -420.88235813
  exchange ACFDT corr.  =        -0.00000000  see jH, gK, PRB 81, 115126


--------------------------------------------------------------------------------------------------------




--------------------------------------- Iteration      1(  17)  ---------------------------------------


    POTLOK:  cpu time      0.0217: real time      0.0218
    SETDIJ:  cpu time      0.1862: real time      0.1867
    TRIAL :  cpu time      8.7075: real time      8.7461
    CORREC:  cpu time      0.0001: real time      0.0001
    CHARGE:  cpu time      0.0136: real time      0.0137
    --------------------------------------------
      LOOP:  cpu time      8.9407: real time      8.9911

 eigenvalue-minimisations  :     0
 total energy-change (2. order) :-0.2672582E-01  (-0.2417038E-01)
 number of electron     319.9999462 magnetization 
 augmentation part       29.2466077 magnetization 

 Free energy of the ion-electron system (eV)
  ---------------------------------------------------
  alpha Z        PSCENC =      2064.76616134
  Ewald energy   TEWEN  =    -20296.40085970
  -Hartree energ DENC   =     -5764.28364028
  -exchange      EXHF   =      1239.64860892
  -V(xc)+E(xc)   XCENC  =       741.07968939
  PAW double counting   =     28881.96207587   -28527.72958603
  entropy T*S    EENTRO =        -0.00000000
  eigenvalues    EBANDS =     -4069.07401747
  atomic energy  EATOM  =     25309.12248401
  ---------------------------------------------------
  free energy    TOTEN  =      -420.90908396 eV

  energy without entropy =     -420.90908396  energy(sigma->0) =     -420.90908396
  exchange ACFDT corr.  =        -0.00000000  see jH, gK, PRB 81, 115126


--------------------------------------------------------------------------------------------------------




--------------------------------------- Iteration      1(  18)  ---------------------------------------


    POTLOK:  cpu time      0.0236: real time      0.0238
    SETDIJ:  cpu time      0.1864: real time      0.1870
    TRIAL :  cpu time      8.6984: real time      8.7369
    CORREC:  cpu time      0.0001: real time      0.0001
    CHARGE:  cpu time      0.0138: real time      0.0139
    --------------------------------------------
      LOOP:  cpu time      8.9385: real time      8.9853

 eigenvalue-minimisations  :     0
 total energy-change (2. order) :-0.2153785E-01  (-0.1770385E-01)
 number of electron     319.9999462 magnetization 
 augmentation part       29.2065535 magnetization 

 Free energy of the ion-electron system (eV)
  ---------------------------------------------------
  alpha Z        PSCENC =      2064.76616134
  Ewald energy   TEWEN  =    -20296.40085970
  -Hartree energ DENC   =     -5764.77736996
  -exchange      EXHF   =      1239.70434018
  -V(xc)+E(xc)   XCENC  =       741.09741734
  PAW double counting   =     28894.33607402   -28539.63548629
  entropy T*S    EENTRO =        -0.00000000
  eigenvalues    EBANDS =     -4069.14338276
  atomic energy  EATOM  =     25309.12248401
  ---------------------------------------------------
  free energy    TOTEN  =      -420.93062181 eV

  energy without entropy =     -420.93062181  energy(sigma->0) =     -420.93062181
  exchange ACFDT corr.  =        -0.00000000  see jH, gK, PRB 81, 115126


--------------------------------------------------------------------------------------------------------




--------------------------------------- Iteration      1(  19)  ---------------------------------------


    POTLOK:  cpu time      0.0250: real time      0.0251
    SETDIJ:  cpu time      0.1865: real time      0.1870
    TRIAL :  cpu time      8.7118: real time      8.7509
    CORREC:  cpu time      0.0001: real time      0.0001
    CHARGE:  cpu time      0.0137: real time      0.0138
    --------------------------------------------
      LOOP:  cpu time      8.9487: real time      9.0020

 eigenvalue-minimisations  :     0
 total energy-change (2. order) :-0.1578507E-01  (-0.1231256E-01)
 number of electron     319.9999462 magnetization 
 augmentation part       29.1774774 magnetization 

 Free energy of the ion-electron system (eV)
  ---------------------------------------------------
  alpha Z        PSCENC =      2064.76616134
  Ewald energy   TEWEN  =    -20296.40085970
  -Hartree energ DENC   =     -5767.03221129
  -exchange      EXHF   =      1239.89069001
  -V(xc)+E(xc)   XCENC  =       741.18663587
  PAW double counting   =     28903.61228512   -28548.45565217
  entropy T*S    EENTRO =        -0.00000000
  eigenvalues    EBANDS =     -4067.63594007
  atomic energy  EATOM  =     25309.12248401
  ---------------------------------------------------
  free energy    TOTEN  =      -420.94640689 eV

  energy without entropy =     -420.94640689  energy(sigma->0) =     -420.94640689
  exchange ACFDT corr.  =        -0.00000000  see jH, gK, PRB 81, 115126


--------------------------------------------------------------------------------------------------------




--------------------------------------- Iteration      1(  20)  ---------------------------------------


    POTLOK:  cpu time      0.0245: real time      0.0247
    SETDIJ:  cpu time      0.1860: real time      0.1866
    TRIAL :  cpu time      8.7020: real time      8.7414
    CORREC:  cpu time      0.0001: real time      0.0001
    CHARGE:  cpu time      0.0138: real time      0.0139
    --------------------------------------------
      LOOP:  cpu time      8.9447: real time      8.9914

 eigenvalue-minimisations  :     0
 total energy-change (2. order) :-0.1163281E-01  (-0.9480284E-02)
 number of electron     319.9999462 magnetization 
 augmentation part       29.1525790 magnetization 

 Free energy of the ion-electron system (eV)
  ---------------------------------------------------
  alpha Z        PSCENC =      2064.76616134
  Ewald energy   TEWEN  =    -20296.40085970
  -Hartree energ DENC   =     -5768.26797731
  -exchange      EXHF   =      1239.98679296
  -V(xc)+E(xc)   XCENC  =       741.23197825
  PAW double counting   =     28911.54079130   -28555.92121729
  entropy T*S    EENTRO =        -0.00000000
  eigenvalues    EBANDS =     -4067.01619325
  atomic energy  EATOM  =     25309.12248401
  ---------------------------------------------------
  free energy    TOTEN  =      -420.95803970 eV

  energy without entropy =     -420.95803970  energy(sigma->0) =     -420.95803970
  exchange ACFDT corr.  =        -0.00000000  see jH, gK, PRB 81, 115126


--------------------------------------------------------------------------------------------------------




--------------------------------------- Iteration      1(  21)  ---------------------------------------


    POTLOK:  cpu time      0.0245: real time      0.0246
    SETDIJ:  cpu time      0.1849: real time      0.1854
    TRIAL :  cpu time      8.6984: real time      8.7361
    CORREC:  cpu time      0.0001: real time      0.0001
    CHARGE:  cpu time      0.0140: real time      0.0141
    --------------------------------------------
      LOOP:  cpu time      8.9355: real time      8.9851

 eigenvalue-minimisations  :     0
 total energy-change (2. order) :-0.9032857E-02  (-0.7238317E-02)
 number of electron     319.9999462 magnetization 
 augmentation part       29.1296994 magnetization 

 Free energy of the ion-electron system (eV)
  ---------------------------------------------------
  alpha Z        PSCENC =      2064.76616134
  Ewald energy   TEWEN  =    -20296.40085970
  -Hartree energ DENC   =     -5768.41342224
  -exchange      EXHF   =      1239.99045099
  -V(xc)+E(xc)   XCENC  =       741.23312216
  PAW double counting   =     28918.22520036   -28562.21755693
  entropy T*S    EENTRO =        -0.00000000
  eigenvalues    EBANDS =     -4067.27265255
  atomic energy  EATOM  =     25309.12248401
  ---------------------------------------------------
  free energy    TOTEN  =      -420.96707256 eV

  energy without entropy =     -420.96707256  energy(sigma->0) =     -420.96707256
  exchange ACFDT corr.  =        -0.00000000  see jH, gK, PRB 81, 115126


--------------------------------------------------------------------------------------------------------




--------------------------------------- Iteration      1(  22)  ---------------------------------------


    POTLOK:  cpu time      0.0232: real time      0.0233
    SETDIJ:  cpu time      0.1866: real time      0.1871
    TRIAL :  cpu time      8.7479: real time      8.7903
    CORREC:  cpu time      0.0001: real time      0.0001
    CHARGE:  cpu time      0.0137: real time      0.0138
    --------------------------------------------
      LOOP:  cpu time      8.9872: real time      9.0382

 eigenvalue-minimisations  :     0
 total energy-change (2. order) :-0.6974088E-02  (-0.5757747E-02)
 number of electron     319.9999462 magnetization 
 augmentation part       29.1090007 magnetization 

 Free energy of the ion-electron system (eV)
  ---------------------------------------------------
  alpha Z        PSCENC =      2064.76616134
  Ewald energy   TEWEN  =    -20296.40085970
  -Hartree energ DENC   =     -5768.35349231
  -exchange      EXHF   =      1239.97622508
  -V(xc)+E(xc)   XCENC  =       741.22733680
  PAW double counting   =     28923.64992189   -28567.34110243
  entropy T*S    EENTRO =        -0.00000000
  eigenvalues    EBANDS =     -4067.62072132
  atomic energy  EATOM  =     25309.12248401
  ---------------------------------------------------
  free energy    TOTEN  =      -420.97404665 eV

  energy without entropy =     -420.97404665  energy(sigma->0) =     -420.97404665
  exchange ACFDT corr.  =        -0.00000000  see jH, gK, PRB 81, 115126


--------------------------------------------------------------------------------------------------------




--------------------------------------- Iteration      1(  23)  ---------------------------------------


    POTLOK:  cpu time      0.0233: real time      0.0234
    SETDIJ:  cpu time      0.1861: real time      0.1866
    TRIAL :  cpu time      8.7053: real time      8.7436
    CORREC:  cpu time      0.0001: real time      0.0001
    CHARGE:  cpu time      0.0138: real time      0.0139
    --------------------------------------------
      LOOP:  cpu time      8.9402: real time      8.9915

 eigenvalue-minimisations  :     0
 total energy-change (2. order) :-0.5588751E-02  (-0.4701853E-02)
 number of electron     319.9999462 magnetization 
 augmentation part       29.0911429 magnetization 

 Free energy of the ion-electron system (eV)
  ---------------------------------------------------
  alpha Z        PSCENC =      2064.76616134
  Ewald energy   TEWEN  =    -20296.40085970
  -Hartree energ DENC   =     -5768.49037425
  -exchange      EXHF   =      1239.97812567
  -V(xc)+E(xc)   XCENC  =       741.23059684
  PAW double counting   =     28928.07097917   -28571.51584236
  entropy T*S    EENTRO =        -0.00000000
  eigenvalues    EBANDS =     -4067.74090612
  atomic energy  EATOM  =     25309.12248401
  ---------------------------------------------------
  free energy    TOTEN  =      -420.97963540 eV

  energy without entropy =     -420.97963540  energy(sigma->0) =     -420.97963540
[...]
 -0.000  -0.000   0.000 -13.834   0.010  -0.000   3.286  -0.013
 -0.000  -0.000   0.000   0.010 -13.825  -0.000  -0.013   3.274
  0.002  -0.001   3.291  -0.000  -0.000   9.420   0.000   0.000
  0.000  -0.000  -0.000   3.286  -0.013   0.000   9.423   0.006
  0.000  -0.000  -0.000  -0.013   3.274   0.000   0.006   9.428
  0.000   0.000  -0.000   0.002  -0.003   0.000  -0.003   0.004
  0.000   0.000  -0.000  -0.004   0.002   0.000   0.005  -0.003
 -0.001  -0.001  -0.001  -0.000  -0.000   0.002   0.000   0.000
  0.004   0.005   0.002  -0.000  -0.000  -0.003   0.000   0.000
  0.003   0.003  -0.002  -0.000  -0.000   0.003   0.000   0.000
  0.000   0.000  -0.000   0.003  -0.004   0.000  -0.003   0.005
  0.000   0.000  -0.000  -0.005   0.003   0.000   0.006  -0.003
 -0.001  -0.001  -0.002  -0.000  -0.000   0.003   0.000   0.000
  0.006   0.007   0.003  -0.000  -0.000  -0.003   0.000   0.000
  0.004   0.004  -0.002  -0.000  -0.000   0.004   0.000   0.000
 total augmentation occupancy for first ion, spin component:           1
  2.005  -0.011   0.000   0.000   0.000   0.001  -0.000  -0.000   0.000   0.000  -0.000  -0.001   0.001  -0.000  -0.000   0.001
 -0.011   0.716   0.007   0.000   0.000  -0.005  -0.000  -0.000   0.000   0.000  -0.038   0.065   0.093  -0.000  -0.000   0.021
  0.000   0.007   2.009   0.000   0.000  -0.043   0.000   0.000  -0.000  -0.000   0.032  -0.027   0.040   0.000   0.000  -0.008
  0.000   0.000   0.000   2.009   0.002   0.000  -0.044  -0.005  -0.044   0.042  -0.000  -0.000  -0.000   0.007  -0.008   0.000
  0.000   0.000   0.000   0.002   2.010   0.000  -0.005  -0.048   0.034  -0.043  -0.000  -0.000  -0.000  -0.006   0.007   0.000
  0.001  -0.005  -0.043   0.000   0.000   0.065  -0.000  -0.000  -0.000  -0.000  -0.081   0.132  -0.117   0.000   0.000   0.046
 -0.000  -0.000   0.000  -0.044  -0.005  -0.000   0.067   0.005   0.155  -0.118  -0.000  -0.000   0.000  -0.088   0.066   0.000
 -0.000  -0.000   0.000  -0.005  -0.048  -0.000   0.005   0.073  -0.104   0.156   0.000  -0.000  -0.000   0.059  -0.088  -0.000
  0.000   0.000  -0.000  -0.044   0.034  -0.000   0.155  -0.104   4.405   1.364   0.000   0.000  -0.000  -2.546  -0.818  -0.000
  0.000   0.000  -0.000   0.042  -0.043  -0.000  -0.118   0.156   1.364   4.208   0.000   0.000   0.000  -0.818  -2.423  -0.000
 -0.000  -0.038   0.032  -0.000  -0.000  -0.081  -0.000   0.000   0.000   0.000   1.692  -0.180   0.127  -0.000  -0.000  -0.946
 -0.001   0.065  -0.027  -0.000  -0.000   0.132  -0.000  -0.000   0.000   0.000  -0.180   5.088  -1.056  -0.000  -0.000   0.104
  0.001   0.093   0.040  -0.000  -0.000  -0.117   0.000  -0.000  -0.000   0.000   0.127  -1.056   2.069   0.000  -0.000  -0.073
 -0.000  -0.000   0.000   0.007  -0.006   0.000  -0.088   0.059  -2.546  -0.818  -0.000  -0.000   0.000   1.480   0.493   0.000
 -0.000  -0.000   0.000  -0.008   0.007   0.000   0.066  -0.088  -0.818  -2.423  -0.000  -0.000  -0.000   0.493   1.403   0.000
  0.001   0.021  -0.008   0.000   0.000   0.046   0.000  -0.000  -0.000  -0.000  -0.946   0.104  -0.073   0.000   0.000   0.530
 -0.003  -0.041  -0.000   0.000   0.000  -0.077   0.000   0.000  -0.000  -0.000   0.105  -2.949   0.620  -0.000   0.000  -0.062
 -0.004  -0.055  -0.009   0.000   0.000   0.067  -0.000   0.000   0.000  -0.000  -0.074   0.619  -1.166  -0.000   0.000   0.043


------------------------ aborting loop because EDIFF is reached ----------------------------------------





 total charge

# of ion       s       p       d       tot
------------------------------------------
    1        2.094   5.944   0.819   8.857
    2        2.094   5.944   0.819   8.857
    3        2.094   5.944   0.819   8.857
    4        2.094   5.944   0.819   8.857
    5        2.094   5.944   0.819   8.857
    6        2.094   5.944   0.819   8.857
    7        2.094   5.944   0.819   8.857
    8        2.094   5.944   0.819   8.857
    9        2.094   5.944   0.819   8.857
   10        2.094   5.944   0.819   8.857
   11        2.094   5.944   0.819   8.857
   12        2.094   5.944   0.819   8.857
   13        2.092   5.950   0.777   8.819
   14        2.092   5.950   0.777   8.819
   15        2.092   5.950   0.777   8.819
   16        2.092   5.950   0.777   8.819
   17        1.588   3.527   0.000   5.115
   18        1.588   3.527   0.000   5.115
   19        1.588   3.527   0.000   5.115
   20        1.588   3.527   0.000   5.115
   21        1.588   3.527   0.000   5.115
   22        1.588   3.527   0.000   5.115
   23        1.588   3.527   0.000   5.115
   24        1.588   3.527   0.000   5.115
   25        1.588   3.527   0.000   5.115
   26        1.588   3.527   0.000   5.115
   27        1.588   3.527   0.000   5.115
   28        1.588   3.527   0.000   5.115
   29        1.588   3.527   0.000   5.115
   30        1.588   3.527   0.000   5.115
   31        1.588   3.527   0.000   5.115
   32        1.588   3.527   0.000   5.115
   33        1.588   3.527   0.000   5.115
   34        1.588   3.527   0.000   5.115
   35        1.588   3.527   0.000   5.115
   36        1.588   3.527   0.000   5.115
   37        1.588   3.527   0.000   5.115
   38        1.588   3.527   0.000   5.115
   39        1.588   3.527   0.000   5.115
   40        1.588   3.527   0.000   5.115
--------------------------------------------------
tot         71.603 179.770  12.942 264.315
 
    FORLOC:  cpu time      0.0069: real time      0.0070
    FORHF :  cpu time     19.8497: real time     19.9429
    FORNL :  cpu time      0.0488: real time      0.0493
    STRESS:  cpu time      0.2121: real time      0.2139
    FORCOR:  cpu time      0.0252: real time      0.0256
    OFIELD:  cpu time      0.0018: real time      0.0020

  FORCE on cell =-STRESS in cart. coord.  units (eV):
  Direction    XX          YY          ZZ          XY          YZ          ZX
  --------------------------------------------------------------------------------------
  Alpha Z  2187.13188  2187.13188  2187.13188
  Ewald   -6896.38044 -6896.38044 -6896.38044    -0.00000    -0.00000    -0.00000
  Hartree  1874.35999  1874.36000  1874.36000    -0.00576    -0.00576    -0.00577
  E(xc)    -910.96752  -910.96752  -910.96752    -0.00008    -0.00008    -0.00008
  Local    -177.64823  -177.64826  -177.64825     0.00220     0.00220     0.00222
  n-local  -810.63515  -810.91498  -810.93089    -0.00242    -0.00240    -0.00241
  augment   223.77099   223.77099   223.77099    -0.00016    -0.00016    -0.00016
  Kinetic  5350.99530  5352.04785  5352.12243     0.02477     0.02479     0.02478
  Fock     -841.13770  -841.16352  -841.16776    -0.00975    -0.00968    -0.00975
  -------------------------------------------------------------------------------------
  Total       0.00519     0.00519     0.00519    -0.00000     0.00000    -0.00000
  in kB       0.01277     0.01277     0.01277    -0.00000     0.00000    -0.00000
  external pressure =        0.01 kB  Pullay stress =        0.00 kB


 VOLUME and BASIS-vectors are now :
 -----------------------------------------------------------------------------
  energy-cutoff  :      400.00
  volume of cell :      650.50
      direct lattice vectors                 reciprocal lattice vectors
    -5.458357711  5.458357711  5.458357711     0.000000000  0.091602644  0.091602644
     5.458357711 -5.458357711  5.458357711     0.091602644  0.000000000  0.091602644
     5.458357711  5.458357711 -5.458357711     0.091602644  0.091602644  0.000000000

  length of vectors
     9.454152881  9.454152881  9.454152881     0.129545702  0.129545702  0.129545702


 FORCES acting on ions:
    Electron-Ion                     Ewald-Force                    Non-Local-Force
 -----------------------------------------------------------------------------------------------
   -.290E-05 -.767E+02 0.298E-04   -.495E-11 0.763E+02 0.172E-10   0.196E-20 0.297E-01 -.196E-20
   0.767E+02 -.664E-04 -.411E-04   -.763E+02 0.510E-11 -.109E-11   -.297E-01 -.187E-18 -.138E-18
   0.326E-04 -.495E-05 -.767E+02   0.173E-10 -.513E-11 0.763E+02   -.255E-19 0.821E-19 0.297E-01
   -.767E+02 0.288E-04 -.439E-05   0.763E+02 0.172E-10 -.498E-11   0.297E-01 -.992E-19 -.922E-20
   -.666E-04 -.426E-04 0.767E+02   0.506E-11 -.981E-12 -.763E+02   0.348E-20 -.368E-19 -.297E-01
   -.419E-04 0.767E+02 -.683E-04   -.936E-12 -.763E+02 0.515E-11   -.448E-19 -.297E-01 0.448E-19
   0.290E-05 0.767E+02 -.298E-04   0.487E-11 -.763E+02 -.172E-10   0.171E-18 -.297E-01 -.171E-18
   -.767E+02 0.664E-04 0.411E-04   0.763E+02 -.542E-11 0.134E-11   0.297E-01 0.151E-18 0.660E-19
   -.326E-04 0.495E-05 0.767E+02   -.171E-10 0.492E-11 -.763E+02   0.870E-19 0.164E-18 -.297E-01
   0.767E+02 -.288E-04 0.439E-05   -.763E+02 -.172E-10 0.471E-11   -.297E-01 0.927E-19 0.124E-18
   0.666E-04 0.426E-04 -.767E+02   -.539E-11 0.113E-11 0.763E+02   0.162E-18 -.540E-19 0.297E-01
   0.419E-04 -.767E+02 0.683E-04   0.119E-11 0.763E+02 -.544E-11   -.340E-19 0.297E-01 0.340E-19
   -.343E-11 0.258E-11 -.173E-11   -.172E-12 0.306E-12 -.916E-14   -.674E-24 0.258E-22 0.404E-22
   0.133E-12 0.103E-12 -.167E-12   0.276E-12 0.239E-12 0.104E-12   -.841E-23 0.511E-22 -.379E-22
   0.149E-12 -.474E-13 -.271E-13   -.283E-12 -.186E-12 0.277E-12   -.248E-22 0.513E-22 -.248E-22
   -.133E-11 -.115E-11 0.129E-11   0.159E-12 -.104E-12 -.331E-12   -.351E-22 -.351E-22 -.427E-22
   -.372E+02 0.483E+02 0.503E+01   0.389E+02 -.495E+02 -.502E+01   -.134E+01 0.103E+01 -.407E-02
   0.372E+02 -.483E+02 0.502E+01   -.389E+02 0.495E+02 -.502E+01   0.134E+01 -.103E+01 -.407E-02
   -.372E+02 -.483E+02 -.502E+01   0.389E+02 0.495E+02 0.502E+01   -.134E+01 -.103E+01 0.407E-02
   0.503E+01 0.372E+02 -.483E+02   -.502E+01 -.389E+02 0.495E+02   -.407E-02 0.134E+01 -.103E+01
   0.483E+02 0.503E+01 -.372E+02   -.495E+02 -.502E+01 0.389E+02   0.103E+01 -.407E-02 -.134E+01
   0.483E+02 -.502E+01 0.372E+02   -.495E+02 0.502E+01 -.389E+02   0.103E+01 0.407E-02 0.134E+01
   -.502E+01 0.372E+02 0.483E+02   0.502E+01 -.389E+02 -.495E+02   0.407E-02 0.134E+01 0.103E+01
   -.483E+02 0.502E+01 0.372E+02   0.495E+02 -.502E+01 -.389E+02   -.103E+01 -.407E-02 0.134E+01
   -.502E+01 -.372E+02 -.483E+02   0.502E+01 0.389E+02 0.495E+02   0.407E-02 -.134E+01 -.103E+01
   -.483E+02 -.502E+01 -.372E+02   0.495E+02 0.502E+01 0.389E+02   -.103E+01 0.407E-02 -.134E+01
   0.503E+01 -.372E+02 0.483E+02   -.502E+01 0.389E+02 -.495E+02   -.407E-02 -.134E+01 0.103E+01
   0.372E+02 0.483E+02 -.502E+01   -.389E+02 -.495E+02 0.502E+01   0.134E+01 0.103E+01 0.407E-02
   0.372E+02 -.483E+02 -.503E+01   -.389E+02 0.495E+02 0.502E+01   0.134E+01 -.103E+01 0.407E-02
   -.372E+02 0.483E+02 -.502E+01   0.389E+02 -.495E+02 0.502E+01   -.134E+01 0.103E+01 0.407E-02
   0.372E+02 0.483E+02 0.502E+01   -.389E+02 -.495E+02 -.502E+01   0.134E+01 0.103E+01 -.407E-02
   -.503E+01 -.372E+02 0.483E+02   0.502E+01 0.389E+02 -.495E+02   0.407E-02 -.134E+01 0.103E+01
   -.372E+02 -.483E+02 0.502E+01   0.389E+02 0.495E+02 -.502E+01   -.134E+01 -.103E+01 -.407E-02
   -.503E+01 0.372E+02 -.483E+02   0.502E+01 -.389E+02 0.495E+02   0.407E-02 0.134E+01 -.103E+01
   0.483E+02 0.502E+01 0.372E+02   -.495E+02 -.502E+01 -.389E+02   0.103E+01 -.407E-02 0.134E+01
   0.502E+01 0.372E+02 0.483E+02   -.502E+01 -.389E+02 -.495E+02   -.407E-02 0.134E+01 0.103E+01
   0.483E+02 -.502E+01 -.372E+02   -.495E+02 0.502E+01 0.389E+02   0.103E+01 0.407E-02 -.134E+01
   0.502E+01 -.372E+02 -.483E+02   -.502E+01 0.389E+02 0.495E+02   -.407E-02 -.134E+01 -.103E+01
   -.483E+02 0.502E+01 -.372E+02   0.495E+02 -.502E+01 0.389E+02   -.103E+01 -.407E-02 -.134E+01
   -.483E+02 -.503E+01 0.372E+02   0.495E+02 0.502E+01 -.389E+02   -.103E+01 0.407E-02 0.134E+01
 -----------------------------------------------------------------------------------------------
   0.587E-08 -.795E-09 0.194E-08   -.121E-12 0.302E-13 0.284E-13   -.111E-14 -.662E-15 -.666E-15
 
 
 POSITION                                       TOTAL-FORCE (eV/Angst)
 -----------------------------------------------------------------------------------
      2.72918      2.39512      5.45836        -0.000000      0.000059     -0.000000
      3.06324      5.45836     -2.72918        -0.000059      0.000000     -0.000000
      5.45836      2.72918      2.39512        -0.000000      0.000000      0.000059
      2.39512      5.45836      2.72918         0.000059      0.000000     -0.000000
      5.45836     -2.72918      3.06324        -0.000000      0.000000     -0.000059
     -2.72918      3.06324      5.45836        -0.000000     -0.000059     -0.000000
      2.72918      3.06324     -0.00000        -0.000000     -0.000059     -0.000000
      2.39512      0.00000      8.18754         0.000059      0.000000     -0.000000
     -0.00000      2.72918      3.06324        -0.000000      0.000000     -0.000059
      3.06324     -0.00000      2.72918        -0.000059      0.000000     -0.000000
      0.00000      8.18754      2.39512        -0.000000      0.000000      0.000059
      8.18754      2.39512     -0.00000        -0.000000      0.000059      0.000000
      5.45836      5.45836      0.00000        -0.000000      0.000000     -0.000000
      5.45836      5.45836     -5.45836        -0.000000      0.000000      0.000000
      5.45836      0.00000      0.00000        -0.000000      0.000000      0.000000
      0.00000      5.45836      0.00000        -0.000000      0.000000      0.000000
      4.36011      3.92057     -1.40045        -0.004495     -0.000404     -0.001131
      6.55661      1.53779     -1.40045         0.004495      0.000404     -0.001131
     -1.09825      1.53779      1.40045        -0.004495      0.000404      0.001131
     -1.40045      6.55661      1.53779        -0.001131      0.004495      0.000404
      3.92057     -1.40045      4.36011        -0.000404     -0.001131     -0.004495
      3.92057      1.40045      1.09825        -0.000404      0.001131      0.004495
      1.40045      1.09825      3.92057         0.001131      0.004495     -0.000404
      1.53779     -1.40045      6.55661         0.000404     -0.001131      0.004495
      1.40045     -1.09825      1.53779         0.001131     -0.004495      0.000404
      1.53779      1.40045     -1.09825         0.000404      0.001131     -0.004495
     -1.40045      4.36011      3.92057        -0.001131     -0.004495     -0.000404
      1.09825      3.92057      1.40045         0.004495     -0.000404      0.001131
      1.09825      1.53779      6.85881         0.004495      0.000404      0.001131
     -1.09825      3.92057      6.85881        -0.004495     -0.000404      0.001131
      6.55661      3.92057      4.05791         0.004495     -0.000404     -0.001131
      6.85881     -1.09825      3.92057         0.001131     -0.004495     -0.000404
      4.36011      1.53779      4.05791        -0.004495      0.000404     -0.001131
      6.85881      1.09825      1.53779         0.001131      0.004495      0.000404
      3.92057      4.05791      6.55661        -0.000404     -0.001131      0.004495
      4.05791      6.55661      3.92057        -0.001131      0.004495     -0.000404
      3.92057      6.85881     -1.09825        -0.000404      0.001131     -0.004495
      4.05791      4.36011      1.53779        -0.001131     -0.004495      0.000404
      1.53779      4.05791      4.36011         0.000404     -0.001131     -0.004495
      1.53779      6.85881      1.09825         0.000404      0.001131      0.004495
 -----------------------------------------------------------------------------------
    total drift:                                0.000000     -0.000000      0.000000


--------------------------------------------------------------------------------------------------------



  FREE ENERGIE OF THE ION-ELECTRON SYSTEM (eV)
  ---------------------------------------------------
  free  energy   TOTEN  =      -422.13554904 eV

  energy  without entropy=     -422.13554904  energy(sigma->0) =     -422.13554904
 d Force = 0.1311569E-04[-0.336E-04, 0.598E-04]  d Energy = 0.1250458E-04 0.611E-06
 d Force = 0.1063715E+01[ 0.106E+01, 0.107E+01]  d Ewald  = 0.1458654E+01-0.395E+00
 


--------------------------------------------------------------------------------------------------------


    POTLOK:  cpu time      0.2100: real time      0.2107


--------------------------------------------------------------------------------------------------------




--------------------------------------------------------------------------------------------------------


  
 reached required accuracy - stopping structural energy minimisation
 writing wavefunctions
     LOOP+:  cpu time    250.7914: real time    252.3453
    4ORBIT:  cpu time      0.0002: real time      0.0002



 total charge

# of ion       s       p       d       tot
------------------------------------------
    1        2.094   5.944   0.819   8.857
    2        2.094   5.944   0.819   8.857
    3        2.094   5.944   0.819   8.857
    4        2.094   5.944   0.819   8.857
    5        2.094   5.944   0.819   8.857
    6        2.094   5.944   0.819   8.857
    7        2.094   5.944   0.819   8.857
    8        2.094   5.944   0.819   8.857
    9        2.094   5.944   0.819   8.857
   10        2.094   5.944   0.819   8.857
   11        2.094   5.944   0.819   8.857
   12        2.094   5.944   0.819   8.857
   13        2.092   5.950   0.777   8.819
   14        2.092   5.950   0.777   8.819
   15        2.092   5.950   0.777   8.819
   16        2.092   5.950   0.777   8.819
   17        1.588   3.527   0.000   5.115
   18        1.588   3.527   0.000   5.115
   19        1.588   3.527   0.000   5.115
   20        1.588   3.527   0.000   5.115
   21        1.588   3.527   0.000   5.115
   22        1.588   3.527   0.000   5.115
   23        1.588   3.527   0.000   5.115
   24        1.588   3.527   0.000   5.115
   25        1.588   3.527   0.000   5.115
   26        1.588   3.527   0.000   5.115
   27        1.588   3.527   0.000   5.115
   28        1.588   3.527   0.000   5.115
   29        1.588   3.527   0.000   5.115
   30        1.588   3.527   0.000   5.115
   31        1.588   3.527   0.000   5.115
   32        1.588   3.527   0.000   5.115
   33        1.588   3.527   0.000   5.115
   34        1.588   3.527   0.000   5.115
   35        1.588   3.527   0.000   5.115
   36        1.588   3.527   0.000   5.115
   37        1.588   3.527   0.000   5.115
   38        1.588   3.527   0.000   5.115
   39        1.588   3.527   0.000   5.115
   40        1.588   3.527   0.000   5.115
--------------------------------------------------
tot         71.603 179.770  12.942 264.315
 

 total amount of memory used by VASP MPI-rank0   238040. kBytes
=======================================================================

   base                                    :      30000. kBytes
   nonl-proj                               :      15253. kBytes
   fftplans                                :       1075. kBytes
   grid                                    :       5508. kBytes
   one-center                              :        622. kBytes
   HF                                      :        129. kBytes
   nonlr-proj                              :      86612. kBytes
   wavefun                                 :       5010. kBytes
   fock_wrk                                :      93831. kBytes
 
  
  
 General timing and accounting informations for this job:
 ========================================================
  
                  Total CPU time used (sec):     4437.012
                            User time (sec):     4413.977
                          System time (sec):       23.035
                         Elapsed time (sec):     4465.135
  
                   Maximum memory used (kb):      892540.
                   Average memory used (kb):          N/A
  
                          Minor page faults:       217527
                          Major page faults:         5988
                 Voluntary context switches:        43570
