<?xml version="1.0" encoding="ISO-8859-1"?>
<modeling>
 <generator>
  <i name="program" type="string">vasp </i>
  <i name="version" type="string">6.5.1  </i>
  <i name="subversion" type="string">10Mar25 (build May 05 2025 13:45:00) complex                          parallel </i>
  <i name="platform" type="string">LinuxIFC </i>
  <i name="date" type="string">2026 04 27 </i>
  <i name="time" type="string">13:57:14 </i>
 </generator>
 <incar>
  <i type="string" name="PREC">Normal</i>
  <i type="string" name="ALGO">Damped</i>
  <i type="int" name="NELM">   100</i>
  <i type="int" name="IBRION">     2</i>
  <i name="EDIFF">      0.00000010</i>
  <i name="EDIFFG">     -0.00500000</i>
  <i type="int" name="NSW">   300</i>
  <i type="int" name="ISIF">     3</i>
  <i name="ENCUT">    400.00000000</i>
  <i type="logical" name="LREAL"> F  </i>
  <i name="TIME">      0.40000000</i>
  <i type="int" name="ISMEAR">     0</i>
  <i name="SIGMA">      0.10000000</i>
  <i type="logical" name="LWAVE"> T  </i>
  <i type="logical" name="LCHARG"> F  </i>
  <i type="int" name="LORBIT">    10</i>
  <i type="logical" name="LASPH"> T  </i>
  <i name="HFSCREEN">      0.20000000</i>
  <i type="logical" name="LHFCALC"> T  </i>
  <i name="AEXX">      0.36000000</i>
  <i type="string" name="PRECFOCK">Fast</i>
 </incar>
 <primitive_cell>
  <structure name="primitive_cell" >
   <crystal>
    <varray name="basis" >
     <v>      -5.56412263       5.56412263       5.56412263 </v>
     <v>       5.56412263      -5.56412263       5.56412263 </v>
     <v>       5.56412263       5.56412263      -5.56412263 </v>
    </varray>
    <i name="volume">    689.04894042 </i>
    <varray name="rec_basis" >
     <v>      -0.00000000       0.08986143       0.08986143 </v>
     <v>       0.08986143      -0.00000000       0.08986143 </v>
     <v>       0.08986143       0.08986143      -0.00000000 </v>
    </varray>
   </crystal>
   <varray name="positions" >
    <v>       0.71953843       0.75000000       0.46953843 </v>
    <v>       0.25000000       0.03046157       0.78046157 </v>
    <v>       0.46953843       0.71953843       0.75000000 </v>
    <v>       0.75000000       0.46953843       0.71953843 </v>
    <v>       0.03046157       0.78046157       0.25000000 </v>
    <v>       0.78046157       0.25000000       0.03046157 </v>
    <v>       0.28046157       0.25000000       0.53046157 </v>
    <v>       0.75000000       0.96953843       0.21953843 </v>
    <v>       0.53046157       0.28046157       0.25000000 </v>
    <v>       0.25000000       0.53046157       0.28046157 </v>
    <v>       0.96953843       0.21953843       0.75000000 </v>
    <v>       0.21953843       0.75000000       0.96953843 </v>
    <v>       0.50000000       0.50000000       1.00000000 </v>
    <v>       0.00000000       0.00000000       0.00000000 </v>
    <v>       0.00000000       0.50000000       0.50000000 </v>
    <v>       0.50000000       1.00000000       0.50000000 </v>
    <v>       0.23084243       0.27104993       0.75874703 </v>
    <v>       0.01230290       0.47209540       0.74125297 </v>
    <v>       0.26915757       0.02790460       0.04020750 </v>
    <v>       0.74125297       0.01230290       0.47209540 </v>
    <v>       0.27104993       0.75874703       0.23084243 </v>
    <v>       0.22895007       0.45979250       0.48769710 </v>
    <v>       0.45979250       0.48769710       0.22895007 </v>
    <v>       0.47209540       0.74125297       0.01230290 </v>
    <v>       0.04020750       0.26915757       0.02790460 </v>
    <v>       0.02790460       0.04020750       0.26915757 </v>
    <v>       0.75874703       0.23084243       0.27104993 </v>
    <v>       0.48769710       0.22895007       0.45979250 </v>
    <v>       0.76915757       0.72895007       0.24125297 </v>
    <v>       0.98769710       0.52790460       0.25874703 </v>
    <v>       0.73084243       0.97209540       0.95979250 </v>
    <v>       0.25874703       0.98769710       0.52790460 </v>
    <v>       0.51230290       0.77104993       0.54020750 </v>
    <v>       0.24125297       0.76915757       0.72895007 </v>
    <v>       0.97209540       0.95979250       0.73084243 </v>
    <v>       0.95979250       0.73084243       0.97209540 </v>
    <v>       0.52790460       0.25874703       0.98769710 </v>
    <v>       0.54020750       0.51230290       0.77104993 </v>
    <v>       0.77104993       0.54020750       0.51230290 </v>
    <v>       0.72895007       0.24125297       0.76915757 </v>
   </varray>
  </structure>
  <varray name="primitive_index" >
   <v type="int" >        1 </v>
   <v type="int" >        2 </v>
   <v type="int" >        3 </v>
   <v type="int" >        4 </v>
   <v type="int" >        5 </v>
   <v type="int" >        6 </v>
   <v type="int" >        7 </v>
   <v type="int" >        8 </v>
   <v type="int" >        9 </v>
   <v type="int" >       10 </v>
   <v type="int" >       11 </v>
   <v type="int" >       12 </v>
   <v type="int" >       13 </v>
   <v type="int" >       14 </v>
   <v type="int" >       15 </v>
   <v type="int" >       16 </v>
   <v type="int" >       17 </v>
   <v type="int" >       18 </v>
   <v type="int" >       19 </v>
   <v type="int" >       20 </v>
   <v type="int" >       21 </v>
   <v type="int" >       22 </v>
   <v type="int" >       23 </v>
   <v type="int" >       24 </v>
   <v type="int" >       25 </v>
   <v type="int" >       26 </v>
   <v type="int" >       27 </v>
   <v type="int" >       28 </v>
   <v type="int" >       29 </v>
   <v type="int" >       30 </v>
   <v type="int" >       31 </v>
   <v type="int" >       32 </v>
   <v type="int" >       33 </v>
   <v type="int" >       34 </v>
   <v type="int" >       35 </v>
   <v type="int" >       36 </v>
   <v type="int" >       37 </v>
   <v type="int" >       38 </v>
   <v type="int" >       39 </v>
   <v type="int" >       40 </v>
  </varray>
 </primitive_cell>
 <kpoints>
  <generation param="Gamma">
   <v type="int" name="divisions">       2        2        2 </v>
   <v name="usershift">      0.50000000       0.50000000       0.50000000 </v>
   <v name="genvec1">      0.50000000       0.00000000      -0.00000000 </v>
   <v name="genvec2">     -0.00000000       0.50000000      -0.00000000 </v>
   <v name="genvec3">     -0.00000000       0.00000000       0.50000000 </v>
   <v name="shift">      0.50000000       0.50000000       0.50000000 </v>
  </generation>
  <varray name="kpointlist" >
   <v>       0.25000000       0.25000000       0.25000000 </v>
   <v>      -0.25000000       0.25000000       0.25000000 </v>
  </varray>
  <varray name="weights" >
   <v>       0.25000000 </v>
   <v>       0.75000000 </v>
  </varray>
 </kpoints>
 <parameters>
  <separator name="general" >
   <i type="string" name="SYSTEM">unknown system</i>
   <i type="logical" name="LCOMPAT"> F  </i>
  </separator>
  <separator name="electronic" >
   <i type="string" name="PREC">normal</i>
   <i name="ENMAX">    400.00000000</i>
   <i name="ENAUG">    605.39200000</i>
   <i name="EDIFF">      0.00000010</i>
   <i type="int" name="IALGO">    53</i>
   <i type="int" name="IWAVPR">    11</i>
   <i type="int" name="NBANDS">   224</i>
   <i type="int" name="NBANDSLOW">    -1</i>
   <i type="int" name="NBANDSHIGH">    -1</i>
   <i name="NELECT">    320.00000000</i>
   <i type="int" name="TURBO">     0</i>
   <i type="int" name="IRESTART">     0</i>
   <i type="int" name="NREBOOT">     0</i>
   <i type="int" name="NMIN">     0</i>
   <i name="EREF">      0.00000000</i>
   <separator name="electronic smearing" >
    <i type="int" name="ISMEAR">     0</i>
    <i name="SIGMA">      0.10000000</i>
    <i name="KSPACING">      0.50000000</i>
    <i type="logical" name="KGAMMA"> T  </i>
    <i type="logical" name="KBLOWUP"> T  </i>
   </separator>
   <separator name="electronic projectors" >
    <i type="logical" name="LREAL"> F  </i>
    <v name="ROPT">      0.00000000      0.00000000</v>
    <i type="int" name="LMAXPAW">  -100</i>
    <i type="int" name="LMAXMIX">     2</i>
    <i type="logical" name="NLSPLINE"> F  </i>
   </separator>
   <separator name="electronic startup" >
    <i type="int" name="ISTART">     0</i>
    <i type="int" name="ICHARG">     2</i>
    <i type="int" name="INIWAV">     1</i>
   </separator>
   <separator name="electronic spin" >
    <i type="int" name="ISPIN">     1</i>
    <i type="logical" name="LNONCOLLINEAR"> F  </i>
    <v name="MAGMOM">      1.00000000      1.00000000      1.00000000      1.00000000      1.00000000      1.00000000      1.00000000      1.00000000      1.00000000      1.00000000      1.00000000      1.00000000      1.00000000      1.00000000      1.00000000      1.00000000      1.00000000      1.00000000      1.00000000      1.00000000
      1.00000000      1.00000000      1.00000000      1.00000000      1.00000000      1.00000000      1.00000000      1.00000000      1.00000000      1.00000000      1.00000000      1.00000000      1.00000000      1.00000000      1.00000000      1.00000000      1.00000000      1.00000000      1.00000000      1.00000000
</v>
    <i name="NUPDOWN">     -1.00000000</i>
    <i type="logical" name="LSORBIT"> F  </i>
    <v name="SAXIS">      0.00000000      0.00000000      1.00000000</v>
    <i type="logical" name="LSPIRAL"> F  </i>
    <v name="QSPIRAL">      0.00000000      0.00000000      0.00000000</v>
    <i type="logical" name="LZEROZ"> F  </i>
   </separator>
   <separator name="electronic exchange-correlation" >
    <i type="logical" name="LASPH"> T  </i>
   </separator>
   <separator name="electronic convergence" >
    <i type="int" name="NELM">   100</i>
    <i type="int" name="NELMDL">    -5</i>
    <i type="int" name="NELMIN">     2</i>
    <i name="ENINI">    400.00000000</i>
    <separator name="electronic convergence detail" >
     <i type="logical" name="LDIAG"> T  </i>
     <i type="logical" name="LSUBROT"> F  </i>
     <i type="logical" name="LROBUST"> F  </i>
     <i type="int" name="ISEARCH">     0</i>
     <i name="WEIMIN">      0.00100000</i>
     <i name="EBREAK">      0.00000000</i>
     <i name="DEPER">      0.30000000</i>
     <i type="int" name="NRMM">     4</i>
     <i name="TIME">      0.40000000</i>
    </separator>
   </separator>
   <separator name="electronic mixer" >
    <i name="AMIX">      0.40000000</i>
    <i name="BMIX">      1.00000000</i>
    <i name="AMIN">      0.10000000</i>
    <i name="AMIX_MAG">      1.60000000</i>
    <i name="BMIX_MAG">      1.00000000</i>
    <separator name="electronic mixer details" >
     <i type="int" name="IMIX">     4</i>
     <i type="logical" name="MIXFIRST"> F  </i>
     <i type="int" name="MAXMIX">   -45</i>
     <i name="WC">    100.00000000</i>
     <i type="int" name="INIMIX">     1</i>
     <i type="int" name="MIXPRE">     1</i>
     <i type="int" name="MREMOVE">     5</i>
    </separator>
   </separator>
   <separator name="electronic dipolcorrection" >
    <i type="logical" name="LDIPOL"> F  </i>
    <i type="logical" name="LMONO"> F  </i>
    <i type="int" name="IDIPOL">     0</i>
    <i name="EPSILON">      1.00000000</i>
    <v name="DIPOL">   -100.00000000   -100.00000000   -100.00000000</v>
    <i name="EFIELD">      0.00000000</i>
    <i type="logical" name="LVACPOTAV"> F  </i>
   </separator>
  </separator>
  <separator name="grids" >
   <i type="int" name="NGX">    48</i>
   <i type="int" name="NGY">    48</i>
   <i type="int" name="NGZ">    48</i>
   <i type="int" name="NGXF">    96</i>
   <i type="int" name="NGYF">    96</i>
   <i type="int" name="NGZF">    96</i>
   <i type="logical" name="ADDGRID"> F  </i>
  </separator>
  <separator name="ionic" >
   <i type="int" name="NSW">   300</i>
   <i type="int" name="IBRION">     2</i>
   <i type="int" name="MDALGO">     0</i>
   <i type="int" name="ISIF">     3</i>
   <i name="PSTRESS">      0.00000000</i>
   <i name="EDIFFG">     -0.00500000</i>
   <i type="int" name="NFREE">     1</i>
   <i name="POTIM">      0.50000000</i>
   <i name="SMASS">     -3.00000000</i>
   <i name="SCALEE">      1.00000000</i>
  </separator>
  <separator name="ionic md" >
   <i name="TEBEG">      0.00010000</i>
   <i name="TEEND">      0.00010000</i>
   <i type="int" name="NBLOCK">     1</i>
   <i type="int" name="KBLOCK">   300</i>
   <i type="int" name="NPACO">   256</i>
   <i name="APACO">     10.00000000</i>
  </separator>
  <separator name="symmetry" >
   <i type="int" name="ISYM">     3</i>
   <i name="SYMPREC">      0.00001000</i>
  </separator>
  <separator name="dos" >
   <i type="int" name="LORBIT">    10</i>
   <v name="RWIGS">     -1.00000000     -1.00000000</v>
   <i type="int" name="NEDOS">   301</i>
   <i name="EMIN">     10.00000000</i>
   <i name="EMAX">    -10.00000000</i>
   <i name="EFERMI">      0.00000000</i>
  </separator>
  <separator name="writing" >
   <i type="int" name="NWRITE">     2</i>
   <i type="logical" name="LWAVE"> T  </i>
   <i type="logical" name="LDOWNSAMPLE"> F  </i>
   <i type="logical" name="LCHARG"> F  </i>
   <i type="logical" name="LPARD"> F  </i>
   <i type="logical" name="LVTOT"> F  </i>
   <i type="logical" name="LVHAR"> F  </i>
   <i type="logical" name="LELF"> F  </i>
   <i type="logical" name="LOPTICS"> F  </i>
   <v name="STM">      0.00000000      0.00000000      0.00000000      0.00000000      0.00000000      0.00000000      0.00000000</v>
  </separator>
  <separator name="performance" >
   <i type="int" name="NPAR">    56</i>
   <i type="int" name="NSIM">     4</i>
   <i type="int" name="NBLK">    -1</i>
   <i type="logical" name="LPLANE"> T  </i>
   <i type="logical" name="LSCALAPACK"> T  </i>
   <i type="logical" name="LSCAAWARE"> F  </i>
   <i type="logical" name="LSCALU"> F  </i>
   <i type="logical" name="LASYNC"> F  </i>
   <i type="logical" name="LORBITALREAL"> F  </i>
  </separator>
  <separator name="miscellaneous" >
   <i type="int" name="IDIOT">     3</i>
   <i type="int" name="PHON_NSTRUCT">    -1</i>
   <i type="logical" name="LMUSIC"> F  </i>
   <v name="POMASS">    144.24000000     16.00000000</v>
   <v name="DARWINR">      0.00000000      0.00000000</v>
   <v name="DARWINV">      1.00000000      1.00000000</v>
   <i type="logical" name="LCORR"> T  </i>
  </separator>
  <i type="logical" name="GGA_COMPAT"> T  </i>
  <i type="logical" name="LBERRY"> F  </i>
  <i type="int" name="ICORELEVEL">     0</i>
  <i type="logical" name="LDAU"> F  </i>
  <i type="int" name="I_CONSTRAINED_M">     0</i>
  <separator name="electronic exchange-correlation" >
   <i type="string" name="GGA    ">PE</i>
   <i type="string" name="XC_C">1</i>
   <i type="int" name="VOSKOWN">     0</i>
   <i type="logical" name="LHFCALC"> T  </i>
   <i type="string" name="PRECFOCK">fast</i>
   <i type="logical" name="LSYMGRAD"> F  </i>
   <i type="logical" name="LHFONE"> F  </i>
   <i type="logical" name="LRHFCALC"> F  </i>
   <i type="logical" name="LTHOMAS"> F  </i>
   <i type="logical" name="LMODELHF"> F  </i>
   <i type="logical" name="LFOCKACE"> T  </i>
   <i name="ENCUT4O">     -1.00000000</i>
   <i type="int" name="EXXOEP">     0</i>
   <i type="int" name="FOURORBIT">     0</i>
   <i name="AEXX">      0.36000000</i>
   <i name="HFALPHA">     -1.00000000</i>
   <i name="MCALPHA">      0.00000000</i>
   <i name="ALDAX">      0.64000000</i>
   <i name="AGGAX">      0.64000000</i>
   <i name="AMGGAX">      0.64000000</i>
   <i name="ALDAC">      1.00000000</i>
   <i name="AGGAC">      1.00000000</i>
   <i name="AMGGAC">      1.00000000</i>
   <i type="int" name="NKREDX">     1</i>
   <i type="int" name="NKREDY">     1</i>
   <i type="int" name="NKREDZ">     1</i>
   <i type="logical" name="SHIFTRED"> F  </i>
   <i type="logical" name="ODDONLY"> F  </i>
   <i type="logical" name="EVENONLY"> F  </i>
   <i type="int" name="LMAXFOCK">     4</i>
   <i type="int" name="NMAXFOCKAE">     1</i>
   <i type="logical" name="LFOCKAEDFT"> F  </i>
   <i name="HFSCREEN">      0.20000000</i>
   <i name="HFSCREENC">      0.20000000</i>
   <i type="int" name="NBANDSGWLOW">     1</i>
  </separator>
  <separator name="vdW DFT" >
   <i type="logical" name="LUSE_VDW"> F  </i>
   <i type="int" name="IVDW_NL">    -1</i>
   <i type="logical" name="LSPIN_VDW"> F  </i>
   <i name="ZAB_VDW">     -0.84910000</i>
   <i name="GAMMA_VDW">      1.39626340</i>
   <i name="ALPHA_VDW">      0.00000000</i>
   <i name="PARAM1">      0.12340000</i>
   <i name="PARAM2">      1.00000000</i>
   <i name="BPARAM">      6.30000000</i>
   <i name="CPARAM">      0.00930000</i>
  </separator>
  <separator name="model GW" >
   <i type="int" name="MODEL_GW">     0</i>
   <i name="MODEL_EPS0">     10.33573411</i>
   <i name="MODEL_ALPHA">      1.00000000</i>
  </separator>
  <separator name="linear response parameters" >
   <i type="logical" name="LEPSILON"> F  </i>
   <i type="logical" name="LRPA"> F  </i>
   <i type="logical" name="LNABLA"> F  </i>
   <i type="logical" name="LVEL"> F  </i>
   <i name="CSHIFT">      0.10000000</i>
   <i name="OMEGAMAX">     -1.00000000</i>
   <i name="DEG_THRESHOLD">      0.00200000</i>
   <i name="RTIME">     -0.10000000</i>
   <i name="WPLASMAI">      0.00000000</i>
   <v name="DFIELD">      0.00000000      0.00000000      0.00000000</v>
   <v name="WPLASMA">      0.00000000      0.00000000      0.00000000      0.00000000      0.00000000      0.00000000      0.00000000      0.00000000      0.00000000</v>
  </separator>
  <separator name="orbital magnetization" >
   <i type="logical" name="NUCIND"> F  </i>
   <v name="MAGPOS">      0.00000000      0.00000000      0.00000000</v>
   <i type="logical" name="LNICSALL"> T  </i>
   <i type="logical" name="ORBITALMAG"> F  </i>
   <i type="logical" name="LMAGBLOCH"> F  </i>
   <i type="logical" name="LCHIMAG"> F  </i>
   <i type="logical" name="LGAUGE"> T  </i>
   <i type="int" name="MAGATOM">     0</i>
   <v name="MAGDIPOL">      0.00000000      0.00000000      0.00000000</v>
   <v name="AVECCONST">      0.00000000      0.00000000      0.00000000</v>
  </separator>
  <separator name="response functions" >
   <i type="logical" name="LALL_IN_ONE"> F  </i>
   <i type="int" name="IALL_IN_ONE">    -1</i>
   <i type="int" name="NBANDS_WAVE">    -1</i>
   <i type="logical" name="LFINITE_TEMPERATURE"> F  </i>
   <i type="logical" name="LADDER"> F  </i>
   <i type="logical" name="LRPAFORCE"> F  </i>
   <i type="logical" name="LFXC"> F  </i>
   <i type="logical" name="LHARTREE"> T  </i>
   <i type="int" name="IBSE">     2</i>
   <v type="int" name="KPOINT">    -1     0     0     0</v>
   <i type="logical" name="LTCTC"> F  </i>
   <i type="logical" name="LTCTE"> F  </i>
   <i type="logical" name="LTETE"> F  </i>
   <i type="logical" name="LTRIPLET"> F  </i>
   <i type="logical" name="LFXCEPS"> F  </i>
   <i type="logical" name="LFXHEG"> F  </i>
   <i type="int" name="NATURALO">     2</i>
   <i type="logical" name="LHOLEGF"> F  </i>
   <i type="logical" name="L2ORDER"> F  </i>
   <i type="logical" name="LDMP1"> F  </i>
   <i type="logical" name="LMP2LT"> F  </i>
   <i type="logical" name="LSMP2LT"> F  </i>
   <i type="logical" name="LGWLF"> F  </i>
   <i name="ENCUTGW">     -1.60000002</i>
   <i name="ENCUTGWSOFT">     -1.60000002</i>
   <i name="ENCUTLF">     -1.00000000</i>
   <i type="logical" name="ESF_SPLINES"> F  </i>
   <i name="ESF_CONV">      0.01000000</i>
   <i type="int" name="ESF_NINTER">    15</i>
   <i type="int" name="LMAXMP2">    -1</i>
   <i name="SCISSOR">      0.00000000</i>
   <i type="int" name="NOMEGA">     0</i>
   <i type="int" name="NOMEGAR">     0</i>
   <i type="int" name="NBANDSGW">    -1</i>
   <i type="int" name="NBANDSO">    -1</i>
   <i type="int" name="NBANDSV">    -1</i>
   <i type="int" name="NELMGW">     1</i>
   <i type="int" name="NELMHF">     1</i>
   <i type="int" name="DIM">     3</i>
   <i type="int" name="IESPILON">     4</i>
   <i type="int" name="ANTIRES">     0</i>
   <i name="OMEGAMAX">    -30.00000000</i>
   <i name="OMEGAMIN">    -30.00000000</i>
   <i name="OMEGATL">   -200.00000000</i>
   <i type="int" name="OMEGAGRID">     0</i>
   <i name="CSHIFT">     -0.10000000</i>
   <i type="logical" name="LSELFENERGY"> F  </i>
   <i type="logical" name="LSPECTRAL"> F  </i>
   <i type="logical" name="LSPECTRALGW"> F  </i>
   <i type="logical" name="LSINGLES"> F  </i>
   <i type="logical" name="LFERMIGW"> F  </i>
   <i type="logical" name="ODDONLYGW"> F  </i>
   <i type="logical" name="EVENONLYGW"> F  </i>
   <i type="int" name="NKREDLFX">     1</i>
   <i type="int" name="NKREDLFY">     1</i>
   <i type="int" name="NKREDLFZ">     1</i>
   <i type="int" name="MAXMEM">  2800</i>
   <i type="int" name="TELESCOPE">     0</i>
   <i type="int" name="NTAUPAR">    -1</i>
   <i type="int" name="NOMEGAPAR">    -1</i>
   <i name="DAMP_NEWTON">      0.80000001</i>
   <i name="LAMBDA">      1.00000000</i>
  </separator>
  <separator name="External order field" >
   <i name="OFIELD_KAPPA">      0.00000000</i>
   <v name="OFIELD_K">      0.00000000      0.00000000      0.00000000</v>
   <i name="OFIELD_Q6_NEAR">      0.00000000</i>
   <i name="OFIELD_Q6_FAR">      0.00000000</i>
   <i name="OFIELD_A">      0.00000000</i>
  </separator>
  <separator name="optional k-points parameters" >
   <i type="int" name="KPOINTS_OPT_MODE">     1</i>
   <i type="logical" name="LKPOINTS_OPT"> F  </i>
  </separator>
 </parameters>
 <atominfo>
  <atoms>      40 </atoms>
  <types>       2 </types>
  <array name="atoms" >
   <dimension dim="1">ion</dimension>
   <field type="string">element</field>
   <field type="int">atomtype</field>
   <set>
    <rc><c>Nd</c><c>   1</c></rc>
    <rc><c>Nd</c><c>   1</c></rc>
    <rc><c>Nd</c><c>   1</c></rc>
    <rc><c>Nd</c><c>   1</c></rc>
    <rc><c>Nd</c><c>   1</c></rc>
    <rc><c>Nd</c><c>   1</c></rc>
    <rc><c>Nd</c><c>   1</c></rc>
    <rc><c>Nd</c><c>   1</c></rc>
    <rc><c>Nd</c><c>   1</c></rc>
    <rc><c>Nd</c><c>   1</c></rc>
    <rc><c>Nd</c><c>   1</c></rc>
    <rc><c>Nd</c><c>   1</c></rc>
    <rc><c>Nd</c><c>   1</c></rc>
    <rc><c>Nd</c><c>   1</c></rc>
    <rc><c>Nd</c><c>   1</c></rc>
    <rc><c>Nd</c><c>   1</c></rc>
    <rc><c>O </c><c>   2</c></rc>
    <rc><c>O </c><c>   2</c></rc>
    <rc><c>O </c><c>   2</c></rc>
    <rc><c>O </c><c>   2</c></rc>
    <rc><c>O </c><c>   2</c></rc>
    <rc><c>O </c><c>   2</c></rc>
    <rc><c>O </c><c>   2</c></rc>
    <rc><c>O </c><c>   2</c></rc>
    <rc><c>O </c><c>   2</c></rc>
    <rc><c>O </c><c>   2</c></rc>
    <rc><c>O </c><c>   2</c></rc>
    <rc><c>O </c><c>   2</c></rc>
    <rc><c>O </c><c>   2</c></rc>
    <rc><c>O </c><c>   2</c></rc>
    <rc><c>O </c><c>   2</c></rc>
    <rc><c>O </c><c>   2</c></rc>
    <rc><c>O </c><c>   2</c></rc>
    <rc><c>O </c><c>   2</c></rc>
    <rc><c>O </c><c>   2</c></rc>
    <rc><c>O </c><c>   2</c></rc>
    <rc><c>O </c><c>   2</c></rc>
    <rc><c>O </c><c>   2</c></rc>
    <rc><c>O </c><c>   2</c></rc>
    <rc><c>O </c><c>   2</c></rc>
   </set>
  </array>
  <array name="atomtypes" >
   <dimension dim="1">type</dimension>
   <field type="int">atomspertype</field>
   <field type="string">element</field>
   <field>mass</field>
   <field>valence</field>
   <field type="string">pseudopotential</field>
   <set>
    <rc><c>  16</c><c>Nd</c><c>    144.24000000</c><c>     11.00000000</c><c>  PAW_PBE Nd_3 06Sep2000                </c></rc>
    <rc><c>  24</c><c>O </c><c>     16.00000000</c><c>      6.00000000</c><c>  PAW_PBE O 08Apr2002                   </c></rc>
   </set>
  </array>
 </atominfo>
 <structure name="initialpos" >
  <crystal>
   <varray name="basis" >
    <v>      -5.56412263       5.56412263       5.56412263 </v>
    <v>       5.56412263      -5.56412263       5.56412263 </v>
    <v>       5.56412263       5.56412263      -5.56412263 </v>
   </varray>
   <i name="volume">    689.04894042 </i>
   <varray name="rec_basis" >
    <v>      -0.00000000       0.08986143       0.08986143 </v>
    <v>       0.08986143      -0.00000000       0.08986143 </v>
    <v>       0.08986143       0.08986143      -0.00000000 </v>
   </varray>
  </crystal>
  <varray name="positions" >
   <v>       0.71953843       0.75000000       0.46953843 </v>
   <v>       0.25000000       0.03046157       0.78046157 </v>
   <v>       0.46953843       0.71953843       0.75000000 </v>
   <v>       0.75000000       0.46953843       0.71953843 </v>
   <v>       0.03046157       0.78046157       0.25000000 </v>
   <v>       0.78046157       0.25000000       0.03046157 </v>
   <v>       0.28046157       0.25000000       0.53046157 </v>
   <v>       0.75000000       0.96953843       0.21953843 </v>
   <v>       0.53046157       0.28046157       0.25000000 </v>
   <v>       0.25000000       0.53046157       0.28046157 </v>
   <v>       0.96953843       0.21953843       0.75000000 </v>
   <v>       0.21953843       0.75000000       0.96953843 </v>
   <v>       0.50000000       0.50000000       0.00000000 </v>
   <v>       0.00000000       0.00000000       0.00000000 </v>
   <v>       0.00000000       0.50000000       0.50000000 </v>
   <v>       0.50000000       0.00000000       0.50000000 </v>
   <v>       0.23084243       0.27104993       0.75874703 </v>
   <v>       0.01230290       0.47209540       0.74125297 </v>
   <v>       0.26915757       0.02790460       0.04020750 </v>
   <v>       0.74125297       0.01230290       0.47209540 </v>
   <v>       0.27104993       0.75874703       0.23084243 </v>
   <v>       0.22895007       0.45979250       0.48769710 </v>
   <v>       0.45979250       0.48769710       0.22895007 </v>
   <v>       0.47209540       0.74125297       0.01230290 </v>
   <v>       0.04020750       0.26915757       0.02790460 </v>
   <v>       0.02790460       0.04020750       0.26915757 </v>
   <v>       0.75874703       0.23084243       0.27104993 </v>
   <v>       0.48769710       0.22895007       0.45979250 </v>
   <v>       0.76915757       0.72895007       0.24125297 </v>
   <v>       0.98769710       0.52790460       0.25874703 </v>
   <v>       0.73084243       0.97209540       0.95979250 </v>
   <v>       0.25874703       0.98769710       0.52790460 </v>
   <v>       0.51230290       0.77104993       0.54020750 </v>
   <v>       0.24125297       0.76915757       0.72895007 </v>
   <v>       0.97209540       0.95979250       0.73084243 </v>
   <v>       0.95979250       0.73084243       0.97209540 </v>
   <v>       0.52790460       0.25874703       0.98769710 </v>
   <v>       0.54020750       0.51230290       0.77104993 </v>
   <v>       0.77104993       0.54020750       0.51230290 </v>
   <v>       0.72895007       0.24125297       0.76915757 </v>
  </varray>
 </structure>
 <calculation>
  <scstep>
   <time name="total">    0.54    0.80</time>
   <energy>
    <i name="alphaZ">   2064.76616134 </i>
    <i name="ewald"> -20296.40085970 </i>
    <i name="hartreedc">  -5286.51276004 </i>
    <i name="XCdc">   1095.93435419 </i>
    <i name="pawpsdc">  19843.41839182 </i>
    <i name="pawaedc"> -53283.05869380 </i>
    <i name="eentropy">     -0.05038828 </i>
    <i name="bandstr">   -973.06151320 </i>
    <i name="atom">  25309.12248401 </i>
    <i name="e_fr_energy"> -31525.84282367 </i>
    <i name="e_wo_entrp"> -31525.79243539 </i>
    <i name="e_0_energy"> -31525.81762953 </i>
   </energy>
  </scstep>
  <scstep>
   <time name="total">    0.48    0.49</time>
   <energy>
    <i name="e_fr_energy"> -34438.82705884 </i>
    <i name="e_wo_entrp"> -34438.82705884 </i>
    <i name="e_0_energy"> -34438.82705884 </i>
   </energy>
  </scstep>
  <scstep>
   <time name="total">    0.48    0.49</time>
   <energy>
    <i name="e_fr_energy"> -34805.78175951 </i>
    <i name="e_wo_entrp"> -34805.78175951 </i>
    <i name="e_0_energy"> -34805.78175951 </i>
   </energy>
  </scstep>
  <scstep>
   <time name="total">    0.48    0.51</time>
   <energy>
    <i name="e_fr_energy"> -34849.64812340 </i>
    <i name="e_wo_entrp"> -34849.64812340 </i>
    <i name="e_0_energy"> -34849.64812340 </i>
   </energy>
  </scstep>
  <scstep>
   <time name="total">    9.40    9.47</time>
   <energy>
    <i name="e_fr_energy">   -492.23047687 </i>
    <i name="e_wo_entrp">   -492.23047687 </i>
    <i name="e_0_energy">   -492.23047687 </i>
   </energy>
  </scstep>
  <scstep>
   <time name="total">    8.97    9.01</time>
   <energy>
    <i name="e_fr_energy">   -271.80763429 </i>
    <i name="e_wo_entrp">   -271.80763429 </i>
    <i name="e_0_energy">   -271.80763429 </i>
   </energy>
  </scstep>
  <scstep>
   <time name="total">    8.94    8.99</time>
   <energy>
    <i name="e_fr_energy">   -392.41199561 </i>
    <i name="e_wo_entrp">   -392.41199561 </i>
    <i name="e_0_energy">   -392.41199561 </i>
   </energy>
  </scstep>
  <scstep>
   <time name="total">    8.93    8.98</time>
   <energy>
    <i name="e_fr_energy">   -389.10743584 </i>
    <i name="e_wo_entrp">   -389.10743584 </i>
    <i name="e_0_energy">   -389.10743584 </i>
   </energy>
  </scstep>
  <scstep>
   <time name="total">    8.94    8.99</time>
   <energy>
    <i name="e_fr_energy">   -415.19382046 </i>
    <i name="e_wo_entrp">   -415.19382046 </i>
    <i name="e_0_energy">   -415.19382046 </i>
   </energy>
  </scstep>
  <scstep>
   <time name="total">    8.95    8.99</time>
   <energy>
    <i name="e_fr_energy">   -416.65143738 </i>
    <i name="e_wo_entrp">   -416.65143738 </i>
    <i name="e_0_energy">   -416.65143738 </i>
   </energy>
  </scstep>
  <scstep>
   <time name="total">    9.09    9.14</time>
   <energy>
    <i name="e_fr_energy">   -419.82222535 </i>
    <i name="e_wo_entrp">   -419.82222535 </i>
    <i name="e_0_energy">   -419.82222535 </i>
   </energy>
  </scstep>
  <scstep>
   <time name="total">    8.93    8.98</time>
   <energy>
    <i name="e_fr_energy">   -420.26295681 </i>
    <i name="e_wo_entrp">   -420.26295681 </i>
    <i name="e_0_energy">   -420.26295681 </i>
   </energy>
  </scstep>
  <scstep>
   <time name="total">    8.95    9.00</time>
   <energy>
    <i name="e_fr_energy">   -420.60986794 </i>
    <i name="e_wo_entrp">   -420.60986794 </i>
    <i name="e_0_energy">   -420.60986794 </i>
   </energy>
  </scstep>
  <scstep>
   <time name="total">    8.93    8.98</time>
   <energy>
    <i name="e_fr_energy">   -420.76687264 </i>
    <i name="e_wo_entrp">   -420.76687264 </i>
    <i name="e_0_energy">   -420.76687264 </i>
   </energy>
  </scstep>
  <scstep>
   <time name="total">    8.95    8.99</time>
   <energy>
    <i name="e_fr_energy">   -420.82538389 </i>
    <i name="e_wo_entrp">   -420.82538389 </i>
    <i name="e_0_energy">   -420.82538389 </i>
   </energy>
  </scstep>
  <scstep>
   <time name="total">    8.97    9.02</time>
   <energy>
    <i name="e_fr_energy">   -420.88235813 </i>
    <i name="e_wo_entrp">   -420.88235813 </i>
    <i name="e_0_energy">   -420.88235813 </i>
   </energy>
  </scstep>
  <scstep>
   <time name="total">    8.94    8.99</time>
   <energy>
    <i name="e_fr_energy">   -420.90908396 </i>
    <i name="e_wo_entrp">   -420.90908396 </i>
    <i name="e_0_energy">   -420.90908396 </i>
   </energy>
  </scstep>
  <scstep>
   <time name="total">    8.94    8.99</time>
   <energy>
    <i name="e_fr_energy">   -420.93062181 </i>
    <i name="e_wo_entrp">   -420.93062181 </i>
    <i name="e_0_energy">   -420.93062181 </i>
   </energy>
  </scstep>
  <scstep>
   <time name="total">    8.95    9.00</time>
   <energy>
    <i name="e_fr_energy">   -420.94640689 </i>
    <i name="e_wo_entrp">   -420.94640689 </i>
    <i name="e_0_energy">   -420.94640689 </i>
   </energy>
  </scstep>
  <scstep>
   <time name="total">    8.94    8.99</time>
   <energy>
    <i name="e_fr_energy">   -420.95803970 </i>
    <i name="e_wo_entrp">   -420.95803970 </i>
    <i name="e_0_energy">   -420.95803970 </i>
   </energy>
  </scstep>
  <scstep>
   <time name="total">    8.94    8.99</time>
   <energy>
    <i name="e_fr_energy">   -420.96707256 </i>
    <i name="e_wo_entrp">   -420.96707256 </i>
    <i name="e_0_energy">   -420.96707256 </i>
   </energy>
  </scstep>
  <scstep>
   <time name="total">    8.99    9.04</time>
   <energy>
    <i name="e_fr_energy">   -420.97404665 </i>
    <i name="e_wo_entrp">   -420.97404665 </i>
    <i name="e_0_energy">   -420.97404665 </i>
   </energy>
  </scstep>
  <scstep>
   <time name="total">    8.94    8.99</time>
   <energy>
    <i name="e_fr_energy">   -420.97963540 </i>
    <i name="e_wo_entrp">   -420.97963540 </i>
    <i name="e_0_energy">   -420.97963540 </i>
   </energy>
  </scstep>
  <scstep>
   <time name="total">    8.95    8.99</time>
   <energy>
    <i name="e_fr_energy">   -420.98421372 </i>
    <i name="e_wo_entrp">   -420.98421372 </i>
    <i name="e_0_energy">   -420.98421372 </i>
   </energy>
  </scstep>
  <scstep>
   <time name="total">    9.07    9.11</time>
   <energy>
    <i name="e_fr_energy">   -420.98798486 </i>
    <i name="e_wo_entrp">   -420.98798486 </i>
    <i name="e_0_energy">   -420.98798486 </i>
   </energy>
  </scstep>
  <scstep>
   <time name="total">    8.94    8.98</time>
   <energy>
    <i name="e_fr_energy">   -420.99109924 </i>
    <i name="e_wo_entrp">   -420.99109924 </i>
    <i name="e_0_energy">   -420.99109924 </i>
   </energy>
  </scstep>
  <scstep>
   <time name="total">    8.96    9.01</time>
   <energy>
    <i name="e_fr_energy">   -420.99367500 </i>
    <i name="e_wo_entrp">   -420.99367500 </i>
    <i name="e_0_energy">   -420.99367500 </i>
   </energy>
  </scstep>
  <scstep>
   <time name="total">    8.93    8.97</time>
   <energy>
    <i name="e_fr_energy">   -420.99578785 </i>
    <i name="e_wo_entrp">   -420.99578785 </i>
    <i name="e_0_energy">   -420.99578785 </i>
   </energy>
  </scstep>
  <scstep>
   <time name="total">    8.94    9.00</time>
   <energy>
    <i name="e_fr_energy">   -420.99745311 </i>
    <i name="e_wo_entrp">   -420.99745311 </i>
    <i name="e_0_energy">   -420.99745311 </i>
   </energy>
  </scstep>
  <scstep>
   <time name="total">    8.92    8.97</time>
   <energy>
    <i name="e_fr_energy">   -420.99865490 </i>
    <i name="e_wo_entrp">   -420.99865490 </i>
    <i name="e_0_energy">   -420.99865490 </i>
   </energy>
  </scstep>
  <scstep>
   <time name="total">    8.96    9.00</time>
   <energy>
    <i name="e_fr_energy">   -420.99944322 </i>
    <i name="e_wo_entrp">   -420.99944322 </i>
    <i name="e_0_energy">   -420.99944322 </i>
   </energy>
  </scstep>
  <scstep>
   <time name="total">    8.93    8.98</time>
   <energy>
    <i name="e_fr_energy">   -420.99993937 </i>
    <i name="e_wo_entrp">   -420.99993937 </i>
    <i name="e_0_energy">   -420.99993937 </i>
   </energy>
  </scstep>
  <scstep>
   <time name="total">    8.96    9.00</time>
   <energy>
    <i name="e_fr_energy">   -421.00039111 </i>
    <i name="e_wo_entrp">   -421.00039111 </i>
    <i name="e_0_energy">   -421.00039111 </i>
   </energy>
  </scstep>
  <scstep>
   <time name="total">    8.95    8.99</time>
   <energy>
    <i name="e_fr_energy">   -421.00136970 </i>
    <i name="e_wo_entrp">   -421.00136970 </i>
    <i name="e_0_energy">   -421.00136970 </i>
   </energy>
  </scstep>
  <scstep>
   <time name="total">    8.96    9.01</time>
   <energy>
    <i name="e_fr_energy">   -421.00303857 </i>
    <i name="e_wo_entrp">   -421.00303857 </i>
    <i name="e_0_energy">   -421.00303857 </i>
   </energy>
  </scstep>
  <scstep>
   <time name="total">    8.94    8.99</time>
   <energy>
    <i name="e_fr_energy">   -421.00461154 </i>
    <i name="e_wo_entrp">   -421.00461154 </i>
    <i name="e_0_energy">   -421.00461154 </i>
   </energy>
  </scstep>
  <scstep>
   <time name="total">    9.14    9.43</time>
   <energy>
    <i name="e_fr_energy">   -421.00593263 </i>
    <i name="e_wo_entrp">   -421.00593263 </i>
    <i name="e_0_energy">   -421.00593263 </i>
   </energy>
  </scstep>
  <scstep>
   <time name="total">    9.08    9.13</time>
   <energy>
    <i name="e_fr_energy">   -421.00729351 </i>
    <i name="e_wo_entrp">   -421.00729351 </i>
    <i name="e_0_energy">   -421.00729351 </i>
   </energy>
  </scstep>
  <scstep>
   <time name="total">    8.96    9.00</time>
   <energy>
    <i name="e_fr_energy">   -421.00829212 </i>
    <i name="e_wo_entrp">   -421.00829212 </i>
    <i name="e_0_energy">   -421.00829212 </i>
   </energy>
  </scstep>
  <scstep>
   <time name="total">    8.93    8.98</time>
   <energy>
    <i name="e_fr_energy">   -421.00906821 </i>
    <i name="e_wo_entrp">   -421.00906821 </i>
    <i name="e_0_energy">   -421.00906821 </i>
   </energy>
  </scstep>
  <scstep>
   <time name="total">    8.95    9.00</time>
   <energy>
    <i name="e_fr_energy">   -421.00986621 </i>
    <i name="e_wo_entrp">   -421.00986621 </i>
    <i name="e_0_energy">   -421.00986621 </i>
   </energy>
  </scstep>
  <scstep>
   <time name="total">    8.92    8.98</time>
   <energy>
    <i name="e_fr_energy">   -421.01068017 </i>
    <i name="e_wo_entrp">   -421.01068017 </i>
    <i name="e_0_energy">   -421.01068017 </i>
   </energy>
  </scstep>
  <scstep>
   <time name="total">    8.95    9.01</time>
   <energy>
    <i name="e_fr_energy">   -421.01150775 </i>
    <i name="e_wo_entrp">   -421.01150775 </i>
    <i name="e_0_energy">   -421.01150775 </i>
   </energy>
  </scstep>
  <scstep>
   <time name="total">    8.94    8.98</time>
   <energy>
    <i name="e_fr_energy">   -421.01236050 </i>
    <i name="e_wo_entrp">   -421.01236050 </i>
    <i name="e_0_energy">   -421.01236050 </i>
   </energy>
  </scstep>
  <scstep>
   <time name="total">    8.95    8.99</time>
   <energy>
    <i name="e_fr_energy">   -421.01324118 </i>
    <i name="e_wo_entrp">   -421.01324118 </i>
    <i name="e_0_energy">   -421.01324118 </i>
   </energy>
  </scstep>
  <scstep>
   <time name="total">    8.93    8.98</time>
   <energy>
    <i name="e_fr_energy">   -421.01413242 </i>
    <i name="e_wo_entrp">   -421.01413242 </i>
    <i name="e_0_energy">   -421.01413242 </i>
   </energy>
  </scstep>
  <scstep>
   <time name="total">    8.95    9.00</time>
   <energy>
    <i name="e_fr_energy">   -421.01504296 </i>
    <i name="e_wo_entrp">   -421.01504296 </i>
    <i name="e_0_energy">   -421.01504296 </i>
   </energy>
  </scstep>
  <scstep>
   <time name="total">    8.93    8.98</time>
   <energy>
    <i name="e_fr_energy">   -421.01594171 </i>
    <i name="e_wo_entrp">   -421.01594171 </i>
    <i name="e_0_energy">   -421.01594171 </i>
   </energy>
  </scstep>
  <scstep>
   <time name="total">    8.94    8.99</time>
   <energy>
    <i name="e_fr_energy">   -421.01684510 </i>
    <i name="e_wo_entrp">   -421.01684510 </i>
    <i name="e_0_energy">   -421.01684510 </i>
   </energy>
  </scstep>
  <scstep>
   <time name="total">    8.93    8.99</time>
   <energy>
    <i name="e_fr_energy">   -421.01770130 </i>
    <i name="e_wo_entrp">   -421.01770130 </i>
    <i name="e_0_energy">   -421.01770130 </i>
   </energy>
  </scstep>
  <scstep>
   <time name="total">    8.96    9.00</time>
   <energy>
    <i name="e_fr_energy">   -421.01851806 </i>
    <i name="e_wo_entrp">   -421.01851806 </i>
    <i name="e_0_energy">   -421.01851806 </i>
   </energy>
  </scstep>
  <scstep>
   <time name="total">    9.07    9.12</time>
   <energy>
    <i name="e_fr_energy">   -421.01922203 </i>
    <i name="e_wo_entrp">   -421.01922203 </i>
    <i name="e_0_energy">   -421.01922203 </i>
   </energy>
  </scstep>
  <scstep>
   <time name="total">    8.95    8.99</time>
   <energy>
    <i name="e_fr_energy">   -421.01983999 </i>
    <i name="e_wo_entrp">   -421.01983999 </i>
    <i name="e_0_energy">   -421.01983999 </i>
   </energy>
  </scstep>
  <scstep>
   <time name="total">    8.94    8.99</time>
   <energy>
    <i name="e_fr_energy">   -421.02035067 </i>
    <i name="e_wo_entrp">   -421.02035067 </i>
    <i name="e_0_energy">   -421.02035067 </i>
   </energy>
  </scstep>
  <scstep>
   <time name="total">    8.95    9.00</time>
   <energy>
    <i name="e_fr_energy">   -421.02074780 </i>
    <i name="e_wo_entrp">   -421.02074780 </i>
    <i name="e_0_energy">   -421.02074780 </i>
   </energy>
  </scstep>
  <scstep>
   <time name="total">    9.00    9.04</time>
   <energy>
    <i name="e_fr_energy">   -421.02047649 </i>
    <i name="e_wo_entrp">   -421.02047649 </i>
    <i name="e_0_energy">   -421.02047649 </i>
   </energy>
  </scstep>
  <scstep>
   <time name="total">    8.95    8.99</time>
   <energy>
    <i name="e_fr_energy">   -421.01948661 </i>
    <i name="e_wo_entrp">   -421.01948661 </i>
    <i name="e_0_energy">   -421.01948661 </i>
   </energy>
  </scstep>
  <scstep>
   <time name="total">    8.93    8.98</time>
   <energy>
    <i name="e_fr_energy">   -421.01730913 </i>
    <i name="e_wo_entrp">   -421.01730913 </i>
    <i name="e_0_energy">   -421.01730913 </i>
   </energy>
  </scstep>
  <scstep>
   <time name="total">    8.96    9.01</time>
   <energy>
    <i name="e_fr_energy">   -421.01552386 </i>
    <i name="e_wo_entrp">   -421.01552386 </i>
    <i name="e_0_energy">   -421.01552386 </i>
   </energy>
  </scstep>
  <scstep>
   <time name="total">    8.93    8.98</time>
   <energy>
    <i name="e_fr_energy">   -421.01295693 </i>
    <i name="e_wo_entrp">   -421.01295693 </i>
    <i name="e_0_energy">   -421.01295693 </i>
   </energy>
  </scstep>
  <scstep>
   <time name="total">    8.95    9.00</time>
   <energy>
    <i name="e_fr_energy">   -421.01304516 </i>
    <i name="e_wo_entrp">   -421.01304516 </i>
    <i name="e_0_energy">   -421.01304516 </i>
   </energy>
  </scstep>
  <scstep>
   <time name="total">    8.93    8.98</time>
   <energy>
    <i name="e_fr_energy">   -421.01392405 </i>
    <i name="e_wo_entrp">   -421.01392405 </i>
    <i name="e_0_energy">   -421.01392405 </i>
   </energy>
  </scstep>
  <scstep>
   <time name="total">    8.94    9.00</time>
   <energy>
    <i name="e_fr_energy">   -421.01824880 </i>
    <i name="e_wo_entrp">   -421.01824880 </i>
    <i name="e_0_energy">   -421.01824880 </i>
   </energy>
  </scstep>
  <scstep>
   <time name="total">    8.92    8.97</time>
   <energy>
    <i name="e_fr_energy">   -421.02109051 </i>
    <i name="e_wo_entrp">   -421.02109051 </i>
    <i name="e_0_energy">   -421.02109051 </i>
   </energy>
  </scstep>
  <scstep>
   <time name="total">    9.10    9.15</time>
   <energy>
    <i name="e_fr_energy">   -421.02374421 </i>
    <i name="e_wo_entrp">   -421.02374421 </i>
    <i name="e_0_energy">   -421.02374421 </i>
   </energy>
  </scstep>
  <scstep>
   <time name="total">    8.93    8.98</time>
   <energy>
    <i name="e_fr_energy">   -421.02491580 </i>
    <i name="e_wo_entrp">   -421.02491580 </i>
    <i name="e_0_energy">   -421.02491580 </i>
   </energy>
  </scstep>
  <scstep>
   <time name="total">    8.94    8.99</time>
   <energy>
    <i name="e_fr_energy">   -421.02600848 </i>
    <i name="e_wo_entrp">   -421.02600848 </i>
    <i name="e_0_energy">   -421.02600848 </i>
   </energy>
  </scstep>
  <scstep>
   <time name="total">    8.93    8.98</time>
   <energy>
    <i name="e_fr_energy">   -421.02643015 </i>
    <i name="e_wo_entrp">   -421.02643015 </i>
    <i name="e_0_energy">   -421.02643015 </i>
   </energy>
  </scstep>
  <scstep>
   <time name="total">    8.91    9.00</time>
   <energy>
    <i name="e_fr_energy">   -421.02706668 </i>
    <i name="e_wo_entrp">   -421.02706668 </i>
    <i name="e_0_energy">   -421.02706668 </i>
   </energy>
  </scstep>
  <scstep>
   <time name="total">    8.94    8.98</time>
   <energy>
    <i name="e_fr_energy">   -421.02752174 </i>
    <i name="e_wo_entrp">   -421.02752174 </i>
    <i name="e_0_energy">   -421.02752174 </i>
   </energy>
  </scstep>
  <scstep>
   <time name="total">    9.18    9.46</time>
   <energy>
    <i name="e_fr_energy">   -421.02794013 </i>
    <i name="e_wo_entrp">   -421.02794013 </i>
    <i name="e_0_energy">   -421.02794013 </i>
   </energy>
  </scstep>
  <scstep>
   <time name="total">    8.96    9.01</time>
   <energy>
    <i name="e_fr_energy">   -421.02822614 </i>
    <i name="e_wo_entrp">   -421.02822614 </i>
    <i name="e_0_energy">   -421.02822614 </i>
   </energy>
  </scstep>
  <scstep>
   <time name="total">    8.94    8.99</time>
   <energy>
    <i name="e_fr_energy">   -421.02848688 </i>
    <i name="e_wo_entrp">   -421.02848688 </i>
    <i name="e_0_energy">   -421.02848688 </i>
   </energy>
  </scstep>
  <scstep>
   <time name="total">    8.95    8.99</time>
   <energy>
    <i name="e_fr_energy">   -421.02871570 </i>
    <i name="e_wo_entrp">   -421.02871570 </i>
    <i name="e_0_energy">   -421.02871570 </i>
   </energy>
  </scstep>
  <scstep>
   <time name="total">    9.01    9.06</time>
   <energy>
    <i name="e_fr_energy">   -421.02892931 </i>
    <i name="e_wo_entrp">   -421.02892931 </i>
    <i name="e_0_energy">   -421.02892931 </i>
   </energy>
  </scstep>
  <scstep>
   <time name="total">    8.93    8.99</time>
   <energy>
    <i name="e_fr_energy">   -421.02913321 </i>
    <i name="e_wo_entrp">   -421.02913321 </i>
    <i name="e_0_energy">   -421.02913321 </i>
   </energy>
  </scstep>
  <scstep>
   <time name="total">    8.94    9.00</time>
   <energy>
    <i name="e_fr_energy">   -421.02933439 </i>
    <i name="e_wo_entrp">   -421.02933439 </i>
    <i name="e_0_energy">   -421.02933439 </i>
   </energy>
  </scstep>
  <scstep>
   <time name="total">    9.04    9.09</time>
   <energy>
    <i name="e_fr_energy">   -421.02953197 </i>
    <i name="e_wo_entrp">   -421.02953197 </i>
    <i name="e_0_energy">   -421.02953197 </i>
   </energy>
  </scstep>
  <scstep>
   <time name="total">    8.96    9.01</time>
   <energy>
    <i name="e_fr_energy">   -421.02972983 </i>
    <i name="e_wo_entrp">   -421.02972983 </i>
    <i name="e_0_energy">   -421.02972983 </i>
   </energy>
  </scstep>
  <scstep>
   <time name="total">    8.94    8.98</time>
   <energy>
    <i name="e_fr_energy">   -421.02992551 </i>
    <i name="e_wo_entrp">   -421.02992551 </i>
    <i name="e_0_energy">   -421.02992551 </i>
   </energy>
  </scstep>
  <scstep>
   <time name="total">    8.94    9.00</time>
   <energy>
    <i name="e_fr_energy">   -421.03011882 </i>
    <i name="e_wo_entrp">   -421.03011882 </i>
    <i name="e_0_energy">   -421.03011882 </i>
   </energy>
  </scstep>
  <scstep>
   <time name="total">    8.96    9.00</time>
   <energy>
    <i name="e_fr_energy">   -421.03030208 </i>
    <i name="e_wo_entrp">   -421.03030208 </i>
    <i name="e_0_energy">   -421.03030208 </i>
   </energy>
  </scstep>
  <scstep>
   <time name="total">    8.95    9.00</time>
   <energy>
    <i name="e_fr_energy">   -421.03044402 </i>
    <i name="e_wo_entrp">   -421.03044401 </i>
    <i name="e_0_energy">   -421.03044402 </i>
   </energy>
  </scstep>
  <scstep>
   <time name="total">    8.95    8.99</time>
   <energy>
    <i name="e_fr_energy">   -421.03046441 </i>
    <i name="e_wo_entrp">   -421.03046441 </i>
    <i name="e_0_energy">   -421.03046441 </i>
   </energy>
  </scstep>
  <scstep>
   <time name="total">    8.93    8.98</time>
   <energy>
    <i name="e_fr_energy">   -421.03021862 </i>
    <i name="e_wo_entrp">   -421.03021862 </i>
    <i name="e_0_energy">   -421.03021862 </i>
   </energy>
  </scstep>
  <scstep>
   <time name="total">    8.95    8.99</time>
   <energy>
    <i name="e_fr_energy">   -421.02955880 </i>
    <i name="e_wo_entrp">   -421.02955880 </i>
    <i name="e_0_energy">   -421.02955880 </i>
   </energy>
  </scstep>
  <scstep>
   <time name="total">    8.92    8.98</time>
   <energy>
    <i name="e_fr_energy">   -421.02804132 </i>
    <i name="e_wo_entrp">   -421.02804132 </i>
    <i name="e_0_energy">   -421.02804132 </i>
   </energy>
  </scstep>
  <scstep>
   <time name="total">    8.94    8.98</time>
   <energy>
    <i name="e_fr_energy">   -421.02450708 </i>
    <i name="e_wo_entrp">   -421.02450708 </i>
    <i name="e_0_energy">   -421.02450708 </i>
   </energy>
  </scstep>
  <scstep>
   <time name="total">    8.98    9.03</time>
   <energy>
    <i name="e_fr_energy">   -421.01716740 </i>
    <i name="e_wo_entrp">   -421.01716740 </i>
    <i name="e_0_energy">   -421.01716740 </i>
   </energy>
  </scstep>
  <scstep>
   <time name="total">    8.93    8.98</time>
   <energy>
    <i name="e_fr_energy">   -421.00722955 </i>
    <i name="e_wo_entrp">   -421.00722955 </i>
    <i name="e_0_energy">   -421.00722955 </i>
   </energy>
  </scstep>
  <scstep>
   <time name="total">    8.96    9.01</time>
   <energy>
    <i name="e_fr_energy">   -421.00106156 </i>
    <i name="e_wo_entrp">   -421.00106156 </i>
    <i name="e_0_energy">   -421.00106156 </i>
   </energy>
  </scstep>
  <scstep>
   <time name="total">    9.08    9.12</time>
   <energy>
    <i name="e_fr_energy">   -421.00501147 </i>
    <i name="e_wo_entrp">   -421.00501147 </i>
    <i name="e_0_energy">   -421.00501147 </i>
   </energy>
  </scstep>
  <scstep>
   <time name="total">    8.96    9.00</time>
   <energy>
    <i name="e_fr_energy">   -421.01360882 </i>
    <i name="e_wo_entrp">   -421.01360882 </i>
    <i name="e_0_energy">   -421.01360882 </i>
   </energy>
  </scstep>
  <scstep>
   <time name="total">    8.93    8.97</time>
   <energy>
    <i name="e_fr_energy">   -421.01894215 </i>
    <i name="e_wo_entrp">   -421.01894215 </i>
    <i name="e_0_energy">   -421.01894215 </i>
   </energy>
  </scstep>
  <scstep>
   <time name="total">    9.39    9.44</time>
   <energy>
    <i name="e_fr_energy">   -421.02507086 </i>
    <i name="e_wo_entrp">   -421.02507086 </i>
    <i name="e_0_energy">   -421.02507086 </i>
   </energy>
  </scstep>
  <scstep>
   <time name="total">    8.95    8.99</time>
   <energy>
    <i name="e_fr_energy">   -421.02937787 </i>
    <i name="e_wo_entrp">   -421.02937787 </i>
    <i name="e_0_energy">   -421.02937787 </i>
   </energy>
  </scstep>
  <scstep>
   <time name="total">    8.94    9.00</time>
   <energy>
    <i name="e_fr_energy">   -421.03027428 </i>
    <i name="e_wo_entrp">   -421.03027428 </i>
    <i name="e_0_energy">   -421.03027428 </i>
   </energy>
  </scstep>
  <scstep>
   <time name="total">    8.93    8.98</time>
   <energy>
    <i name="e_fr_energy">   -421.03081058 </i>
    <i name="e_wo_entrp">   -421.03081058 </i>
    <i name="e_0_energy">   -421.03081058 </i>
   </energy>
  </scstep>
  <scstep>
   <time name="total">    8.95    9.00</time>
   <energy>
    <i name="e_fr_energy">   -421.03166866 </i>
    <i name="e_wo_entrp">   -421.03166866 </i>
    <i name="e_0_energy">   -421.03166866 </i>
   </energy>
  </scstep>
  <scstep>
   <time name="total">   17.57   17.66</time>
   <energy>
    <i name="alphaZ">   2064.76616134 </i>
    <i name="ewald"> -20296.40085970 </i>
    <i name="hartreedc">  -5771.74525720 </i>
    <i name="XCdc">    741.32146136 </i>
    <i name="pawpsdc">  28994.16087123 </i>
    <i name="pawaedc"> -28633.50628826 </i>
    <i name="eentropy">     -0.00000000 </i>
    <i name="bandstr">  -4068.81217373 </i>
    <i name="atom">  25309.12248401 </i>
    <i name="e_fr_energy">   -421.03203346 </i>
    <i name="e_wo_entrp">   -421.03203346 </i>
    <i name="e_0_energy">   -421.03203346 </i>
   </energy>
  </scstep>
  <structure>
   <crystal>
    <varray name="basis" >
     <v>      -5.56412263       5.56412263       5.56412263 </v>
     <v>       5.56412263      -5.56412263       5.56412263 </v>
     <v>       5.56412263       5.56412263      -5.56412263 </v>
    </varray>
    <i name="volume">    689.04894042 </i>
    <varray name="rec_basis" >
     <v>      -0.00000000       0.08986143       0.08986143 </v>
     <v>       0.08986143      -0.00000000       0.08986143 </v>
     <v>       0.08986143       0.08986143      -0.00000000 </v>
    </varray>
   </crystal>
   <varray name="positions" >
    <v>       0.71953843       0.75000000       0.46953843 </v>
    <v>       0.25000000       0.03046157       0.78046157 </v>
    <v>       0.46953843       0.71953843       0.75000000 </v>
    <v>       0.75000000       0.46953843       0.71953843 </v>
    <v>       0.03046157       0.78046157       0.25000000 </v>
    <v>       0.78046157       0.25000000       0.03046157 </v>
    <v>       0.28046157       0.25000000       0.53046157 </v>
    <v>       0.75000000       0.96953843       0.21953843 </v>
    <v>       0.53046157       0.28046157       0.25000000 </v>
    <v>       0.25000000       0.53046157       0.28046157 </v>
    <v>       0.96953843       0.21953843       0.75000000 </v>
    <v>       0.21953843       0.75000000       0.96953843 </v>
    <v>       0.50000000       0.50000000       0.00000000 </v>
    <v>       0.00000000       0.00000000       0.00000000 </v>
    <v>       0.00000000       0.50000000       0.50000000 </v>
    <v>       0.50000000       0.00000000       0.50000000 </v>
    <v>       0.23084243       0.27104993       0.75874703 </v>
    <v>       0.01230290       0.47209540       0.74125297 </v>
    <v>       0.26915757       0.02790460       0.04020750 </v>
    <v>       0.74125297       0.01230290       0.47209540 </v>
    <v>       0.27104993       0.75874703       0.23084243 </v>
    <v>       0.22895007       0.45979250       0.48769710 </v>
    <v>       0.45979250       0.48769710       0.22895007 </v>
    <v>       0.47209540       0.74125297       0.01230290 </v>
    <v>       0.04020750       0.26915757       0.02790460 </v>
    <v>       0.02790460       0.04020750       0.26915757 </v>
    <v>       0.75874703       0.23084243       0.27104993 </v>
    <v>       0.48769710       0.22895007       0.45979250 </v>
    <v>       0.76915757       0.72895007       0.24125297 </v>
    <v>       0.98769710       0.52790460       0.25874703 </v>
    <v>       0.73084243       0.97209540       0.95979250 </v>
    <v>       0.25874703       0.98769710       0.52790460 </v>
    <v>       0.51230290       0.77104993       0.54020750 </v>
    <v>       0.24125297       0.76915757       0.72895007 </v>
    <v>       0.97209540       0.95979250       0.73084243 </v>
    <v>       0.95979250       0.73084243       0.97209540 </v>
    <v>       0.52790460       0.25874703       0.98769710 </v>
    <v>       0.54020750       0.51230290       0.77104993 </v>
    <v>       0.77104993       0.54020750       0.51230290 </v>
    <v>       0.72895007       0.24125297       0.76915757 </v>
   </varray>
  </structure>
  <varray name="forces" >
   <v>      -0.00000000      -0.12156361      -0.00000000 </v>
   <v>       0.12156361      -0.00000000      -0.00000000 </v>
   <v>       0.00000000      -0.00000000      -0.12156361 </v>
   <v>      -0.12156361      -0.00000000      -0.00000000 </v>
   <v>       0.00000000      -0.00000000       0.12156361 </v>
   <v>       0.00000000       0.12156361      -0.00000000 </v>
   <v>       0.00000000       0.12156361      -0.00000000 </v>
   <v>      -0.12156361      -0.00000000      -0.00000000 </v>
   <v>       0.00000000      -0.00000000       0.12156361 </v>
   <v>       0.12156361       0.00000000      -0.00000000 </v>
   <v>      -0.00000000      -0.00000000      -0.12156361 </v>
   <v>       0.00000000      -0.12156361      -0.00000000 </v>
   <v>       0.00000000      -0.00000000      -0.00000000 </v>
   <v>       0.00000000      -0.00000000      -0.00000000 </v>
   <v>       0.00000000      -0.00000000      -0.00000000 </v>
   <v>       0.00000000      -0.00000000      -0.00000000 </v>
   <v>      -0.07211117       0.05955338      -0.00418768 </v>
   <v>       0.07211117      -0.05955338      -0.00418768 </v>
   <v>      -0.07211117      -0.05955338       0.00418768 </v>
   <v>      -0.00418768       0.07211117      -0.05955338 </v>
   <v>       0.05955338      -0.00418768      -0.07211117 </v>
   <v>       0.05955338       0.00418768       0.07211117 </v>
   <v>       0.00418768       0.07211117       0.05955338 </v>
   <v>      -0.05955338      -0.00418768       0.07211117 </v>
   <v>       0.00418768      -0.07211117      -0.05955338 </v>
   <v>      -0.05955338       0.00418768      -0.07211117 </v>
   <v>      -0.00418768      -0.07211117       0.05955338 </v>
   <v>       0.07211117       0.05955338       0.00418768 </v>
   <v>       0.07211117      -0.05955338       0.00418768 </v>
   <v>      -0.07211117       0.05955338       0.00418768 </v>
   <v>       0.07211117       0.05955338      -0.00418768 </v>
   <v>       0.00418768      -0.07211117       0.05955338 </v>
   <v>      -0.07211117      -0.05955338      -0.00418768 </v>
   <v>       0.00418768       0.07211117      -0.05955338 </v>
   <v>       0.05955338      -0.00418768       0.07211117 </v>
   <v>      -0.00418768       0.07211117       0.05955338 </v>
   <v>       0.05955338       0.00418768      -0.07211117 </v>
   <v>      -0.00418768      -0.07211117      -0.05955338 </v>
   <v>      -0.05955338      -0.00418768      -0.07211117 </v>
   <v>      -0.05955338       0.00418768       0.07211117 </v>
  </varray>
  <varray name="stress" >
   <v>     -88.06617627      -0.00000000      -0.00000000 </v>
   <v>      -0.00000000     -88.06617627       0.00000000 </v>
   <v>      -0.00000000       0.00000000     -88.06617627 </v>
  </varray>
  <energy>
   <i name="e_fr_energy">   -421.03203346 </i>
   <i name="e_wo_entrp">   -421.03203346 </i>
   <i name="e_0_energy">   -421.03203346 </i>
  </energy>
  <time name="totalsc">  901.09  907.01</time>
 </calculation>
 <calculation>
  <scstep>
   <time name="total">    9.66    9.76</time>
   <energy>
    <i name="alphaZ">   2375.67975910 </i>
    <i name="ewald"> -21255.63878014 </i>
    <i name="hartreedc">  -5894.85460939 </i>
    <i name="XCdc">    771.62087696 </i>
    <i name="pawpsdc">  30588.74755907 </i>
    <i name="pawaedc"> -30126.64100430 </i>
    <i name="eentropy">     -0.00000000 </i>
    <i name="bandstr">  -3409.08308552 </i>
    <i name="atom">  25309.12248401 </i>
    <i name="e_fr_energy">   -355.87706899 </i>
    <i name="e_wo_entrp">   -355.87706899 </i>
    <i name="e_0_energy">   -355.87706899 </i>
   </energy>
  </scstep>
  <scstep>
   <time name="total">    9.55    9.59</time>
   <energy>
    <i name="e_fr_energy">   -408.87107930 </i>
    <i name="e_wo_entrp">   -408.87107930 </i>
    <i name="e_0_energy">   -408.87107930 </i>
   </energy>
  </scstep>
  <scstep>
   <time name="total">    9.36    9.40</time>
   <energy>
    <i name="e_fr_energy">   -409.98148055 </i>
    <i name="e_wo_entrp">   -409.98148055 </i>
    <i name="e_0_energy">   -409.98148055 </i>
   </energy>
  </scstep>
  <scstep>
   <time name="total">    9.38    9.43</time>
   <energy>
    <i name="e_fr_energy">   -417.96502201 </i>
    <i name="e_wo_entrp">   -417.96502201 </i>
    <i name="e_0_energy">   -417.96502201 </i>
   </energy>
  </scstep>
  <scstep>
   <time name="total">    9.34    9.40</time>
   <energy>
    <i name="e_fr_energy">   -418.51119678 </i>
    <i name="e_wo_entrp">   -418.51119678 </i>
    <i name="e_0_energy">   -418.51119678 </i>
   </energy>
  </scstep>
  <scstep>
   <time name="total">    9.36    9.41</time>
   <energy>
    <i name="e_fr_energy">   -419.29709088 </i>
    <i name="e_wo_entrp">   -419.29709088 </i>
    <i name="e_0_energy">   -419.29709088 </i>
   </energy>
  </scstep>
  <scstep>
   <time name="total">    9.36    9.41</time>
   <energy>
    <i name="e_fr_energy">   -419.53037045 </i>
    <i name="e_wo_entrp">   -419.53037045 </i>
    <i name="e_0_energy">   -419.53037045 </i>
   </energy>
  </scstep>
  <scstep>
   <time name="total">    9.35    9.40</time>
   <energy>
    <i name="e_fr_energy">   -419.58765384 </i>
    <i name="e_wo_entrp">   -419.58765384 </i>
    <i name="e_0_energy">   -419.58765384 </i>
   </energy>
  </scstep>
  <scstep>
   <time name="total">    9.37    9.42</time>
   <energy>
    <i name="e_fr_energy">   -419.63989857 </i>
    <i name="e_wo_entrp">   -419.63989857 </i>
    <i name="e_0_energy">   -419.63989857 </i>
   </energy>
  </scstep>
  <scstep>
   <time name="total">    9.35    9.41</time>
   <energy>
    <i name="e_fr_energy">   -419.64826957 </i>
    <i name="e_wo_entrp">   -419.64826957 </i>
    <i name="e_0_energy">   -419.64826957 </i>
   </energy>
  </scstep>
  <scstep>
   <time name="total">    9.40    9.45</time>
   <energy>
    <i name="e_fr_energy">   -419.65346227 </i>
    <i name="e_wo_entrp">   -419.65346227 </i>
    <i name="e_0_energy">   -419.65346227 </i>
   </energy>
  </scstep>
  <scstep>
   <time name="total">    9.36    9.42</time>
   <energy>
    <i name="e_fr_energy">   -419.65584505 </i>
    <i name="e_wo_entrp">   -419.65584505 </i>
    <i name="e_0_energy">   -419.65584505 </i>
   </energy>
  </scstep>
  <scstep>
   <time name="total">    9.38    9.43</time>
   <energy>
    <i name="e_fr_energy">   -419.65660438 </i>
    <i name="e_wo_entrp">   -419.65660438 </i>
    <i name="e_0_energy">   -419.65660438 </i>
   </energy>
  </scstep>
  <scstep>
   <time name="total">    9.53    9.58</time>
   <energy>
    <i name="e_fr_energy">   -419.65702133 </i>
    <i name="e_wo_entrp">   -419.65702133 </i>
    <i name="e_0_energy">   -419.65702133 </i>
   </energy>
  </scstep>
  <scstep>
   <time name="total">    9.36    9.41</time>
   <energy>
    <i name="e_fr_energy">   -419.65720402 </i>
    <i name="e_wo_entrp">   -419.65720402 </i>
    <i name="e_0_energy">   -419.65720402 </i>
   </energy>
  </scstep>
  <scstep>
   <time name="total">    9.36    9.41</time>
   <energy>
    <i name="e_fr_energy">   -419.65728014 </i>
    <i name="e_wo_entrp">   -419.65728014 </i>
    <i name="e_0_energy">   -419.65728014 </i>
   </energy>
  </scstep>
  <scstep>
   <time name="total">    9.40    9.45</time>
   <energy>
    <i name="e_fr_energy">   -419.65732072 </i>
    <i name="e_wo_entrp">   -419.65732072 </i>
    <i name="e_0_energy">   -419.65732072 </i>
   </energy>
  </scstep>
  <scstep>
   <time name="total">    9.38    9.42</time>
   <energy>
    <i name="e_fr_energy">   -419.65734486 </i>
    <i name="e_wo_entrp">   -419.65734486 </i>
    <i name="e_0_energy">   -419.65734486 </i>
   </energy>
  </scstep>
  <scstep>
   <time name="total">    9.35    9.40</time>
   <energy>
    <i name="e_fr_energy">   -419.65736095 </i>
    <i name="e_wo_entrp">   -419.65736095 </i>
    <i name="e_0_energy">   -419.65736095 </i>
   </energy>
  </scstep>
  <scstep>
   <time name="total">    9.39    9.43</time>
   <energy>
    <i name="e_fr_energy">   -419.65737168 </i>
    <i name="e_wo_entrp">   -419.65737168 </i>
    <i name="e_0_energy">   -419.65737168 </i>
   </energy>
  </scstep>
  <scstep>
   <time name="total">    9.35    9.40</time>
   <energy>
    <i name="e_fr_energy">   -419.65737863 </i>
    <i name="e_wo_entrp">   -419.65737863 </i>
    <i name="e_0_energy">   -419.65737863 </i>
   </energy>
  </scstep>
  <scstep>
   <time name="total">    9.41    9.46</time>
   <energy>
    <i name="e_fr_energy">   -419.65738314 </i>
    <i name="e_wo_entrp">   -419.65738314 </i>
    <i name="e_0_energy">   -419.65738314 </i>
   </energy>
  </scstep>
  <scstep>
   <time name="total">    9.45    9.52</time>
   <energy>
    <i name="e_fr_energy">   -419.65738638 </i>
    <i name="e_wo_entrp">   -419.65738638 </i>
    <i name="e_0_energy">   -419.65738638 </i>
   </energy>
  </scstep>
  <scstep>
   <time name="total">    9.38    9.43</time>
   <energy>
    <i name="e_fr_energy">   -419.65738864 </i>
    <i name="e_wo_entrp">   -419.65738864 </i>
    <i name="e_0_energy">   -419.65738864 </i>
   </energy>
  </scstep>
  <scstep>
   <time name="total">    9.38    9.43</time>
   <energy>
    <i name="e_fr_energy">   -419.65739030 </i>
    <i name="e_wo_entrp">   -419.65739030 </i>
    <i name="e_0_energy">   -419.65739030 </i>
   </energy>
  </scstep>
  <scstep>
   <time name="total">    9.36    9.41</time>
   <energy>
    <i name="e_fr_energy">   -419.65739141 </i>
    <i name="e_wo_entrp">   -419.65739141 </i>
    <i name="e_0_energy">   -419.65739141 </i>
   </energy>
  </scstep>
  <scstep>
   <time name="total">    9.49    9.54</time>
   <energy>
    <i name="e_fr_energy">   -419.65739226 </i>
    <i name="e_wo_entrp">   -419.65739226 </i>
    <i name="e_0_energy">   -419.65739226 </i>
   </energy>
  </scstep>
  <scstep>
   <time name="total">    9.36    9.41</time>
   <energy>
    <i name="e_fr_energy">   -419.65739292 </i>
    <i name="e_wo_entrp">   -419.65739292 </i>
    <i name="e_0_energy">   -419.65739292 </i>
   </energy>
  </scstep>
  <scstep>
   <time name="total">    9.39    9.44</time>
   <energy>
    <i name="e_fr_energy">   -419.65739344 </i>
    <i name="e_wo_entrp">   -419.65739344 </i>
    <i name="e_0_energy">   -419.65739344 </i>
   </energy>
  </scstep>
  <scstep>
   <time name="total">    9.36    9.41</time>
   <energy>
    <i name="e_fr_energy">   -419.65739382 </i>
    <i name="e_wo_entrp">   -419.65739382 </i>
    <i name="e_0_energy">   -419.65739382 </i>
   </energy>
  </scstep>
  <scstep>
   <time name="total">    9.35    9.41</time>
   <energy>
    <i name="e_fr_energy">   -419.65739402 </i>
    <i name="e_wo_entrp">   -419.65739402 </i>
    <i name="e_0_energy">   -419.65739402 </i>
   </energy>
  </scstep>
  <scstep>
   <time name="total">    9.36    9.42</time>
   <energy>
    <i name="e_fr_energy">   -419.65739420 </i>
    <i name="e_wo_entrp">   -419.65739420 </i>
    <i name="e_0_energy">   -419.65739420 </i>
   </energy>
  </scstep>
  <scstep>
   <time name="total">    9.60    9.88</time>
   <energy>
    <i name="e_fr_energy">   -419.65739431 </i>
    <i name="e_wo_entrp">   -419.65739431 </i>
    <i name="e_0_energy">   -419.65739431 </i>
   </energy>
  </scstep>
  <scstep>
   <time name="total">    9.41    9.47</time>
   <energy>
    <i name="e_fr_energy">   -419.65739461 </i>
    <i name="e_wo_entrp">   -419.65739461 </i>
    <i name="e_0_energy">   -419.65739461 </i>
   </energy>
  </scstep>
  <scstep>
   <time name="total">    9.37    9.42</time>
   <energy>
    <i name="e_fr_energy">   -419.65739488 </i>
    <i name="e_wo_entrp">   -419.65739488 </i>
    <i name="e_0_energy">   -419.65739488 </i>
   </energy>
  </scstep>
  <scstep>
   <time name="total">    9.34    9.44</time>
   <energy>
    <i name="e_fr_energy">   -419.65739519 </i>
    <i name="e_wo_entrp">   -419.65739519 </i>
    <i name="e_0_energy">   -419.65739519 </i>
   </energy>
  </scstep>
  <scstep>
   <time name="total">    9.36    9.41</time>
   <energy>
    <i name="e_fr_energy">   -419.65739536 </i>
    <i name="e_wo_entrp">   -419.65739536 </i>
    <i name="e_0_energy">   -419.65739536 </i>
   </energy>
  </scstep>
  <scstep>
   <time name="total">    9.36    9.41</time>
   <energy>
    <i name="e_fr_energy">   -419.65739548 </i>
    <i name="e_wo_entrp">   -419.65739548 </i>
    <i name="e_0_energy">   -419.65739548 </i>
   </energy>
  </scstep>
  <scstep>
   <time name="total">    9.38    9.43</time>
   <energy>
    <i name="e_fr_energy">   -419.65739559 </i>
    <i name="e_wo_entrp">   -419.65739559 </i>
    <i name="e_0_energy">   -419.65739559 </i>
   </energy>
  </scstep>
  <scstep>
   <time name="total">    9.51    9.55</time>
   <energy>
    <i name="e_fr_energy">   -419.65739569 </i>
    <i name="e_wo_entrp">   -419.65739569 </i>
    <i name="e_0_energy">   -419.65739569 </i>
   </energy>
  </scstep>
  <scstep>
   <time name="total">    9.36    9.41</time>
   <energy>
    <i name="e_fr_energy">   -419.65739578 </i>
    <i name="e_wo_entrp">   -419.65739578 </i>
    <i name="e_0_energy">   -419.65739578 </i>
   </energy>
  </scstep>
  <scstep>
   <time name="total">    9.38    9.42</time>
   <energy>
    <i name="e_fr_energy">   -419.65739582 </i>
    <i name="e_wo_entrp">   -419.65739582 </i>
    <i name="e_0_energy">   -419.65739582 </i>
   </energy>
  </scstep>
  <scstep>
   <time name="total">    9.68    9.77</time>
   <energy>
    <i name="e_fr_energy">   -419.65739588 </i>
    <i name="e_wo_entrp">   -419.65739588 </i>
    <i name="e_0_energy">   -419.65739588 </i>
   </energy>
  </scstep>
  <scstep>
   <time name="total">    9.40    9.45</time>
   <energy>
    <i name="e_fr_energy">   -419.65739590 </i>
    <i name="e_wo_entrp">   -419.65739590 </i>
    <i name="e_0_energy">   -419.65739590 </i>
   </energy>
  </scstep>
  <scstep>
   <time name="total">    9.38    9.43</time>
   <energy>
    <i name="e_fr_energy">   -419.65739594 </i>
    <i name="e_wo_entrp">   -419.65739594 </i>
    <i name="e_0_energy">   -419.65739594 </i>
   </energy>
  </scstep>
  <scstep>
   <time name="total">    9.36    9.41</time>
   <energy>
    <i name="e_fr_energy">   -419.65739591 </i>
    <i name="e_wo_entrp">   -419.65739591 </i>
    <i name="e_0_energy">   -419.65739591 </i>
   </energy>
  </scstep>
  <scstep>
   <time name="total">    9.37    9.41</time>
   <energy>
    <i name="e_fr_energy">   -419.65739593 </i>
    <i name="e_wo_entrp">   -419.65739593 </i>
    <i name="e_0_energy">   -419.65739593 </i>
   </energy>
  </scstep>
  <scstep>
   <time name="total">    9.35    9.41</time>
   <energy>
    <i name="e_fr_energy">   -419.65739580 </i>
    <i name="e_wo_entrp">   -419.65739580 </i>
    <i name="e_0_energy">   -419.65739580 </i>
   </energy>
  </scstep>
  <scstep>
   <time name="total">    9.36    9.41</time>
   <energy>
    <i name="e_fr_energy">   -419.65739581 </i>
    <i name="e_wo_entrp">   -419.65739581 </i>
    <i name="e_0_energy">   -419.65739581 </i>
   </energy>
  </scstep>
  <scstep>
   <time name="total">    9.37    9.42</time>
   <energy>
    <i name="e_fr_energy">   -419.65739567 </i>
    <i name="e_wo_entrp">   -419.65739567 </i>
    <i name="e_0_energy">   -419.65739567 </i>
   </energy>
  </scstep>
  <scstep>
   <time name="total">    9.35    9.40</time>
   <energy>
    <i name="e_fr_energy">   -419.65739580 </i>
    <i name="e_wo_entrp">   -419.65739580 </i>
    <i name="e_0_energy">   -419.65739580 </i>
   </energy>
  </scstep>
  <scstep>
   <time name="total">    9.40    9.45</time>
   <energy>
    <i name="e_fr_energy">   -419.65739580 </i>
    <i name="e_wo_entrp">   -419.65739580 </i>
    <i name="e_0_energy">   -419.65739580 </i>
   </energy>
  </scstep>
  <scstep>
   <time name="total">    9.54    9.59</time>
   <energy>
    <i name="e_fr_energy">   -419.65739605 </i>
    <i name="e_wo_entrp">   -419.65739605 </i>
    <i name="e_0_energy">   -419.65739605 </i>
   </energy>
  </scstep>
  <scstep>
   <time name="total">    9.39    9.44</time>
   <energy>
    <i name="e_fr_energy">   -419.65739612 </i>
    <i name="e_wo_entrp">   -419.65739612 </i>
    <i name="e_0_energy">   -419.65739612 </i>
   </energy>
  </scstep>
  <scstep>
   <time name="total">    9.36    9.41</time>
   <energy>
    <i name="e_fr_energy">   -419.65739629 </i>
    <i name="e_wo_entrp">   -419.65739629 </i>
    <i name="e_0_energy">   -419.65739629 </i>
   </energy>
  </scstep>
  <scstep>
   <time name="total">    9.39    9.43</time>
   <energy>
    <i name="e_fr_energy">   -419.65739635 </i>
    <i name="e_wo_entrp">   -419.65739635 </i>
    <i name="e_0_energy">   -419.65739635 </i>
   </energy>
  </scstep>
  <scstep>
   <time name="total">    9.36    9.42</time>
   <energy>
    <i name="e_fr_energy">   -419.65739644 </i>
    <i name="e_wo_entrp">   -419.65739644 </i>
    <i name="e_0_energy">   -419.65739644 </i>
   </energy>
  </scstep>
  <scstep>
   <time name="total">    9.36    9.41</time>
   <energy>
    <i name="e_fr_energy">   -419.65739648 </i>
    <i name="e_wo_entrp">   -419.65739648 </i>
    <i name="e_0_energy">   -419.65739648 </i>
   </energy>
  </scstep>
  <scstep>
   <time name="total">   18.45   18.55</time>
   <energy>
    <i name="alphaZ">   2375.67975910 </i>
    <i name="ewald"> -21255.63878014 </i>
    <i name="hartreedc">  -5422.97246101 </i>
    <i name="XCdc">    752.71146859 </i>
    <i name="pawpsdc">  33701.38115150 </i>
    <i name="pawaedc"> -33330.82410829 </i>
    <i name="eentropy">     -0.00000000 </i>
    <i name="bandstr">  -3805.93060187 </i>
    <i name="atom">  25309.12248401 </i>
    <i name="e_fr_energy">   -419.65739652 </i>
    <i name="e_wo_entrp">   -419.65739652 </i>
    <i name="e_0_energy">   -419.65739652 </i>
   </energy>
  </scstep>
  <structure>
   <crystal>
    <varray name="basis" >
     <v>      -5.30995717       5.30995717       5.30995717 </v>
     <v>       5.30995717      -5.30995717       5.30995717 </v>
     <v>       5.30995717       5.30995717      -5.30995717 </v>
    </varray>
    <i name="volume">    598.87067280 </i>
    <varray name="rec_basis" >
     <v>      -0.00000000       0.09416272       0.09416272 </v>
     <v>       0.09416272      -0.00000000       0.09416272 </v>
     <v>       0.09416272       0.09416272      -0.00000000 </v>
    </varray>
   </crystal>
   <varray name="positions" >
    <v>       0.71901143       0.75000000       0.46901143 </v>
    <v>       0.25000000       0.03098857       0.78098857 </v>
    <v>       0.46901143       0.71901143       0.75000000 </v>
    <v>       0.75000000       0.46901143       0.71901143 </v>
    <v>       0.03098857       0.78098857       0.25000000 </v>
    <v>       0.78098857       0.25000000       0.03098857 </v>
    <v>       0.28098857       0.25000000       0.53098857 </v>
    <v>       0.75000000       0.96901143       0.21901143 </v>
    <v>       0.53098857       0.28098857       0.25000000 </v>
    <v>       0.25000000       0.53098857       0.28098857 </v>
    <v>       0.96901143       0.21901143       0.75000000 </v>
    <v>       0.21901143       0.75000000       0.96901143 </v>
    <v>       0.50000000       0.50000000       1.00000000 </v>
    <v>       1.00000000       1.00000000       1.00000000 </v>
    <v>       1.00000000       0.50000000       0.50000000 </v>
    <v>       0.50000000       1.00000000       0.50000000 </v>
    <v>       0.23108245       0.27071916       0.75869259 </v>
    <v>       0.01202657       0.47238986       0.74130741 </v>
    <v>       0.26891755       0.02761014       0.03963671 </v>
    <v>       0.74130741       0.01202657       0.47238986 </v>
    <v>       0.27071916       0.75869259       0.23108245 </v>
    <v>       0.22928084       0.46036329       0.48797343 </v>
    <v>       0.46036329       0.48797343       0.22928084 </v>
    <v>       0.47238986       0.74130741       0.01202657 </v>
    <v>       0.03963671       0.26891755       0.02761014 </v>
    <v>       0.02761014       0.03963671       0.26891755 </v>
    <v>       0.75869259       0.23108245       0.27071916 </v>
    <v>       0.48797343       0.22928084       0.46036329 </v>
    <v>       0.76891755       0.72928084       0.24130741 </v>
    <v>       0.98797343       0.52761014       0.25869259 </v>
    <v>       0.73108245       0.97238986       0.96036329 </v>
    <v>       0.25869259       0.98797343       0.52761014 </v>
    <v>       0.51202657       0.77071916       0.53963671 </v>
    <v>       0.24130741       0.76891755       0.72928084 </v>
    <v>       0.97238986       0.96036329       0.73108245 </v>
    <v>       0.96036329       0.73108245       0.97238986 </v>
    <v>       0.52761014       0.25869259       0.98797343 </v>
    <v>       0.53963671       0.51202657       0.77071916 </v>
    <v>       0.77071916       0.53963671       0.51202657 </v>
    <v>       0.72928084       0.24130741       0.76891755 </v>
   </varray>
  </structure>
  <varray name="forces" >
   <v>      -0.00000000       0.24490652       0.00000000 </v>
   <v>      -0.24490652       0.00000000       0.00000000 </v>
   <v>      -0.00000000       0.00000000       0.24490652 </v>
   <v>       0.24490652       0.00000000       0.00000000 </v>
   <v>       0.00000000       0.00000000      -0.24490652 </v>
   <v>       0.00000000      -0.24490652      -0.00000000 </v>
   <v>       0.00000000      -0.24490652       0.00000000 </v>
   <v>       0.24490652       0.00000000       0.00000000 </v>
   <v>      -0.00000000       0.00000000      -0.24490652 </v>
   <v>      -0.24490652       0.00000000       0.00000000 </v>
   <v>      -0.00000000       0.00000000       0.24490652 </v>
   <v>      -0.00000000       0.24490652       0.00000000 </v>
   <v>      -0.00000000       0.00000000       0.00000000 </v>
   <v>      -0.00000000       0.00000000       0.00000000 </v>
   <v>       0.00000000       0.00000000       0.00000000 </v>
   <v>      -0.00000000       0.00000000       0.00000000 </v>
   <v>       0.13587749      -0.16567372       0.02503215 </v>
   <v>      -0.13587749       0.16567372       0.02503215 </v>
   <v>       0.13587749       0.16567372      -0.02503215 </v>
   <v>       0.02503215      -0.13587749       0.16567372 </v>
   <v>      -0.16567372       0.02503215       0.13587749 </v>
   <v>      -0.16567372      -0.02503215      -0.13587749 </v>
   <v>      -0.02503215      -0.13587749      -0.16567372 </v>
   <v>       0.16567372       0.02503215      -0.13587749 </v>
   <v>      -0.02503215       0.13587749       0.16567372 </v>
   <v>       0.16567372      -0.02503215       0.13587749 </v>
   <v>       0.02503215       0.13587749      -0.16567372 </v>
   <v>      -0.13587749      -0.16567372      -0.02503215 </v>
   <v>      -0.13587749       0.16567372      -0.02503215 </v>
   <v>       0.13587749      -0.16567372      -0.02503215 </v>
   <v>      -0.13587749      -0.16567372       0.02503215 </v>
   <v>      -0.02503215       0.13587749      -0.16567372 </v>
   <v>       0.13587749       0.16567372       0.02503215 </v>
   <v>      -0.02503215      -0.13587749       0.16567372 </v>
   <v>      -0.16567372       0.02503215      -0.13587749 </v>
   <v>       0.02503215      -0.13587749      -0.16567372 </v>
   <v>      -0.16567372      -0.02503215       0.13587749 </v>
   <v>       0.02503215       0.13587749       0.16567372 </v>
   <v>       0.16567372       0.02503215       0.13587749 </v>
   <v>       0.16567372      -0.02503215      -0.13587749 </v>
  </varray>
  <varray name="stress" >
   <v>     162.79215539       0.00000000      -0.00000000 </v>
   <v>       0.00000000     162.79215539      -0.00000000 </v>
   <v>      -0.00000000      -0.00000000     162.79215539 </v>
  </varray>
  <energy>
   <i name="e_fr_energy">   -419.65739652 </i>
   <i name="e_wo_entrp">   -419.65739652 </i>
   <i name="e_0_energy">   -419.65739652 </i>
  </energy>
  <time name="totalsc">  593.91  597.54</time>
 </calculation>
 <calculation>
  <scstep>
   <time name="total">    9.18    9.22</time>
   <energy>
    <i name="alphaZ">   2183.96338376 </i>
    <i name="ewald"> -20675.23278501 </i>
    <i name="hartreedc">  -5330.42267215 </i>
    <i name="XCdc">    733.78959902 </i>
    <i name="pawpsdc">  32262.51479300 </i>
    <i name="pawaedc"> -31948.39185844 </i>
    <i name="eentropy">     -0.00000000 </i>
    <i name="bandstr">  -4161.03167867 </i>
    <i name="atom">  25309.12248401 </i>
    <i name="e_fr_energy">   -399.20632243 </i>
    <i name="e_wo_entrp">   -399.20632243 </i>
    <i name="e_0_energy">   -399.20632243 </i>
   </energy>
  </scstep>
  <scstep>
   <time name="total">    9.50    9.80</time>
   <energy>
    <i name="e_fr_energy">   -418.66362835 </i>
    <i name="e_wo_entrp">   -418.66362835 </i>
    <i name="e_0_energy">   -418.66362835 </i>
   </energy>
  </scstep>
  <scstep>
   <time name="total">    9.29    9.34</time>
   <energy>
    <i name="e_fr_energy">   -419.20561561 </i>
    <i name="e_wo_entrp">   -419.20561561 </i>
    <i name="e_0_energy">   -419.20561561 </i>
   </energy>
  </scstep>
  <scstep>
   <time name="total">    9.25    9.30</time>
   <energy>
    <i name="e_fr_energy">   -421.54818730 </i>
    <i name="e_wo_entrp">   -421.54818730 </i>
    <i name="e_0_energy">   -421.54818730 </i>
   </energy>
  </scstep>
  <scstep>
   <time name="total">    9.21    9.26</time>
   <energy>
    <i name="e_fr_energy">   -421.68901053 </i>
    <i name="e_wo_entrp">   -421.68901053 </i>
    <i name="e_0_energy">   -421.68901053 </i>
   </energy>
  </scstep>
  <scstep>
   <time name="total">    9.22    9.28</time>
   <energy>
    <i name="e_fr_energy">   -422.02682183 </i>
    <i name="e_wo_entrp">   -422.02682183 </i>
    <i name="e_0_energy">   -422.02682183 </i>
   </energy>
  </scstep>
  <scstep>
   <time name="total">    9.20    9.24</time>
   <energy>
    <i name="e_fr_energy">   -422.07282857 </i>
[...]
        <r>  0.0004  0.0011  0.0494 </r>
        <r>  0.0024  0.0014  0.0374 </r>
        <r>  0.0005  0.0010  0.0448 </r>
        <r>  0.0006  0.0003  0.0515 </r>
        <r>  0.0006  0.0003  0.0531 </r>
        <r>  0.0026  0.0015  0.0404 </r>
        <r>  0.0004  0.0010  0.0455 </r>
        <r>  0.0025  0.0014  0.0389 </r>
        <r>  0.0004  0.0011  0.0450 </r>
        <r>  0.0006  0.0003  0.0524 </r>
        <r>  0.0000  0.0004  0.0225 </r>
        <r>  0.0001  0.0004  0.0196 </r>
        <r>  0.0000  0.0004  0.0208 </r>
        <r>  0.0001  0.0004  0.0191 </r>
        <r>  0.0014  0.0016  0.0000 </r>
        <r>  0.0013  0.0016  0.0000 </r>
        <r>  0.0011  0.0015  0.0000 </r>
        <r>  0.0006  0.0026  0.0000 </r>
        <r>  0.0021  0.0015  0.0000 </r>
        <r>  0.0023  0.0015  0.0000 </r>
        <r>  0.0009  0.0025  0.0000 </r>
        <r>  0.0026  0.0015  0.0000 </r>
        <r>  0.0007  0.0025  0.0000 </r>
        <r>  0.0022  0.0016  0.0000 </r>
        <r>  0.0008  0.0026  0.0000 </r>
        <r>  0.0012  0.0016  0.0000 </r>
        <r>  0.0011  0.0016  0.0000 </r>
        <r>  0.0011  0.0016  0.0000 </r>
        <r>  0.0014  0.0016  0.0000 </r>
        <r>  0.0007  0.0023  0.0000 </r>
        <r>  0.0012  0.0017  0.0000 </r>
        <r>  0.0007  0.0027  0.0000 </r>
        <r>  0.0022  0.0016  0.0000 </r>
        <r>  0.0007  0.0025  0.0000 </r>
        <r>  0.0024  0.0014  0.0000 </r>
        <r>  0.0008  0.0024  0.0000 </r>
        <r>  0.0021  0.0013  0.0000 </r>
        <r>  0.0022  0.0014  0.0000 </r>
       </set>
       <set comment="band 216">
        <r>  0.0023  0.0010  0.0523 </r>
        <r>  0.0007  0.0004  0.0211 </r>
        <r>  0.0000  0.0014  0.0459 </r>
        <r>  0.0006  0.0004  0.0208 </r>
        <r>  0.0000  0.0016  0.0495 </r>
        <r>  0.0023  0.0013  0.0526 </r>
        <r>  0.0022  0.0012  0.0530 </r>
        <r>  0.0007  0.0003  0.0198 </r>
        <r>  0.0000  0.0015  0.0469 </r>
        <r>  0.0006  0.0004  0.0203 </r>
        <r>  0.0000  0.0017  0.0508 </r>
        <r>  0.0023  0.0011  0.0538 </r>
        <r>  0.0010  0.0009  0.0286 </r>
        <r>  0.0015  0.0010  0.0255 </r>
        <r>  0.0011  0.0009  0.0274 </r>
        <r>  0.0015  0.0010  0.0267 </r>
        <r>  0.0008  0.0028  0.0000 </r>
        <r>  0.0012  0.0031  0.0000 </r>
        <r>  0.0012  0.0028  0.0000 </r>
        <r>  0.0003  0.0031  0.0000 </r>
        <r>  0.0013  0.0029  0.0000 </r>
        <r>  0.0014  0.0026  0.0000 </r>
        <r>  0.0002  0.0030  0.0000 </r>
        <r>  0.0010  0.0029  0.0000 </r>
        <r>  0.0003  0.0033  0.0000 </r>
        <r>  0.0015  0.0027  0.0000 </r>
        <r>  0.0002  0.0031  0.0000 </r>
        <r>  0.0009  0.0029  0.0000 </r>
        <r>  0.0011  0.0027  0.0000 </r>
        <r>  0.0007  0.0030  0.0000 </r>
        <r>  0.0008  0.0029  0.0000 </r>
        <r>  0.0002  0.0032  0.0000 </r>
        <r>  0.0012  0.0027  0.0000 </r>
        <r>  0.0003  0.0030  0.0000 </r>
        <r>  0.0013  0.0029  0.0000 </r>
        <r>  0.0003  0.0031  0.0000 </r>
        <r>  0.0015  0.0027  0.0000 </r>
        <r>  0.0002  0.0032  0.0000 </r>
        <r>  0.0010  0.0029  0.0000 </r>
        <r>  0.0016  0.0027  0.0000 </r>
       </set>
       <set comment="band 217">
        <r>  0.0000  0.0020  0.0311 </r>
        <r>  0.0000  0.0011  0.0208 </r>
        <r>  0.0002  0.0017  0.0484 </r>
        <r>  0.0000  0.0013  0.0192 </r>
        <r>  0.0001  0.0016  0.0468 </r>
        <r>  0.0000  0.0020  0.0319 </r>
        <r>  0.0000  0.0019  0.0333 </r>
        <r>  0.0000  0.0012  0.0196 </r>
        <r>  0.0002  0.0016  0.0499 </r>
        <r>  0.0000  0.0014  0.0170 </r>
        <r>  0.0002  0.0013  0.0477 </r>
        <r>  0.0000  0.0022  0.0337 </r>
        <r>  0.0095  0.0006  0.0208 </r>
        <r>  0.0093  0.0006  0.0223 </r>
        <r>  0.0105  0.0005  0.0228 </r>
        <r>  0.0100  0.0005  0.0241 </r>
        <r>  0.0026  0.0020  0.0000 </r>
        <r>  0.0024  0.0021  0.0000 </r>
        <r>  0.0020  0.0021  0.0000 </r>
        <r>  0.0008  0.0014  0.0000 </r>
        <r>  0.0030  0.0015  0.0000 </r>
        <r>  0.0026  0.0013  0.0000 </r>
        <r>  0.0006  0.0015  0.0000 </r>
        <r>  0.0030  0.0014  0.0000 </r>
        <r>  0.0007  0.0014  0.0000 </r>
        <r>  0.0028  0.0014  0.0000 </r>
        <r>  0.0011  0.0014  0.0000 </r>
        <r>  0.0027  0.0021  0.0000 </r>
        <r>  0.0025  0.0019  0.0000 </r>
        <r>  0.0025  0.0019  0.0000 </r>
        <r>  0.0022  0.0018  0.0000 </r>
        <r>  0.0009  0.0013  0.0000 </r>
        <r>  0.0023  0.0020  0.0000 </r>
        <r>  0.0011  0.0016  0.0000 </r>
        <r>  0.0034  0.0010  0.0000 </r>
        <r>  0.0009  0.0013  0.0000 </r>
        <r>  0.0029  0.0014  0.0000 </r>
        <r>  0.0008  0.0014  0.0000 </r>
        <r>  0.0031  0.0013  0.0000 </r>
        <r>  0.0027  0.0013  0.0000 </r>
       </set>
       <set comment="band 218">
        <r>  0.0000  0.0028  0.0372 </r>
        <r>  0.0048  0.0012  0.0340 </r>
        <r>  0.0008  0.0015  0.0179 </r>
        <r>  0.0048  0.0014  0.0321 </r>
        <r>  0.0009  0.0015  0.0200 </r>
        <r>  0.0000  0.0027  0.0374 </r>
        <r>  0.0000  0.0027  0.0404 </r>
        <r>  0.0046  0.0013  0.0346 </r>
        <r>  0.0008  0.0015  0.0198 </r>
        <r>  0.0048  0.0013  0.0319 </r>
        <r>  0.0008  0.0014  0.0183 </r>
        <r>  0.0000  0.0027  0.0362 </r>
        <r>  0.0016  0.0013  0.0102 </r>
        <r>  0.0017  0.0013  0.0098 </r>
        <r>  0.0019  0.0014  0.0117 </r>
        <r>  0.0017  0.0014  0.0117 </r>
        <r>  0.0024  0.0047  0.0000 </r>
        <r>  0.0028  0.0042  0.0000 </r>
        <r>  0.0026  0.0044  0.0000 </r>
        <r>  0.0008  0.0022  0.0000 </r>
        <r>  0.0020  0.0017  0.0000 </r>
        <r>  0.0021  0.0017  0.0000 </r>
        <r>  0.0007  0.0023  0.0000 </r>
        <r>  0.0014  0.0017  0.0000 </r>
        <r>  0.0006  0.0021  0.0000 </r>
        <r>  0.0017  0.0020  0.0000 </r>
        <r>  0.0008  0.0022  0.0000 </r>
        <r>  0.0026  0.0043  0.0000 </r>
        <r>  0.0028  0.0044  0.0000 </r>
        <r>  0.0026  0.0043  0.0000 </r>
        <r>  0.0026  0.0044  0.0000 </r>
        <r>  0.0009  0.0021  0.0000 </r>
        <r>  0.0026  0.0040  0.0000 </r>
        <r>  0.0008  0.0023  0.0000 </r>
        <r>  0.0018  0.0019  0.0000 </r>
        <r>  0.0006  0.0021  0.0000 </r>
        <r>  0.0017  0.0019  0.0000 </r>
        <r>  0.0008  0.0021  0.0000 </r>
        <r>  0.0020  0.0017  0.0000 </r>
        <r>  0.0020  0.0016  0.0000 </r>
       </set>
       <set comment="band 219">
        <r>  0.0046  0.0004  0.0266 </r>
        <r>  0.0004  0.0006  0.0349 </r>
        <r>  0.0002  0.0012  0.0564 </r>
        <r>  0.0005  0.0007  0.0361 </r>
        <r>  0.0002  0.0017  0.0762 </r>
        <r>  0.0014  0.0009  0.0150 </r>
        <r>  0.0017  0.0010  0.0147 </r>
        <r>  0.0003  0.0006  0.0322 </r>
        <r>  0.0003  0.0012  0.0499 </r>
        <r>  0.0005  0.0007  0.0340 </r>
        <r>  0.0002  0.0016  0.0748 </r>
        <r>  0.0043  0.0004  0.0289 </r>
        <r>  0.0014  0.0004  0.0152 </r>
        <r>  0.0010  0.0006  0.0274 </r>
        <r>  0.0012  0.0005  0.0151 </r>
        <r>  0.0011  0.0008  0.0272 </r>
        <r>  0.0000  0.0012  0.0000 </r>
        <r>  0.0019  0.0012  0.0000 </r>
        <r>  0.0045  0.0014  0.0000 </r>
        <r>  0.0034  0.0046  0.0000 </r>
        <r>  0.0056  0.0009  0.0000 </r>
        <r>  0.0017  0.0012  0.0000 </r>
        <r>  0.0006  0.0020  0.0000 </r>
        <r>  0.0056  0.0004  0.0000 </r>
        <r>  0.0033  0.0038  0.0000 </r>
        <r>  0.0017  0.0012  0.0000 </r>
        <r>  0.0004  0.0011  0.0000 </r>
        <r>  0.0031  0.0018  0.0000 </r>
        <r>  0.0016  0.0010  0.0000 </r>
        <r>  0.0000  0.0015  0.0000 </r>
        <r>  0.0028  0.0018  0.0000 </r>
        <r>  0.0035  0.0039  0.0000 </r>
        <r>  0.0047  0.0014  0.0000 </r>
        <r>  0.0008  0.0022  0.0000 </r>
        <r>  0.0054  0.0007  0.0000 </r>
        <r>  0.0034  0.0044  0.0000 </r>
        <r>  0.0018  0.0011  0.0000 </r>
        <r>  0.0005  0.0015  0.0000 </r>
        <r>  0.0056  0.0004  0.0000 </r>
        <r>  0.0014  0.0014  0.0000 </r>
       </set>
       <set comment="band 220">
        <r>  0.0013  0.0007  0.0114 </r>
        <r>  0.0003  0.0005  0.0280 </r>
        <r>  0.0004  0.0012  0.0683 </r>
        <r>  0.0006  0.0007  0.0318 </r>
        <r>  0.0002  0.0014  0.0588 </r>
        <r>  0.0045  0.0004  0.0263 </r>
        <r>  0.0039  0.0006  0.0324 </r>
        <r>  0.0005  0.0006  0.0269 </r>
        <r>  0.0003  0.0019  0.0737 </r>
        <r>  0.0005  0.0006  0.0341 </r>
        <r>  0.0002  0.0014  0.0590 </r>
        <r>  0.0014  0.0011  0.0245 </r>
        <r>  0.0010  0.0006  0.0206 </r>
        <r>  0.0015  0.0006  0.0178 </r>
        <r>  0.0011  0.0009  0.0265 </r>
        <r>  0.0014  0.0004  0.0174 </r>
        <r>  0.0043  0.0017  0.0000 </r>
        <r>  0.0032  0.0018  0.0000 </r>
        <r>  0.0001  0.0016  0.0000 </r>
        <r>  0.0005  0.0014  0.0000 </r>
        <r>  0.0023  0.0009  0.0000 </r>
        <r>  0.0046  0.0012  0.0000 </r>
        <r>  0.0032  0.0038  0.0000 </r>
        <r>  0.0008  0.0013  0.0000 </r>
        <r>  0.0004  0.0027  0.0000 </r>
        <r>  0.0065  0.0007  0.0000 </r>
        <r>  0.0038  0.0051  0.0000 </r>
        <r>  0.0017  0.0010  0.0000 </r>
        <r>  0.0018  0.0023  0.0000 </r>
        <r>  0.0047  0.0021  0.0000 </r>
        <r>  0.0018  0.0012  0.0000 </r>
        <r>  0.0003  0.0019  0.0000 </r>
        <r>  0.0000  0.0009  0.0000 </r>
        <r>  0.0037  0.0038  0.0000 </r>
        <r>  0.0015  0.0016  0.0000 </r>
        <r>  0.0014  0.0012  0.0000 </r>
        <r>  0.0046  0.0008  0.0000 </r>
        <r>  0.0034  0.0041  0.0000 </r>
        <r>  0.0016  0.0016  0.0000 </r>
        <r>  0.0062  0.0006  0.0000 </r>
       </set>
       <set comment="band 221">
        <r>  0.0000  0.0005  0.0498 </r>
        <r>  0.0009  0.0028  0.0622 </r>
        <r>  0.0011  0.0004  0.0287 </r>
        <r>  0.0008  0.0026  0.0596 </r>
        <r>  0.0008  0.0006  0.0288 </r>
        <r>  0.0000  0.0004  0.0503 </r>
        <r>  0.0000  0.0005  0.0685 </r>
        <r>  0.0007  0.0028  0.0484 </r>
        <r>  0.0004  0.0004  0.0223 </r>
        <r>  0.0006  0.0026  0.0472 </r>
        <r>  0.0007  0.0004  0.0256 </r>
        <r>  0.0002  0.0002  0.0143 </r>
        <r>  0.0004  0.0014  0.0216 </r>
        <r>  0.0004  0.0012  0.0150 </r>
        <r>  0.0002  0.0009  0.0112 </r>
        <r>  0.0008  0.0017  0.0214 </r>
        <r>  0.0046  0.0034  0.0000 </r>
        <r>  0.0012  0.0031  0.0000 </r>
        <r>  0.0019  0.0038  0.0000 </r>
        <r>  0.0015  0.0021  0.0000 </r>
        <r>  0.0003  0.0031  0.0000 </r>
        <r>  0.0017  0.0033  0.0000 </r>
        <r>  0.0014  0.0020  0.0000 </r>
        <r>  0.0002  0.0029  0.0000 </r>
        <r>  0.0008  0.0016  0.0000 </r>
        <r>  0.0023  0.0036  0.0000 </r>
        <r>  0.0009  0.0014  0.0000 </r>
        <r>  0.0051  0.0040  0.0000 </r>
        <r>  0.0028  0.0030  0.0000 </r>
        <r>  0.0025  0.0033  0.0000 </r>
        <r>  0.0037  0.0030  0.0000 </r>
        <r>  0.0010  0.0023  0.0000 </r>
        <r>  0.0044  0.0027  0.0000 </r>
        <r>  0.0002  0.0034  0.0000 </r>
        <r>  0.0020  0.0031  0.0000 </r>
        <r>  0.0002  0.0035  0.0000 </r>
        <r>  0.0016  0.0031  0.0000 </r>
        <r>  0.0014  0.0023  0.0000 </r>
        <r>  0.0017  0.0023  0.0000 </r>
        <r>  0.0021  0.0038  0.0000 </r>
       </set>
       <set comment="band 222">
        <r>  0.0001  0.0030  0.0419 </r>
        <r>  0.0000  0.0006  0.0302 </r>
        <r>  0.0008  0.0010  0.0256 </r>
        <r>  0.0003  0.0010  0.0634 </r>
        <r>  0.0002  0.0005  0.0276 </r>
        <r>  0.0006  0.0020  0.0261 </r>
        <r>  0.0003  0.0027  0.0633 </r>
        <r>  0.0001  0.0009  0.0420 </r>
        <r>  0.0001  0.0005  0.0218 </r>
        <r>  0.0005  0.0014  0.0696 </r>
        <r>  0.0007  0.0009  0.0190 </r>
        <r>  0.0001  0.0016  0.0185 </r>
        <r>  0.0001  0.0007  0.0536 </r>
        <r>  0.0005  0.0009  0.0383 </r>
        <r>  0.0022  0.0014  0.0161 </r>
        <r>  0.0023  0.0017  0.0301 </r>
        <r>  0.0028  0.0036  0.0000 </r>
        <r>  0.0019  0.0034  0.0000 </r>
        <r>  0.0003  0.0026  0.0000 </r>
        <r>  0.0040  0.0011  0.0000 </r>
        <r>  0.0003  0.0027  0.0000 </r>
        <r>  0.0016  0.0038  0.0000 </r>
        <r>  0.0022  0.0013  0.0000 </r>
        <r>  0.0014  0.0018  0.0000 </r>
        <r>  0.0046  0.0008  0.0000 </r>
        <r>  0.0001  0.0034  0.0000 </r>
        <r>  0.0011  0.0005  0.0000 </r>
        <r>  0.0002  0.0031  0.0000 </r>
        <r>  0.0018  0.0022  0.0000 </r>
        <r>  0.0004  0.0022  0.0000 </r>
        <r>  0.0031  0.0033  0.0000 </r>
        <r>  0.0045  0.0008  0.0000 </r>
        <r>  0.0031  0.0040  0.0000 </r>
        <r>  0.0022  0.0007  0.0000 </r>
        <r>  0.0013  0.0015  0.0000 </r>
        <r>  0.0014  0.0007  0.0000 </r>
        <r>  0.0011  0.0020  0.0000 </r>
        <r>  0.0057  0.0010  0.0000 </r>
        <r>  0.0001  0.0035  0.0000 </r>
        <r>  0.0025  0.0020  0.0000 </r>
       </set>
       <set comment="band 223">
        <r>  0.0006  0.0011  0.0287 </r>
        <r>  0.0009  0.0032  0.0590 </r>
        <r>  0.0000  0.0008  0.0238 </r>
        <r>  0.0003  0.0024  0.0329 </r>
        <r>  0.0002  0.0011  0.0278 </r>
        <r>  0.0005  0.0016  0.0435 </r>
        <r>  0.0011  0.0012  0.0287 </r>
        <r>  0.0006  0.0028  0.0528 </r>
        <r>  0.0002  0.0009  0.0362 </r>
        <r>  0.0003  0.0023  0.0171 </r>
        <r>  0.0001  0.0005  0.0376 </r>
        <r>  0.0004  0.0028  0.0528 </r>
        <r>  0.0016  0.0021  0.0121 </r>
        <r>  0.0035  0.0022  0.0124 </r>
        <r>  0.0008  0.0008  0.0293 </r>
        <r>  0.0002  0.0015  0.0309 </r>
        <r>  0.0010  0.0015  0.0000 </r>
        <r>  0.0033  0.0032  0.0000 </r>
        <r>  0.0044  0.0033  0.0000 </r>
        <r>  0.0020  0.0018  0.0000 </r>
        <r>  0.0017  0.0025  0.0000 </r>
        <r>  0.0009  0.0016  0.0000 </r>
        <r>  0.0019  0.0018  0.0000 </r>
        <r>  0.0004  0.0033  0.0000 </r>
        <r>  0.0032  0.0023  0.0000 </r>
        <r>  0.0010  0.0030  0.0000 </r>
        <r>  0.0012  0.0026  0.0000 </r>
        <r>  0.0016  0.0017  0.0000 </r>
        <r>  0.0014  0.0016  0.0000 </r>
        <r>  0.0025  0.0024  0.0000 </r>
        <r>  0.0019  0.0033  0.0000 </r>
        <r>  0.0026  0.0018  0.0000 </r>
        <r>  0.0007  0.0024  0.0000 </r>
        <r>  0.0001  0.0029  0.0000 </r>
        <r>  0.0001  0.0029  0.0000 </r>
        <r>  0.0018  0.0031  0.0000 </r>
        <r>  0.0004  0.0035  0.0000 </r>
        <r>  0.0014  0.0014  0.0000 </r>
        <r>  0.0006  0.0023  0.0000 </r>
        <r>  0.0006  0.0033  0.0000 </r>
       </set>
       <set comment="band 224">
        <r>  0.0005  0.0005  0.0683 </r>
        <r>  0.0001  0.0021  0.0163 </r>
        <r>  0.0000  0.0001  0.0098 </r>
        <r>  0.0000  0.0018  0.0310 </r>
        <r>  0.0002  0.0005  0.0200 </r>
        <r>  0.0000  0.0015  0.0885 </r>
        <r>  0.0002  0.0008  0.0225 </r>
        <r>  0.0001  0.0005  0.0408 </r>
        <r>  0.0006  0.0037  0.0299 </r>
        <r>  0.0002  0.0010  0.0374 </r>
        <r>  0.0003  0.0036  0.0553 </r>
        <r>  0.0006  0.0008  0.0381 </r>
        <r>  0.0002  0.0009  0.0287 </r>
        <r>  0.0001  0.0010  0.0489 </r>
        <r>  0.0003  0.0013  0.0411 </r>
        <r>  0.0007  0.0012  0.0212 </r>
        <r>  0.0006  0.0015  0.0000 </r>
        <r>  0.0002  0.0014  0.0000 </r>
        <r>  0.0008  0.0018  0.0000 </r>
        <r>  0.0026  0.0041  0.0000 </r>
        <r>  0.0014  0.0013  0.0000 </r>
        <r>  0.0002  0.0028  0.0000 </r>
        <r>  0.0025  0.0035  0.0000 </r>
        <r>  0.0002  0.0017  0.0000 </r>
        <r>  0.0023  0.0043  0.0000 </r>
        <r>  0.0008  0.0014  0.0000 </r>
        <r>  0.0045  0.0050  0.0000 </r>
        <r>  0.0005  0.0031  0.0000 </r>
        <r>  0.0042  0.0026  0.0000 </r>
        <r>  0.0043  0.0020  0.0000 </r>
        <r>  0.0032  0.0014  0.0000 </r>
        <r>  0.0014  0.0007  0.0000 </r>
        <r>  0.0019  0.0013  0.0000 </r>
        <r>  0.0019  0.0009  0.0000 </r>
        <r>  0.0043  0.0030  0.0000 </r>
        <r>  0.0041  0.0008  0.0000 </r>
        <r>  0.0032  0.0027  0.0000 </r>
        <r>  0.0002  0.0005  0.0000 </r>
        <r>  0.0041  0.0025  0.0000 </r>
        <r>  0.0017  0.0038  0.0000 </r>
       </set>
      </set>
     </set>
    </set>
   </array>
  </projected>
 </calculation>
 <structure name="finalpos" >
  <crystal>
   <varray name="basis" >
    <v>      -5.45835771       5.45835771       5.45835771 </v>
    <v>       5.45835771      -5.45835771       5.45835771 </v>
    <v>       5.45835771       5.45835771      -5.45835771 </v>
   </varray>
   <i name="volume">    650.49800952 </i>
   <varray name="rec_basis" >
    <v>       0.00000000       0.09160264       0.09160264 </v>
    <v>       0.09160264       0.00000000       0.09160264 </v>
    <v>       0.09160264       0.09160264       0.00000000 </v>
   </varray>
  </crystal>
  <varray name="positions" >
   <v>       0.71939888       0.75000000       0.46939888 </v>
   <v>       0.25000000       0.03060112       0.78060112 </v>
   <v>       0.46939888       0.71939888       0.75000000 </v>
   <v>       0.75000000       0.46939888       0.71939888 </v>
   <v>       0.03060112       0.78060112       0.25000000 </v>
   <v>       0.78060112       0.25000000       0.03060112 </v>
   <v>       0.28060112       0.25000000       0.53060112 </v>
   <v>       0.75000000       0.96939888       0.21939888 </v>
   <v>       0.53060112       0.28060112       0.25000000 </v>
   <v>       0.25000000       0.53060112       0.28060112 </v>
   <v>       0.96939888       0.21939888       0.75000000 </v>
   <v>       0.21939888       0.75000000       0.96939888 </v>
   <v>       0.50000000       0.50000000       1.00000000 </v>
   <v>       0.00000000       0.00000000       1.00000000 </v>
   <v>       0.00000000       0.50000000       0.50000000 </v>
   <v>       0.50000000       0.00000000       0.50000000 </v>
   <v>       0.23084981       0.27111259       0.75853180 </v>
   <v>       0.01258078       0.47231801       0.74146820 </v>
   <v>       0.26915019       0.02768199       0.04026277 </v>
   <v>       0.74146820       0.01258078       0.47231801 </v>
   <v>       0.27111259       0.75853180       0.23084981 </v>
   <v>       0.22888741       0.45973723       0.48741922 </v>
   <v>       0.45973723       0.48741922       0.22888741 </v>
   <v>       0.47231801       0.74146820       0.01258078 </v>
   <v>       0.04026277       0.26915019       0.02768199 </v>
   <v>       0.02768199       0.04026277       0.26915019 </v>
   <v>       0.75853180       0.23084981       0.27111259 </v>
   <v>       0.48741922       0.22888741       0.45973723 </v>
   <v>       0.76915019       0.72888741       0.24146820 </v>
   <v>       0.98741922       0.52768199       0.25853180 </v>
   <v>       0.73084981       0.97231801       0.95973723 </v>
   <v>       0.25853180       0.98741922       0.52768199 </v>
   <v>       0.51258078       0.77111259       0.54026277 </v>
   <v>       0.24146820       0.76915019       0.72888741 </v>
   <v>       0.97231801       0.95973723       0.73084981 </v>
   <v>       0.95973723       0.73084981       0.97231801 </v>
   <v>       0.52768199       0.25853180       0.98741922 </v>
   <v>       0.54026277       0.51258078       0.77111259 </v>
   <v>       0.77111259       0.54026277       0.51258078 </v>
   <v>       0.72888741       0.24146820       0.76915019 </v>
  </varray>
 </structure>
</modeling>
