       N       E                     dE             d eps       ncg     rms          rms(c)
DAV:   1     0.188052893960E+03    0.18805E+03   -0.11021E+04   324   0.108E+03
DAV:   2     0.438838437357E+01   -0.18366E+03   -0.18096E+03   460   0.228E+02
DAV:   3    -0.835610170082E+01   -0.12744E+02   -0.12714E+02   422   0.743E+01
DAV:   4    -0.850893949464E+01   -0.15284E+00   -0.15277E+00   404   0.952E+00
DAV:   5    -0.851153472899E+01   -0.25952E-02   -0.25946E-02   410   0.121E+00    0.168E+01
DAV:   6    -0.815453471416E+01    0.35700E+00   -0.26174E-01   350   0.340E+00    0.111E+01
DAV:   7    -0.804442066025E+01    0.11011E+00   -0.57831E-01   364   0.493E+00    0.969E-01
DAV:   8    -0.803009981801E+01    0.14321E-01   -0.73947E-02   346   0.192E+00    0.408E-01
DAV:   9    -0.803025625822E+01   -0.15644E-03   -0.20887E-03   412   0.319E-01    0.111E-01
DAV:  10    -0.803032649014E+01   -0.70232E-04   -0.14725E-04   440   0.868E-02    0.602E-02
DAV:  11    -0.803033142587E+01   -0.49357E-05   -0.40055E-05   352   0.409E-02    0.125E-02
DAV:  12    -0.803033147554E+01   -0.49670E-07   -0.36982E-06   354   0.146E-02    0.565E-03
DAV:  13    -0.803033187182E+01   -0.39628E-06   -0.98703E-07   420   0.687E-03    0.199E-03
DAV:  14    -0.803033187529E+01   -0.34667E-08   -0.13131E-07   200   0.262E-03
   1 F= -.80303319E+01 E0= -.80303319E+01  d E =-.803033E+01
       N       E                     dE             d eps       ncg     rms          rms(c)
DAV:   1    -0.804496518200E+01   -0.14633E-01   -0.70533E-01   324   0.487E+00    0.663E-01
DAV:   2    -0.803942168854E+01    0.55435E-02   -0.33064E-02   350   0.135E+00    0.248E-01
DAV:   3    -0.803763650162E+01    0.17852E-02   -0.33995E-03   340   0.343E-01    0.165E-01
DAV:   4    -0.803747754181E+01    0.15896E-03   -0.30476E-04   418   0.112E-01    0.108E-01
DAV:   5    -0.803746562234E+01    0.11919E-04   -0.68880E-05   354   0.584E-02    0.108E-02
DAV:   6    -0.803746516079E+01    0.46155E-06   -0.10652E-05   346   0.210E-02    0.857E-03
DAV:   7    -0.803746517477E+01   -0.13979E-07   -0.11785E-06   420   0.725E-03    0.547E-03
DAV:   8    -0.803746521028E+01   -0.35510E-07   -0.12521E-07   202   0.263E-03
   2 F= -.80374652E+01 E0= -.80374652E+01  d E =-.713333E-02
       N       E                     dE             d eps       ncg     rms          rms(c)
DAV:   1    -0.812258400317E+01   -0.85119E-01   -0.63978E+00   324   0.146E+01    0.201E+00
DAV:   2    -0.807138443965E+01    0.51200E-01   -0.30356E-01   350   0.406E+00    0.755E-01
DAV:   3    -0.805561491573E+01    0.15770E-01   -0.29609E-02   342   0.102E+00    0.517E-01
DAV:   4    -0.805399001395E+01    0.16249E-02   -0.29935E-03   410   0.354E-01    0.328E-01
DAV:   5    -0.805380922796E+01    0.18079E-03   -0.64628E-04   360   0.179E-01    0.329E-02
DAV:   6    -0.805380624039E+01    0.29876E-05   -0.81768E-05   346   0.594E-02    0.259E-02
DAV:   7    -0.805380706576E+01   -0.82536E-06   -0.10499E-05   422   0.216E-02    0.163E-02
DAV:   8    -0.805380722477E+01   -0.15902E-06   -0.13694E-06   352   0.807E-03    0.359E-03
DAV:   9    -0.805380725289E+01   -0.28120E-07   -0.18918E-07   252   0.342E-03
   3 F= -.80538073E+01 E0= -.80538073E+01  d E =-.234754E-01
       N       E                     dE             d eps       ncg     rms          rms(c)
DAV:   1    -0.833747511693E+01   -0.28367E+00   -0.25967E+01   324   0.296E+01    0.412E+00
DAV:   2    -0.812702080519E+01    0.21045E+00   -0.12647E+00   350   0.818E+00    0.157E+00
DAV:   3    -0.806472568093E+01    0.62295E-01   -0.11375E-01   354   0.204E+00    0.112E+00
DAV:   4    -0.805738269251E+01    0.73430E-02   -0.13413E-02   398   0.759E-01    0.685E-01
DAV:   5    -0.805656213728E+01    0.82056E-03   -0.28563E-03   372   0.376E-01    0.663E-02
DAV:   6    -0.805655980832E+01    0.23290E-05   -0.27626E-04   362   0.113E-01    0.518E-02
DAV:   7    -0.805656236186E+01   -0.25535E-05   -0.41880E-05   424   0.429E-02    0.304E-02
DAV:   8    -0.805656202858E+01    0.33328E-06   -0.61354E-06   354   0.169E-02    0.750E-03
DAV:   9    -0.805656219940E+01   -0.17082E-06   -0.72154E-07   422   0.635E-03    0.127E-03
DAV:  10    -0.805656221742E+01   -0.18021E-07   -0.84568E-08   210   0.217E-03
   4 F= -.80565622E+01 E0= -.80565622E+01  d E =-.262303E-01
       N       E                     dE             d eps       ncg     rms          rms(c)
DAV:   1    -0.813547211151E+01   -0.78910E-01   -0.70105E+00   324   0.157E+01    0.188E+00
DAV:   2    -0.808310224819E+01    0.52370E-01   -0.33741E-01   368   0.433E+00    0.818E-01
DAV:   3    -0.806287807956E+01    0.20224E-01   -0.39611E-02   338   0.119E+00    0.564E-01
DAV:   4    -0.806177787541E+01    0.11002E-02   -0.19881E-03   424   0.291E-01    0.400E-01
DAV:   5    -0.806142910604E+01    0.34877E-03   -0.81100E-04   358   0.198E-01    0.297E-02
DAV:   6    -0.806142314213E+01    0.59639E-05   -0.99126E-05   348   0.656E-02    0.243E-02
DAV:   7    -0.806142520157E+01   -0.20594E-05   -0.90116E-06   420   0.206E-02    0.121E-02
DAV:   8    -0.806142591373E+01   -0.71216E-06   -0.93676E-07   356   0.681E-03    0.342E-03
DAV:   9    -0.806142606157E+01   -0.14784E-06   -0.15360E-07   204   0.315E-03    0.478E-04
DAV:  10    -0.806142606895E+01   -0.73748E-08   -0.47507E-08   186   0.149E-03
   5 F= -.80614261E+01 E0= -.80614261E+01  d E =-.310942E-01
       N       E                     dE             d eps       ncg     rms          rms(c)
DAV:   1    -0.808210266010E+01   -0.20677E-01   -0.70748E-01   324   0.547E+00    0.110E+00
DAV:   2    -0.806878828483E+01    0.13314E-01   -0.25151E-02   336   0.112E+00    0.370E-01
DAV:   3    -0.806497655877E+01    0.38117E-02   -0.86989E-03   338   0.543E-01    0.236E-01
DAV:   4    -0.806483468334E+01    0.14188E-03   -0.28366E-04   426   0.112E-01    0.207E-01
DAV:   5    -0.806477143074E+01    0.63253E-04   -0.20995E-04   352   0.100E-01    0.237E-02
DAV:   6    -0.806477597383E+01   -0.45431E-05   -0.17076E-05   414   0.285E-02    0.756E-03
DAV:   7    -0.806477534308E+01    0.63074E-06   -0.20117E-06   358   0.940E-03    0.570E-03
DAV:   8    -0.806477568142E+01   -0.33833E-06   -0.43777E-07   346   0.459E-03    0.126E-03
DAV:   9    -0.806477570953E+01   -0.28116E-07   -0.33129E-08   194   0.139E-03
   6 F= -.80647757E+01 E0= -.80647757E+01  d E =-.334964E-02
       N       E                     dE             d eps       ncg     rms          rms(c)
DAV:   1    -0.806478390497E+01   -0.82235E-05   -0.28507E-04   328   0.110E-01    0.222E-02
DAV:   2    -0.806477810747E+01    0.57975E-05   -0.10085E-05   342   0.225E-02    0.745E-03
DAV:   3    -0.806477653242E+01    0.15750E-05   -0.35192E-06   340   0.109E-02    0.479E-03
DAV:   4    -0.806477660523E+01   -0.72802E-07   -0.96964E-08   186   0.226E-03
   7 F= -.80647766E+01 E0= -.80647766E+01  d E =-.335054E-02
       N       E                     dE             d eps       ncg     rms          rms(c)
DAV:   1    -0.806525308170E+01   -0.47655E-03   -0.24156E-02   328   0.938E-01    0.710E-02
DAV:   2    -0.806524542223E+01    0.76595E-05   -0.11028E-03   418   0.242E-01    0.390E-02
DAV:   3    -0.806520785802E+01    0.37564E-04   -0.28439E-05   388   0.384E-02    0.238E-02
DAV:   4    -0.806519484433E+01    0.13014E-04   -0.27324E-05   358   0.343E-02    0.828E-03
DAV:   5    -0.806519526301E+01   -0.41868E-06   -0.19292E-06   376   0.994E-03    0.268E-03
DAV:   6    -0.806519536610E+01   -0.10309E-06   -0.12863E-07   190   0.263E-03    0.140E-03
DAV:   7    -0.806519540243E+01   -0.36327E-07   -0.31375E-08   178   0.131E-03
   8 F= -.80651954E+01 E0= -.80651954E+01  d E =-.418797E-03
       N       E                     dE             d eps       ncg     rms          rms(c)
DAV:   1    -0.806688246890E+01   -0.16871E-02   -0.21763E-01   328   0.281E+00    0.214E-01
DAV:   2    -0.806681114297E+01    0.71326E-04   -0.99016E-03   420   0.726E-01    0.117E-01
DAV:   3    -0.806647166860E+01    0.33947E-03   -0.25617E-04   388   0.115E-01    0.712E-02
DAV:   4    -0.806635100020E+01    0.12067E-03   -0.24690E-04   360   0.103E-01    0.248E-02
DAV:   5    -0.806635199354E+01   -0.99334E-06   -0.17362E-05   376   0.298E-02    0.802E-03
DAV:   6    -0.806635254715E+01   -0.55361E-06   -0.13882E-06   392   0.796E-03    0.447E-03
DAV:   7    -0.806635280245E+01   -0.25530E-06   -0.16493E-07   200   0.314E-03    0.129E-03
DAV:   8    -0.806635277193E+01    0.30518E-07   -0.56691E-08   184   0.172E-03
   9 F= -.80663528E+01 E0= -.80663528E+01  d E =-.157617E-02
       N       E                     dE             d eps       ncg     rms          rms(c)
DAV:   1    -0.807036001148E+01   -0.40072E-02   -0.87100E-01   324   0.562E+00    0.431E-01
DAV:   2    -0.807005179180E+01    0.30822E-03   -0.39521E-02   420   0.145E+00    0.236E-01
DAV:   3    -0.806869037008E+01    0.13614E-02   -0.10176E-03   386   0.229E-01    0.143E-01
DAV:   4    -0.806819779074E+01    0.49258E-03   -0.10112E-03   354   0.208E-01    0.496E-02
DAV:   5    -0.806819937972E+01   -0.15890E-05   -0.70143E-05   374   0.603E-02    0.160E-02
DAV:   6    -0.806820114006E+01   -0.17603E-05   -0.57022E-06   392   0.162E-02    0.894E-03
DAV:   7    -0.806820202530E+01   -0.88524E-06   -0.73546E-07   378   0.629E-03    0.295E-03
DAV:   8    -0.806820199239E+01    0.32918E-07   -0.21642E-07   218   0.343E-03
  10 F= -.80682020E+01 E0= -.80682020E+01  d E =-.342539E-02
       N       E                     dE             d eps       ncg     rms          rms(c)
DAV:   1    -0.807881029216E+01   -0.10608E-01   -0.34882E+00   324   0.112E+01    0.871E-01
DAV:   2    -0.807736269999E+01    0.14476E-02   -0.15756E-01   418   0.290E+00    0.477E-01
DAV:   3    -0.807188136845E+01    0.54813E-02   -0.40188E-03   386   0.457E-01    0.291E-01
DAV:   4    -0.806985015521E+01    0.20312E-02   -0.42465E-03   350   0.426E-01    0.994E-02
DAV:   5    -0.806985278285E+01   -0.26276E-05   -0.28969E-04   376   0.124E-01    0.317E-02
DAV:   6    -0.806985855468E+01   -0.57718E-05   -0.24334E-05   394   0.335E-02    0.180E-02
DAV:   7    -0.806986170847E+01   -0.31538E-05   -0.28930E-06   390   0.125E-02    0.639E-03
DAV:   8    -0.806986181302E+01   -0.10455E-06   -0.10993E-06   398   0.715E-03    0.122E-03
DAV:   9    -0.806986180186E+01    0.11155E-07   -0.10523E-07   198   0.235E-03
  11 F= -.80698618E+01 E0= -.80698618E+01  d E =-.508520E-02
       N       E                     dE             d eps       ncg     rms          rms(c)
DAV:   1    -0.807621157925E+01   -0.63498E-02   -0.23285E-01   324   0.309E+00    0.599E-01
DAV:   2    -0.807097179312E+01    0.52398E-02   -0.13971E-02   336   0.767E-01    0.208E-01
DAV:   3    -0.806982593168E+01    0.11459E-02   -0.31325E-03   366   0.310E-01    0.176E-01
DAV:   4    -0.806980993424E+01    0.15997E-04   -0.44261E-05   426   0.453E-02    0.160E-01
DAV:   5    -0.806976993841E+01    0.39996E-04   -0.99236E-05   348   0.628E-02    0.165E-02
DAV:   6    -0.806976983055E+01    0.10785E-06   -0.39978E-06   342   0.146E-02    0.722E-03
DAV:   7    -0.806976982651E+01    0.40415E-08   -0.11079E-06   348   0.703E-03    0.152E-03
DAV:   8    -0.806976972976E+01    0.96750E-07   -0.18896E-07   178   0.305E-03
  12 F= -.80697697E+01 E0= -.80697697E+01  d E =0.920721E-04
       N       E                     dE             d eps       ncg     rms          rms(c)
DAV:   1    -0.807199463701E+01   -0.22248E-02   -0.69794E-02   324   0.170E+00    0.331E-01
DAV:   2    -0.807041109765E+01    0.15835E-02   -0.42009E-03   336   0.420E-01    0.114E-01
DAV:   3    -0.807007031791E+01    0.34078E-03   -0.92664E-04   366   0.169E-01    0.952E-02
DAV:   4    -0.807006750052E+01    0.28174E-05   -0.14382E-05   426   0.257E-02    0.842E-02
DAV:   5    -0.807007064462E+01   -0.31441E-05   -0.27542E-05   346   0.331E-02    0.682E-03
DAV:   6    -0.807007056732E+01    0.77301E-07   -0.10947E-06   344   0.766E-03    0.255E-03
DAV:   7    -0.807007047070E+01    0.96624E-07   -0.24407E-07   258   0.343E-03
  13 F= -.80700705E+01 E0= -.80700705E+01  d E =-.208669E-03
       N       E                     dE             d eps       ncg     rms          rms(c)
DAV:   1    -0.807142914525E+01   -0.13586E-02   -0.65072E-02   324   0.155E+00    0.244E-01
DAV:   2    -0.807058720814E+01    0.84194E-03   -0.36415E-03   378   0.418E-01    0.773E-02
DAV:   3    -0.807038564506E+01    0.20156E-03   -0.46698E-04   372   0.123E-01    0.645E-02
DAV:   4    -0.807036976458E+01    0.15880E-04   -0.25175E-05   388   0.313E-02    0.438E-02
DAV:   5    -0.807036114447E+01    0.86201E-05   -0.13559E-05   356   0.223E-02    0.308E-03
DAV:   6    -0.807036126221E+01   -0.11773E-06   -0.64154E-07   396   0.548E-03    0.277E-03
DAV:   7    -0.807036128185E+01   -0.19645E-07   -0.69025E-08   186   0.185E-03
  14 F= -.80703613E+01 E0= -.80703613E+01  d E =-.290811E-03
       N       E                     dE             d eps       ncg     rms          rms(c)
DAV:   1    -0.807273964590E+01   -0.23784E-02   -0.13505E-01   324   0.223E+00    0.352E-01
DAV:   2    -0.807098756712E+01    0.17521E-02   -0.75477E-03   378   0.602E-01    0.111E-01
DAV:   3    -0.807056864795E+01    0.41892E-03   -0.97128E-04   372   0.177E-01    0.924E-02
DAV:   4    -0.807053797295E+01    0.30675E-04   -0.51859E-05   390   0.449E-02    0.628E-02
DAV:   5    -0.807052356673E+01    0.14406E-04   -0.28238E-05   360   0.321E-02    0.440E-03
DAV:   6    -0.807052366657E+01   -0.99843E-07   -0.13346E-06   404   0.790E-03    0.396E-03
DAV:   7    -0.807052370166E+01   -0.35086E-07   -0.14319E-07   200   0.265E-03
  15 F= -.80705237E+01 E0= -.80705237E+01  d E =-.453231E-03
       N       E                     dE             d eps       ncg     rms          rms(c)
DAV:   1    -0.807052705029E+01   -0.33837E-05   -0.18933E-04   324   0.836E-02    0.129E-02
DAV:   2    -0.807052503229E+01    0.20180E-05   -0.10645E-05   386   0.225E-02    0.414E-03
DAV:   3    -0.807052448047E+01    0.55183E-06   -0.13277E-06   372   0.655E-03    0.350E-03
DAV:   4    -0.807052426915E+01    0.21132E-06   -0.69103E-08   170   0.175E-03    0.224E-03
DAV:   5    -0.807052399516E+01    0.27398E-06   -0.70313E-08   162   0.170E-03    0.333E-04
DAV:   6    -0.807052396930E+01    0.25862E-07   -0.60581E-09   162   0.609E-04
  16 F= -.80705240E+01 E0= -.80705240E+01  d E =-.453499E-03
       N       E                     dE             d eps       ncg     rms          rms(c)
DAV:   1    -0.807066147771E+01   -0.13748E-03   -0.33984E-03   324   0.367E-01    0.679E-02
DAV:   2    -0.807057021251E+01    0.91265E-04   -0.16120E-04   332   0.808E-02    0.231E-02
DAV:   3    -0.807054892452E+01    0.21288E-04   -0.51839E-05   340   0.404E-02    0.185E-02
DAV:   4    -0.807054600265E+01    0.29219E-05   -0.23462E-06   424   0.101E-02    0.696E-03
DAV:   5    -0.807054476502E+01    0.12376E-05   -0.15175E-06   336   0.738E-03    0.154E-03
DAV:   6    -0.807054474140E+01    0.23614E-07   -0.61247E-08   184   0.188E-03
  17 F= -.80705447E+01 E0= -.80705447E+01  d E =-.207721E-04
       N       E                     dE             d eps       ncg     rms          rms(c)
DAV:   1    -0.807164571281E+01   -0.11009E-02   -0.30517E-02   324   0.110E+00    0.204E-01
DAV:   2    -0.807081219559E+01    0.83352E-03   -0.14473E-03   332   0.242E-01    0.692E-02
DAV:   3    -0.807062008363E+01    0.19211E-03   -0.46535E-04   340   0.121E-01    0.555E-02
DAV:   4    -0.807060329387E+01    0.16790E-04   -0.21110E-05   424   0.302E-02    0.208E-02
DAV:   5    -0.807059754889E+01    0.57450E-05   -0.13725E-05   336   0.222E-02    0.458E-03
DAV:   6    -0.807059750891E+01    0.39979E-07   -0.65243E-07   396   0.566E-03
  18 F= -.80705975E+01 E0= -.80705975E+01  d E =-.735396E-04
       N       E                     dE             d eps       ncg     rms          rms(c)
DAV:   1    -0.807478921250E+01   -0.41917E-02   -0.12147E-01   324   0.219E+00    0.407E-01
DAV:   2    -0.807145227057E+01    0.33369E-02   -0.57614E-03   330   0.483E-01    0.138E-01
DAV:   3    -0.807068555892E+01    0.76671E-03   -0.18542E-03   346   0.242E-01    0.111E-01
DAV:   4    -0.807062808981E+01    0.57469E-04   -0.84270E-05   424   0.603E-02    0.412E-02
DAV:   5    -0.807061048104E+01    0.17609E-04   -0.55349E-05   334   0.445E-02    0.905E-03
DAV:   6    -0.807061049366E+01   -0.12616E-07   -0.26413E-06   412   0.114E-02    0.320E-03
DAV:   7    -0.807061058560E+01   -0.91946E-07   -0.29472E-07   310   0.377E-03
  19 F= -.80706106E+01 E0= -.80706106E+01  d E =-.866163E-04
       N       E                     dE             d eps       ncg     rms          rms(c)
DAV:   1    -0.807097936267E+01   -0.36887E-03   -0.10567E-02   324   0.647E-01    0.120E-01
DAV:   2    -0.807068478951E+01    0.29457E-03   -0.50212E-04   330   0.143E-01    0.407E-02
DAV:   3    -0.807061810022E+01    0.66689E-04   -0.16146E-04   344   0.713E-02    0.323E-02
DAV:   4    -0.807061674909E+01    0.13511E-05   -0.72456E-06   422   0.177E-02    0.122E-02
DAV:   5    -0.807061728468E+01   -0.53559E-06   -0.46173E-06   338   0.129E-02    0.275E-03
DAV:   6    -0.807061734232E+01   -0.57636E-07   -0.19688E-07   238   0.330E-03
  20 F= -.80706173E+01 E0= -.80706173E+01  d E =-.933730E-04
       N       E                     dE             d eps       ncg     rms          rms(c)
DAV:   1    -0.807063073543E+01   -0.13451E-04   -0.28023E-04   324   0.105E-01    0.197E-02
DAV:   2    -0.807062522840E+01    0.55070E-05   -0.10221E-05   332   0.216E-02    0.596E-03
DAV:   3    -0.807062370554E+01    0.15229E-05   -0.32613E-06   346   0.104E-02    0.452E-03
DAV:   4    -0.807062325875E+01    0.44679E-06   -0.20581E-07   214   0.308E-03    0.232E-03
DAV:   5    -0.807062294967E+01    0.30908E-06   -0.18250E-07   166   0.285E-03    0.581E-04
DAV:   6    -0.807062288801E+01    0.61664E-07   -0.18273E-08   162   0.106E-03
  21 F= -.80706229E+01 E0= -.80706229E+01  d E =-.554569E-05
       N       E                     dE             d eps       ncg     rms          rms(c)
DAV:   1    -0.807070844707E+01   -0.85497E-04   -0.24954E-03   324   0.314E-01    0.600E-02
DAV:   2    -0.807065574126E+01    0.52706E-04   -0.91218E-05   332   0.644E-02    0.178E-02
DAV:   3    -0.807064173385E+01    0.14007E-04   -0.29525E-05   378   0.311E-02    0.133E-02
DAV:   4    -0.807063945276E+01    0.22811E-05   -0.21012E-06   384   0.923E-03    0.735E-03
DAV:   5    -0.807063827256E+01    0.11802E-05   -0.10244E-06   364   0.639E-03    0.124E-03
DAV:   6    -0.807063822067E+01    0.51890E-07   -0.33240E-08   176   0.145E-03
  22 F= -.80706382E+01 E0= -.80706382E+01  d E =-.208784E-04
       N       E                     dE             d eps       ncg     rms          rms(c)
DAV:   1    -0.807094243613E+01   -0.30416E-03   -0.99807E-03   324   0.628E-01    0.120E-01
DAV:   2    -0.807072856679E+01    0.21387E-03   -0.36451E-04   332   0.129E-01    0.356E-02
DAV:   3    -0.807067221877E+01    0.56348E-04   -0.11789E-04   378   0.622E-02    0.266E-02
DAV:   4    -0.807066470990E+01    0.75089E-05   -0.84160E-06   386   0.185E-02    0.147E-02
DAV:   5    -0.807066173682E+01    0.29731E-05   -0.41093E-06   376   0.128E-02    0.247E-03
DAV:   6    -0.807066165325E+01    0.83575E-07   -0.13280E-07   200   0.289E-03
  23 F= -.80706617E+01 E0= -.80706617E+01  d E =-.443109E-04
       N       E                     dE             d eps       ncg     rms          rms(c)
DAV:   1    -0.807180168480E+01   -0.11399E-02   -0.39835E-02   324   0.125E+00    0.240E-01
DAV:   2    -0.807094117857E+01    0.86051E-03   -0.14541E-03   332   0.257E-01    0.712E-02
DAV:   3    -0.807071545824E+01    0.22572E-03   -0.47021E-04   376   0.124E-01    0.532E-02
DAV:   4    -0.807068862701E+01    0.26831E-04   -0.33690E-05   388   0.369E-02    0.294E-02
DAV:   5    -0.807068021986E+01    0.84071E-05   -0.16510E-05   376   0.256E-02    0.492E-03
DAV:   6    -0.807068014174E+01    0.78120E-07   -0.60682E-07   348   0.579E-03
  24 F= -.80706801E+01 E0= -.80706801E+01  d E =-.627994E-04
