 vasp.6.5.1 10Mar25 (build May 13 2025 11:33:44) complex                         
 executed on              LinuxNV date 2026.05.13  11:33:22
 running    2 mpi-ranks, on    1 nodes
 distrk:  each k-point on    1 cores,    2 groups
 distr:  one band on NCORE=   1 cores,    1 groups
 Offloading initialized ...    2 GPUs detected


--------------------------------------------------------------------------------------------------------


 INCAR:
   ALGO = Normal
   PREC = Normal
   LREAL = False
   EDIFF = 1e-07
   ENCUT = 400.0
   LASPH = True
   NELM = 100
   ISIF = 3
   IBRION = 2
   EDIFFG = -0.005
   NSW = 300
   ISMEAR = -5
   SIGMA = 0.1
   LWAVE = False
   LCHARG = False
   LORBIT = 10
   GGA = Ps
   KPAR = 2

 POTCAR:    PAW_PBE Cl 06Sep2000                  
 POTCAR:    PAW_PBE Cl 06Sep2000                  
   SHA256 =  9f1b6e6ed4247ac726a768b330d26d7667cc3c95a39ff49c1d064c2d9dcce931 Cl/POTCAR             
   COPYR  = (c) Copyright 06Sep2000 Georg Kresse                                                    
   COPYR  = This file is part of the software VASP. Any use, copying, and all other rights are regul
   COPYR  = If you do not have a valid VASP license, you may not use, copy or distribute this file. 
   VRHFIN =Cl: s2p5                                                                                 
   LEXCH  = PE                                                                                      
   EATOM  =   409.7259 eV,   30.1140 Ry                                                             
                                                                                                    
   TITEL  = PAW_PBE Cl 06Sep2000                                                                    
   LULTRA =        F    use ultrasoft PP ?                                                          
   IUNSCR =        1    unscreen: 0-lin 1-nonlin 2-no                                               
   RPACOR =    1.500    partial core radius                                                         
   POMASS =   35.453; ZVAL   =    7.000    mass and valenz                                          
   RCORE  =    1.900    outmost cutoff radius                                                       
   RWIGS  =    2.100; RWIGS  =    1.111    wigner-seitz radius (au A)                               
   ENMAX  =  262.472; ENMIN  =  196.854 eV                                                          
   ICORE  =        2    local potential                                                             
   LCOR   =        T    correct aug charges                                                         
   LPAW   =        T    paw PP                                                                      
   EAUG   =  356.192                                                                                
   DEXC   =    0.000                                                                                
   RMAX   =    1.945    core radius for proj-oper                                                   
   RAUG   =    1.300    factor for augmentation sphere                                              
   RDEP   =    2.020    radius for radial grids                                                     
   RDEPT  =    1.678    core radius for aug-charge                                                  
                                                                                                    
   Atomic configuration                                                                             
    6 entries                                                                                       
     n  l   j            E        occ.                                                              
     1  0  0.50     -2751.1850   2.0000                                                             
     2  0  0.50      -252.6861   2.0000                                                             
     2  1  1.50      -191.6157   6.0000                                                             
     3  0  0.50       -20.6916   2.0000                                                             
     3  1  0.50        -8.5949   5.0000                                                             
     3  2  1.50        -8.1635   0.0000                                                             
   Description                                                                                      
     l       E           TYP  RCUT    TYP  RCUT                                                     
     0    -20.6915656     23  1.900                                                                 
     0    -22.0521482     23  1.900                                                                 
     1     -8.5948577     23  1.900                                                                 
     1     -5.3847331     23  1.900                                                                 
     2     -8.1634956     23  1.900                                                                 
  local pseudopotential read in
  partial core-charges read in
  partial kinetic energy density read in
  atomic valenz-charges read in
  non local Contribution for L=            0  read in
    real space projection operators read in
  non local Contribution for L=            0  read in
    real space projection operators read in
  non local Contribution for L=            1  read in
    real space projection operators read in
  non local Contribution for L=            1  read in
    real space projection operators read in
    PAW grid and wavefunctions read in
 
   number of l-projection  operators is LMAX  =            4
   number of lm-projection operators is LMMAX =            8
 
 -----------------------------------------------------------------------------
|                                                                             |
|               ----> ADVICE to this user running VASP <----                  |
|                                                                             |
|     You enforced a specific xc type in the INCAR file but a different       |
|     type was found in the POTCAR file.                                      |
|     I HOPE YOU KNOW WHAT YOU ARE DOING!                                     |
|                                                                             |
 -----------------------------------------------------------------------------

  PAW_PBE Cl 06Sep2000                  :
 energy of atom  1       EATOM= -409.7259
 kinetic energy error for atom=    0.0089 (will be added to EATOM!!)
 
 
 POSCAR: Cl4
  positions in direct lattice
  No initial velocities read in


 exchange-correlation table for PS
   RHO(1)=    0.500       N(1)  =     2000
   RHO(2)=  100.500       N(2)  =     4000
 


--------------------------------------------------------------------------------------------------------


 ion  position               nearest neighbor table
   1  0.388  0.612  0.106-   2 2.00
   2  0.612  0.388  0.894-   1 2.00
   3  0.112  0.888  0.606-   4 2.00
   4  0.888  0.112  0.394-   3 2.00
 
  LATTYP: Found a base centered orthorhombic cell.
 ALAT       =     4.0268581000
 B/A-ratio  =     1.6444957820
 C/A-ratio  =     2.0987479296
  
  Lattice vectors:
  
 A1 = (  -3.3110755800,  -2.0134290500,   0.0000000000)
 A2 = (   3.3110755800,  -2.0134290500,   0.0000000000)
 A3 = (   0.0000000000,   0.0000000000,   8.4513601000)


Analysis of symmetry for initial positions (statically):
=====================================================================
 Subroutine PRICEL returns:
 Original cell was already a primitive cell.
 

 Routine SETGRP: Setting up the symmetry group for a 
 base centered orthorhombic supercell.


 Subroutine GETGRP returns: Found  8 space group operations
 (whereof  4 operations were pure point group operations)
 out of a pool of  8 trial point group operations.


The static configuration has the point symmetry C_2h.
 The point group associated with its full space group is D_2h.


Analysis of symmetry for dynamics (positions and initial velocities):
=====================================================================
 Subroutine PRICEL returns:
 Original cell was already a primitive cell.
 

 Routine SETGRP: Setting up the symmetry group for a 
 base centered orthorhombic supercell.


 Subroutine GETGRP returns: Found  8 space group operations
 (whereof  4 operations were pure point group operations)
 out of a pool of  8 trial point group operations.


The dynamic configuration has the point symmetry C_2h.
 The point group associated with its full space group is D_2h.


 Subroutine INISYM returns: Found  8 space group operations
 (whereof  4 operations are pure point group operations),
 and found     1 'primitive' translations


----------------------------------------------------------------------------------------

                                     Primitive cell                                     

  volume of cell :     112.6839

  direct lattice vectors                    reciprocal lattice vectors
     3.311075580 -2.013429050  0.000000000     0.151008332 -0.248332565  0.000000000
     3.311075580  2.013429050  0.000000000     0.151008332  0.248332565 -0.000000000
     0.000000000  0.000000000  8.451360100    -0.000000000  0.000000000  0.118324150

  length of vectors
     3.875192645  3.875192645  8.451360100     0.290641668  0.290641668  0.118324150

  position of ions in fractional coordinates (direct lattice)
     0.388065710  0.611934290  0.105515430
     0.611934290  0.388065710  0.894484570
     0.111934290  0.888065710  0.605515430
     0.888065710  0.111934290  0.394484570

  ion indices of the primitive-cell ions
   primitive index   ion index
                 1           1
                 2           2
                 3           3
                 4           4

----------------------------------------------------------------------------------------

 
 
 KPOINTS: Num irrep kpoints: 9                    

Automatic generation of k-mesh.
 Grid dimensions read from file:
 generate k-points for:    5    5    2

 Generating k-lattice:

  Cartesian coordinates                     Fractional coordinates (reciprocal lattice)
     0.030201666 -0.049666513  0.000000000     0.200000000 -0.000000000  0.000000000
     0.030201666  0.049666513 -0.000000000    -0.000000000  0.200000000  0.000000000
    -0.000000000  0.000000000  0.059162075     0.000000000  0.000000000  0.500000000

  Length of vectors
     0.058128334  0.058128334  0.059162075

  Shift w.r.t. Gamma in fractional coordinates (k-lattice)
     0.000000000  0.000000000  0.500000000

 TETIRR: Found     39 inequivalent tetrahedra from      300
 
 Subroutine IBZKPT returns following result:
 ===========================================
 
 Found      9 irreducible k-points:
 
 Following reciprocal coordinates:
            Coordinates               Weight
  0.000000  0.000000  0.250000      2.000000
  0.200000  0.000000  0.250000      8.000000
  0.400000  0.000000  0.250000      8.000000
  0.200000  0.200000  0.250000      4.000000
  0.400000  0.200000  0.250000      8.000000
 -0.400000  0.200000  0.250000      8.000000
 -0.200000  0.200000  0.250000      4.000000
  0.400000  0.400000  0.250000      4.000000
 -0.400000  0.400000  0.250000      4.000000
 
 Following cartesian coordinates:
            Coordinates               Weight
  0.000000  0.000000  0.029581      2.000000
  0.030202 -0.049667  0.029581      8.000000
  0.060403 -0.099333  0.029581      8.000000
  0.060403  0.000000  0.029581      4.000000
  0.090605 -0.049667  0.029581      8.000000
 -0.030202  0.149000  0.029581      8.000000
  0.000000  0.099333  0.029581      4.000000
  0.120807  0.000000  0.029581      4.000000
  0.000000  0.198666  0.029581      4.000000
 


--------------------------------------------------------------------------------------------------------




 Dimension of arrays:
   k-points           NKPTS =      9   k-points in BZ     NKDIM =      9   number of bands    NBANDS=     18
   number of dos      NEDOS =    301   number of ions     NIONS =      4
   non local maximal  LDIM  =      4   non local SUM 2l+1 LMDIM =      8
   total plane-waves  NPLWV =  16800
   max r-space proj   IRMAX =      1   max aug-charges    IRDMAX=   4485
   dimension x,y,z NGX =    20 NGY =   20 NGZ =   42
   dimension x,y,z NGXF=    40 NGYF=   40 NGZF=   84
   support grid    NGXF=    40 NGYF=   40 NGZF=   84
   ions per type =               4
   NGX,Y,Z   is equivalent  to a cutoff of   8.58,  8.58,  8.26 a.u.
   NGXF,Y,Z  is equivalent  to a cutoff of  17.16, 17.16, 16.52 a.u.

 SYSTEM =  unknown system                          
 POSCAR =  Cl4                                     

 Startparameter for this run:
   NWRITE =      2    write-flag & timer
   PREC   = normal    normal or accurate (medium, high low for compatibility)
   ISTART =      0    job   : 0-new  1-cont  2-samecut
   ICHARG =      2    charge: 1-file 2-atom 10-const
   ISPIN  =      1    spin polarized calculation?
   LNONCOLLINEAR =      F non collinear calculations
   LSORBIT =      F    spin-orbit coupling
   INIWAV =      1    electr: 0-lowe 1-rand  2-diag
   LASPH  =      T    aspherical Exc in radial PAW
 Electronic Relaxation 1
   ENCUT  =  400.0 eV  29.40 Ry    5.42 a.u.   6.32  6.32 13.78*2*pi/ulx,y,z
   ENINI  =  400.0     initial cutoff
   ENAUG  =  356.2 eV  augmentation charge cutoff
   NELM   =    100;   NELMIN=  2; NELMDL= -5     # of ELM steps 
   EDIFF  = 0.1E-06   stopping-criterion for ELM
   LREAL  =      F    real-space projection
   NLSPLINE    = F    spline interpolate recip. space projectors
   LCOMPAT=      F    compatible to vasp.4.4
   GGA_COMPAT  = T    GGA compatible to vasp.4.4-vasp.4.6
   LMAXPAW     = -100 max onsite density
   LMAXMIX     =    2 max onsite mixed and CHGCAR
   VOSKOWN=      0    Vosko Wilk Nusair interpolation
   ROPT   =    0.00000
 Ionic relaxation
   EDIFFG = -.5E-02   stopping-criterion for IOM
   NSW    =    300    number of steps for IOM
   NBLOCK =      1;   KBLOCK =    300    inner block; outer block 
   IBRION =      2    ionic relax: 0-MD 1-quasi-New 2-CG
   NFREE  =      1    steps in history (QN), initial steepest desc. (CG)
   ISIF   =      3    stress and relaxation
   IWAVPR =     11    prediction:  0-non 1-charg 2-wave 3-comb
   ISYM   =      2    0-nonsym 1-usesym 2-fastsym
   LCORR  =      T    Harris-Foulkes like correction to forces

   POTIM  = 0.5000    time-step for ionic-motion
   TEIN   =    0.0    initial temperature
   TEBEG  =    0.0;   TEEND  =   0.0 temperature during run
   SMASS  =  -3.00    Nose mass-parameter (am)
   estimated Nose-frequenzy (Omega)   =  0.10E-29 period in steps = 0.13E+47 mass=  -0.343E-27a.u.
   SCALEE = 1.0000    scale energy and forces
   NPACO  =    256;   APACO  = 10.0  distance and # of slots for P.C.
   PSTRESS=    0.0 pullay stress

  Mass of Ions in am
   POMASS =  35.45
  Ionic Valenz
   ZVAL   =   7.00
  Atomic Wigner-Seitz radii
   RWIGS  =  -1.00
  virtual crystal weights 
   VCA    =   1.00
   NELECT =      28.0000    total number of electrons
   NUPDOWN=      -1.0000    fix difference up-down

 DOS related values:
   EMIN   =  10.00;   EMAX   =-10.00  energy-range for DOS
   EFERMI =   0.00;   METHOD = LEGACY      
   ISMEAR =    -5;   SIGMA  =   0.10  broadening in eV -4-tet -1-fermi 0-gaus
   EFERMI_NEDOS =   21; number of points for ismear=-14 and -15

 Electronic relaxation 2 (details)
   IALGO  =     38    algorithm
   LDIAG  =      T    sub-space diagonalisation (order eigenvalues)
   LSUBROT=      F    optimize rotation matrix (better conditioning)
   LROBUST=      F    robust break criterion during scf (extrapolated energy error)
   ISEARCH=      0    line search for conjugate gradient (0, 1=use gradient)
   TURBO    =      0    0=normal 1=particle mesh
   IRESTART =      0    0=no restart 2=restart with 2 vectors
   NREBOOT  =      0    no. of reboots
   NMIN     =      0    reboot dimension
   EREF     =   0.00    reference energy to select bands
   IMIX   =      4    mixing-type and parameters
     AMIX     =   0.40;   BMIX     =  1.00
     AMIX_MAG =   1.60;   BMIX_MAG =  1.00
     AMIN     =   0.10
     WC   =   100.;   INIMIX=   1;  MIXPRE=   1;  MAXMIX= -45

 Intra band minimization:
   WEIMIN = 0.0010     energy-eigenvalue tresh-hold
   EBREAK =  0.14E-08  absolut break condition
   DEPER  =   0.30     relativ break condition  

   TIME   =   0.40     timestep for ELM

  volume/ion in A,a.u.               =      28.17       190.11
  Fermi-wavevector in a.u.,A,eV,Ry     =   1.029217  1.944938 14.412475  1.059287
  Thomas-Fermi vector in A             =   2.163253
 
 Write flags
   LWAVE        =      F    write WAVECAR
   LDOWNSAMPLE  =      F    k-point downsampling of WAVECAR
   LCHARG       =      F    write CHGCAR
   LVTOT        =      F    write LOCPOT, total local potential
   LVHAR        =      F    write LOCPOT, Hartree potential only
   WRT_POTENTIAL= false  ! write potential to hdf5 file
   LELF         =      F    write electronic localiz. function (ELF)
   LORBIT       =     10    0 simple, 1 ext, 2 COOP (PROOUT), +10 PAW based schemes


 Python interface
   PLUGINS active      =      F    recompile with -DPLUGINS to activate
 
 Dipole corrections
   LMONO      =      F    monopole corrections only (constant potential shift)
   LDIPOL     =      F    correct potential (dipole corrections)
   IDIPOL     =      0    1-x, 2-y, 3-z, 4-all directions 
   EPSILON    =  1.0000000 bulk dielectric constant
   LVACPOTAV  =      F  vacuum potentials using an averaging scheme for the charge density
   VACPOTFLAT =  0.1000000 required flatness to determine vacuum potential
 
Coulomb truncation method
  LTRUNCATE          =      F  Coulomb kernel truncation to be used

 
 Exchange correlation treatment:
   GGA     = PS    functional components
   XC_C    = 1    coefficients multiplying the functional components
   LIBXC   =     F    Libxc                    
   VOSKOWN =     0    Vosko Wilk Nusair interpolation
   LHFCALC =     F    Hartree Fock is set to
   LHFONE  =     F    Hartree Fock one center treatment
   AEXX    =    0.0000 exact exchange contribution

 Parameters of functionals:
   PS:
     No parameter
 
 Van der Waals corrections
   IVDW    =     0    specifies the selected vdW correction

 Linear response parameters
   LEPSILON=     F    determine dielectric tensor
   LRPA    =     F    only Hartree local field effects (RPA)
   LNABLA  =     F    use nabla operator in PAW spheres
   LVEL    =     F    velocity operator in full k-point grid
   CSHIFT  =0.1000    complex shift for real part using Kramers Kronig
   OMEGAMAX=  -1.0    maximum frequency
   DEG_THRESHOLD= 0.2000000E-02 threshold for treating states as degnerate
   RTIME   =   -0.100 relaxation time in fs
  (WPLASMAI=    0.000 imaginary part of plasma frequency in eV, 0.658/RTIME)
   DFIELD  = 0.0000000 0.0000000 0.0000000 field for delta impulse in time
 
  Optional k-point grid parameters
   LKPOINTS_OPT  =     F    use optional k-point grid
   KPOINTS_OPT_MODE=     1    mode for optional k-point grid
 
 Orbital magnetization related:
   ORBITALMAG=     F  switch on orbital magnetization
   LCHIMAG   =     F  perturbation theory with respect to B field
   DQ        =  0.001000  dq finite difference perturbation B field
   LLRAUG    =     F  two centre corrections for induced B field
   LBONE     =     F  B-component reconstruction in AE one-centre
   LVGVCALC  =     T  calculate vGv susceptibility
   LVGVAPPL  =     F  apply vGv susceptibility instead of pGv for G=0

 Random number generation:
   RANDOM_GENERATOR = DEFAULT
   PCG_SEED         = not used


--------------------------------------------------------------------------------------------------------


 conjugate gradient relaxation of ions
 charge density and potential will be updated during run
 non-spin polarized calculation
 Variant of blocked Davidson
 Davidson routine will perform the subspace rotation
 perform sub-space diagonalisation
    after iterative eigenvector-optimisation
 modified Broyden-mixing scheme, WC =      100.0
 initial mixing is a Kerker type mixing with AMIX =  0.4000 and BMIX =      1.0000
 Hartree-type preconditioning will be used
 using additional bands             4
 reciprocal scheme for non local part
 use partial core corrections
 calculate Harris-corrections to forces 
   (improved forces if not selfconsistent)
 use gradient corrections 
 use of overlap-Matrix (Vanderbilt PP)
 Fermi weights with tetrahedron method with Bloechl corrections


--------------------------------------------------------------------------------------------------------


  energy-cutoff  :      400.00
  volume of cell :      112.68
      direct lattice vectors                 reciprocal lattice vectors
     3.311075580 -2.013429050  0.000000000     0.151008332 -0.248332565  0.000000000
     3.311075580  2.013429050  0.000000000     0.151008332  0.248332565 -0.000000000
     0.000000000  0.000000000  8.451360100    -0.000000000  0.000000000  0.118324150

  length of vectors
     3.875192645  3.875192645  8.451360100     0.290641668  0.290641668  0.118324150


 
 k-points in units of 2pi/SCALE and weight: Num irrep kpoints: 9                    
   0.00000000  0.00000000  0.02958104       0.040
   0.03020167 -0.04966651  0.02958104       0.160
   0.06040333 -0.09933303  0.02958104       0.160
   0.06040333  0.00000000  0.02958104       0.080
   0.09060500 -0.04966651  0.02958104       0.160
  -0.03020167  0.14899954  0.02958104       0.160
   0.00000000  0.09933303  0.02958104       0.080
   0.12080667  0.00000000  0.02958104       0.080
   0.00000000  0.19866605  0.02958104       0.080
 
 k-points in reciprocal lattice and weights: Num irrep kpoints: 9                    
   0.00000000  0.00000000  0.25000000       0.040
   0.20000000  0.00000000  0.25000000       0.160
   0.40000000  0.00000000  0.25000000       0.160
   0.20000000  0.20000000  0.25000000       0.080
   0.40000000  0.20000000  0.25000000       0.160
  -0.40000000  0.20000000  0.25000000       0.160
  -0.20000000  0.20000000  0.25000000       0.080
   0.40000000  0.40000000  0.25000000       0.080
  -0.40000000  0.40000000  0.25000000       0.080
 
 position of ions in fractional coordinates (direct lattice) 
   0.38806571  0.61193429  0.10551543
   0.61193429  0.38806571  0.89448457
   0.11193429  0.88806571  0.60551543
   0.88806571  0.11193429  0.39448457
 
 position of ions in cartesian coordinates  (Angst):
   3.31107558  0.45074350  0.89174890
   3.31107558 -0.45074350  7.55961120
   3.31107558  1.56268555  5.11742895
   3.31107558 -1.56268555  3.33393115
 


--------------------------------------------------------------------------------------------------------


 k-point     1 :   0.0000 0.0000 0.2500  plane waves:    2064
 k-point     2 :   0.2000 0.0000 0.2500  plane waves:    2056
 k-point     3 :   0.4000 0.0000 0.2500  plane waves:    2042
 k-point     4 :   0.2000 0.2000 0.2500  plane waves:    2056
 k-point     5 :   0.4000 0.2000 0.2500  plane waves:    2052
 k-point     6 :  -0.4000 0.2000 0.2500  plane waves:    2036
 k-point     7 :  -0.2000 0.2000 0.2500  plane waves:    2042
 k-point     8 :   0.4000 0.4000 0.2500  plane waves:    2050
 k-point     9 :  -0.4000 0.4000 0.2500  plane waves:    2045

 maximum and minimum number of plane-waves per node :      2064     2036

 maximum number of plane-waves:      2064
 maximum index in each direction: 
   IXMAX=    6   IYMAX=    6   IZMAX=   13
   IXMIN=   -6   IYMIN=   -6   IZMIN=  -14


 serial   3D FFT for wavefunctions
 parallel 3D FFT for charge:
    minimum data exchange during FFTs selected (reduces bandwidth)


 total amount of memory used by VASP MPI-rank0    48676. kBytes
=======================================================================

   base                                    :      30000. kBytes
   nonl-proj                               :       1320. kBytes
   fftplans                                :       4680. kBytes
   grid                                    :       7232. kBytes
   one-center                              :         12. kBytes
   wavefun                                 :       5432. kBytes
 
     INWAV:  cpu time      0.0001: real time      0.0002
 Broyden mixing: mesh for mixing (old mesh)
   NGX = 13   NGY = 13   NGZ = 27
  (NGX  = 40   NGY  = 40   NGZ  = 84)
  gives a total of   4563 points

 initial charge density was supplied:
 charge density of overlapping atoms calculated
 number of electron      28.0000000 magnetization 
 keeping initial charge density in first step


--------------------------------------------------------------------------------------------------------


 Maximum index for augmentation-charges          4157 (set IRDMAX)


--------------------------------------------------------------------------------------------------------


 First call to EWALD:  gamma=   0.367
 Maximum number of real-space cells   4x   4x   2
 Maximum number of reciprocal cells   2x   2x   4

    FEWALD:  cpu time      0.0025: real time      0.0025


--------------------------------------- Ionic step        1  -------------------------------------------




--------------------------------------- Iteration      1(   1)  ---------------------------------------


    POTLOK:  cpu time      0.0285: real time      0.0292
    SETDIJ:  cpu time      0.0402: real time      0.0403
     EDDAV:  cpu time      0.3223: real time      1.0464
 BZINTS: Fermi energy:   12.269981;   28.000000 electrons
         Band energy: 0.240962E+02;  BLOECHL correction:   -0.062296
       DOS:  cpu time      0.0041: real time      0.0051
    --------------------------------------------
      LOOP:  cpu time      0.3951: real time      1.1210

 eigenvalue-minimisations  :   324
 total energy-change (2. order) : 0.1880529E+03  (-0.1102131E+04)
 number of electron      28.0000000 magnetization 
 augmentation part       28.0000000 magnetization 

 Free energy of the ion-electron system (eV)
  ---------------------------------------------------
  alpha Z        PSCENC =        29.98828012
  Ewald energy   TEWEN  =     -1242.59028332
  -Hartree energ DENC   =      -340.13097772
  -exchange      EXHF   =         0.00000000
  -V(xc)+E(xc)   XCENC  =        81.00355656
  PAW double counting   =      1300.36435954    -1299.59849449
  entropy T*S    EENTRO =         0.00000000
  eigenvalues    EBANDS =        24.09616906
  atomic energy  EATOM  =      1634.92028419
  Solvation  Ediel_sol  =         0.00000000
  ---------------------------------------------------
  free energy    TOTEN  =       188.05289396 eV

  energy without entropy =      188.05289396  energy(sigma->0) =      188.05289396


--------------------------------------------------------------------------------------------------------




--------------------------------------- Iteration      1(   2)  ---------------------------------------


     EDDAV:  cpu time      0.1026: real time      0.1031
 BZINTS: Fermi energy:    1.045691;   28.000000 electrons
         Band energy:-0.159568E+03;  BLOECHL correction:    0.000000
       DOS:  cpu time      0.0011: real time      0.0011
    --------------------------------------------
      LOOP:  cpu time      0.1036: real time      0.1042

 eigenvalue-minimisations  :   460
 total energy-change (2. order) :-0.1836645E+03  (-0.1809582E+03)
 number of electron      28.0000000 magnetization 
 augmentation part       28.0000000 magnetization 

 Free energy of the ion-electron system (eV)
  ---------------------------------------------------
  alpha Z        PSCENC =        29.98828012
  Ewald energy   TEWEN  =     -1242.59028332
  -Hartree energ DENC   =      -340.13097772
  -exchange      EXHF   =         0.00000000
  -V(xc)+E(xc)   XCENC  =        81.00355656
  PAW double counting   =      1300.36435954    -1299.59849449
  entropy T*S    EENTRO =         0.00000000
  eigenvalues    EBANDS =      -159.56834052
  atomic energy  EATOM  =      1634.92028419
  Solvation  Ediel_sol  =         0.00000000
  ---------------------------------------------------
  free energy    TOTEN  =         4.38838437 eV

  energy without entropy =        4.38838437  energy(sigma->0) =        4.38838437


--------------------------------------------------------------------------------------------------------




--------------------------------------- Iteration      1(   3)  ---------------------------------------


     EDDAV:  cpu time      0.0942: real time      0.0946
 BZINTS: Fermi energy:   -0.318827;   28.000000 electrons
         Band energy:-0.172313E+03;  BLOECHL correction:    0.000000
       DOS:  cpu time      0.0009: real time      0.0009
    --------------------------------------------
      LOOP:  cpu time      0.0951: real time      0.0955

 eigenvalue-minimisations  :   422
 total energy-change (2. order) :-0.1274449E+02  (-0.1271410E+02)
 number of electron      28.0000000 magnetization 
 augmentation part       28.0000000 magnetization 

 Free energy of the ion-electron system (eV)
  ---------------------------------------------------
  alpha Z        PSCENC =        29.98828012
  Ewald energy   TEWEN  =     -1242.59028332
  -Hartree energ DENC   =      -340.13097772
  -exchange      EXHF   =         0.00000000
  -V(xc)+E(xc)   XCENC  =        81.00355656
  PAW double counting   =      1300.36435954    -1299.59849449
  entropy T*S    EENTRO =         0.00000000
  eigenvalues    EBANDS =      -172.31282660
  atomic energy  EATOM  =      1634.92028419
  Solvation  Ediel_sol  =         0.00000000
  ---------------------------------------------------
  free energy    TOTEN  =        -8.35610170 eV

  energy without entropy =       -8.35610170  energy(sigma->0) =       -8.35610170


--------------------------------------------------------------------------------------------------------




--------------------------------------- Iteration      1(   4)  ---------------------------------------


     EDDAV:  cpu time      0.0910: real time      0.0915
 BZINTS: Fermi energy:   -0.348217;   28.000000 electrons
         Band energy:-0.172466E+03;  BLOECHL correction:    0.000000
       DOS:  cpu time      0.0008: real time      0.0008
    --------------------------------------------
      LOOP:  cpu time      0.0919: real time      0.0923

 eigenvalue-minimisations  :   404
 total energy-change (2. order) :-0.1528378E+00  (-0.1527665E+00)
 number of electron      28.0000000 magnetization 
 augmentation part       28.0000000 magnetization 

 Free energy of the ion-electron system (eV)
  ---------------------------------------------------
  alpha Z        PSCENC =        29.98828012
  Ewald energy   TEWEN  =     -1242.59028332
  -Hartree energ DENC   =      -340.13097772
  -exchange      EXHF   =         0.00000000
  -V(xc)+E(xc)   XCENC  =        81.00355656
  PAW double counting   =      1300.36435954    -1299.59849449
  entropy T*S    EENTRO =         0.00000000
  eigenvalues    EBANDS =      -172.46566439
  atomic energy  EATOM  =      1634.92028419
  Solvation  Ediel_sol  =         0.00000000
  ---------------------------------------------------
  free energy    TOTEN  =        -8.50893949 eV

  energy without entropy =       -8.50893949  energy(sigma->0) =       -8.50893949


--------------------------------------------------------------------------------------------------------




--------------------------------------- Iteration      1(   5)  ---------------------------------------


     EDDAV:  cpu time      0.0928: real time      0.0932
 BZINTS: Fermi energy:   -0.351888;   28.000000 electrons
         Band energy:-0.172468E+03;  BLOECHL correction:    0.000000
       DOS:  cpu time      0.0008: real time      0.0008
    CHARGE:  cpu time      0.1863: real time      0.2063
    MIXING:  cpu time      0.0024: real time      0.0024
    --------------------------------------------
      LOOP:  cpu time      0.2823: real time      0.3027

 eigenvalue-minimisations  :   410
 total energy-change (2. order) :-0.2595234E-02  (-0.2594603E-02)
 number of electron      27.9999966 magnetization 
 augmentation part       -3.8436874 magnetization 

 Broyden mixing:
  rms(total) = 0.16823E+01    rms(broyden)= 0.16823E+01
  rms(prec ) = 0.17257E+01
  weight for this iteration     100.00

 Free energy of the ion-electron system (eV)
  ---------------------------------------------------
  alpha Z        PSCENC =        29.98828012
  Ewald energy   TEWEN  =     -1242.59028332
  -Hartree energ DENC   =      -340.13097772
  -exchange      EXHF   =         0.00000000
  -V(xc)+E(xc)   XCENC  =        81.00355656
  PAW double counting   =      1300.36435954    -1299.59849449
  entropy T*S    EENTRO =         0.00000000
  eigenvalues    EBANDS =      -172.46825963
  atomic energy  EATOM  =      1634.92028419
  Solvation  Ediel_sol  =         0.00000000
  ---------------------------------------------------
  free energy    TOTEN  =        -8.51153473 eV

  energy without entropy =       -8.51153473  energy(sigma->0) =       -8.51153473


--------------------------------------------------------------------------------------------------------




--------------------------------------- Iteration      1(   6)  ---------------------------------------


    POTLOK:  cpu time      0.0041: real time      0.0043
    SETDIJ:  cpu time      0.0407: real time      0.0408
     EDDAV:  cpu time      0.0830: real time      0.0831
 BZINTS: Fermi energy:   -0.332970;   28.000000 electrons
         Band energy:-0.173705E+03;  BLOECHL correction:    0.000000
       DOS:  cpu time      0.0008: real time      0.0008
    CHARGE:  cpu time      0.0128: real time      0.0129
    MIXING:  cpu time      0.0022: real time      0.0046
    --------------------------------------------
      LOOP:  cpu time      0.1437: real time      0.1465

 eigenvalue-minimisations  :   350
 total energy-change (2. order) : 0.3570000E+00  (-0.2617405E-01)
 number of electron      27.9999966 magnetization 
 augmentation part       -3.8506256 magnetization 

 Broyden mixing:
  rms(total) = 0.11067E+01    rms(broyden)= 0.11067E+01
  rms(prec ) = 0.11262E+01
  weight for this iteration     100.00

 eigenvalues of (default mixing * dielectric matrix)
  average eigenvalue GAMMA=   2.8863
  2.8863

 Free energy of the ion-electron system (eV)
  ---------------------------------------------------
  alpha Z        PSCENC =        29.98828012
  Ewald energy   TEWEN  =     -1242.59028332
  -Hartree energ DENC   =      -338.51771052
  -exchange      EXHF   =         0.00000000
  -V(xc)+E(xc)   XCENC  =        81.01779512
  PAW double counting   =      1612.82367610    -1612.09190568
  entropy T*S    EENTRO =         0.00000000
  eigenvalues    EBANDS =      -173.70467074
  atomic energy  EATOM  =      1634.92028419
  Solvation  Ediel_sol  =         0.00000000
  ---------------------------------------------------
  free energy    TOTEN  =        -8.15453471 eV

  energy without entropy =       -8.15453471  energy(sigma->0) =       -8.15453471


--------------------------------------------------------------------------------------------------------




--------------------------------------- Iteration      1(   7)  ---------------------------------------


    POTLOK:  cpu time      0.0036: real time      0.0038
    SETDIJ:  cpu time      0.0403: real time      0.0404
     EDDAV:  cpu time      0.0870: real time      0.0872
 BZINTS: Fermi energy:   -0.220079;   28.000000 electrons
         Band energy:-0.174791E+03;  BLOECHL correction:    0.000000
       DOS:  cpu time      0.0007: real time      0.0007
    CHARGE:  cpu time      0.0128: real time      0.0128
    MIXING:  cpu time      0.0048: real time      0.0594
    --------------------------------------------
      LOOP:  cpu time      0.1491: real time      0.2043

 eigenvalue-minimisations  :   364
 total energy-change (2. order) : 0.1101141E+00  (-0.5783133E-01)
 number of electron      27.9999966 magnetization 
 augmentation part       -3.8550342 magnetization 

 Broyden mixing:
  rms(total) = 0.96876E-01    rms(broyden)= 0.96868E-01
  rms(prec ) = 0.11847E+00
  weight for this iteration     100.00

 eigenvalues of (default mixing * dielectric matrix)
  average eigenvalue GAMMA=   2.0701
  2.0701  2.0701

 Free energy of the ion-electron system (eV)
  ---------------------------------------------------
  alpha Z        PSCENC =        29.98828012
  Ewald energy   TEWEN  =     -1242.59028332
  -Hartree energ DENC   =      -337.42966791
  -exchange      EXHF   =         0.00000000
  -V(xc)+E(xc)   XCENC  =        81.16998983
  PAW double counting   =      2321.33726944    -2320.64932279
  entropy T*S    EENTRO =         0.00000000
  eigenvalues    EBANDS =      -174.79097023
  atomic energy  EATOM  =      1634.92028419
  Solvation  Ediel_sol  =         0.00000000
  ---------------------------------------------------
  free energy    TOTEN  =        -8.04442066 eV

  energy without entropy =       -8.04442066  energy(sigma->0) =       -8.04442066


--------------------------------------------------------------------------------------------------------




--------------------------------------- Iteration      1(   8)  ---------------------------------------


    POTLOK:  cpu time      0.0069: real time      0.0072
    SETDIJ:  cpu time      0.0544: real time      0.0545
     EDDAV:  cpu time      0.0818: real time      0.0820
 BZINTS: Fermi energy:   -0.229317;   28.000000 electrons
         Band energy:-0.174246E+03;  BLOECHL correction:    0.000000
       DOS:  cpu time      0.0008: real time      0.0008
    CHARGE:  cpu time      0.0126: real time      0.0126
    MIXING:  cpu time      0.0020: real time      0.0023
    --------------------------------------------
      LOOP:  cpu time      0.1585: real time      0.1594

 eigenvalue-minimisations  :   346
 total energy-change (2. order) : 0.1432084E-01  (-0.7394685E-02)
 number of electron      27.9999966 magnetization 
 augmentation part       -3.8501809 magnetization 

 Broyden mixing:
  rms(total) = 0.40840E-01    rms(broyden)= 0.40839E-01
  rms(prec ) = 0.41450E-01
  weight for this iteration     100.00

 eigenvalues of (default mixing * dielectric matrix)
  average eigenvalue GAMMA=   1.8200
  2.0909  1.6845  1.6845

 Free energy of the ion-electron system (eV)
  ---------------------------------------------------
  alpha Z        PSCENC =        29.98828012
  Ewald energy   TEWEN  =     -1242.59028332
  -Hartree energ DENC   =      -337.93700810
  -exchange      EXHF   =         0.00000000
  -V(xc)+E(xc)   XCENC  =        81.12942286
  PAW double counting   =      2238.28389037    -2237.57914217
  entropy T*S    EENTRO =         0.00000000
  eigenvalues    EBANDS =      -174.24554377
  atomic energy  EATOM  =      1634.92028419
  Solvation  Ediel_sol  =         0.00000000
  ---------------------------------------------------
  free energy    TOTEN  =        -8.03009982 eV

  energy without entropy =       -8.03009982  energy(sigma->0) =       -8.03009982


--------------------------------------------------------------------------------------------------------




--------------------------------------- Iteration      1(   9)  ---------------------------------------


    POTLOK:  cpu time      0.0036: real time      0.0038
    SETDIJ:  cpu time      0.0400: real time      0.0401
     EDDAV:  cpu time      0.0908: real time      0.0910
 BZINTS: Fermi energy:   -0.233402;   28.000000 electrons
         Band energy:-0.174344E+03;  BLOECHL correction:    0.000000
       DOS:  cpu time      0.0008: real time      0.0008
    CHARGE:  cpu time      0.0127: real time      0.0128
    MIXING:  cpu time      0.0020: real time      0.0020
    --------------------------------------------
      LOOP:  cpu time      0.1499: real time      0.1505

 eigenvalue-minimisations  :   412
 total energy-change (2. order) :-0.1564402E-03  (-0.2088692E-03)
 number of electron      27.9999966 magnetization 
 augmentation part       -3.8507166 magnetization 

 Broyden mixing:
  rms(total) = 0.11102E-01    rms(broyden)= 0.11102E-01
  rms(prec ) = 0.11787E-01
  weight for this iteration     100.00

 eigenvalues of (default mixing * dielectric matrix)
  average eigenvalue GAMMA=   1.7813
  2.3178  1.9625  1.9625  0.8825

 Free energy of the ion-electron system (eV)
  ---------------------------------------------------
  alpha Z        PSCENC =        29.98828012
  Ewald energy   TEWEN  =     -1242.59028332
  -Hartree energ DENC   =      -337.83051187
  -exchange      EXHF   =         0.00000000
  -V(xc)+E(xc)   XCENC  =        81.12429307
  PAW double counting   =      2218.73879479    -2218.03740599
  entropy T*S    EENTRO =         0.00000000
  eigenvalues    EBANDS =      -174.34370725
  atomic energy  EATOM  =      1634.92028419
  Solvation  Ediel_sol  =         0.00000000
  ---------------------------------------------------
  free energy    TOTEN  =        -8.03025626 eV

  energy without entropy =       -8.03025626  energy(sigma->0) =       -8.03025626


--------------------------------------------------------------------------------------------------------




--------------------------------------- Iteration      1(  10)  ---------------------------------------


    POTLOK:  cpu time      0.0036: real time      0.0038
    SETDIJ:  cpu time      0.0401: real time      0.0402
     EDDAV:  cpu time      0.0975: real time      0.0977
 BZINTS: Fermi energy:   -0.235504;   28.000000 electrons
         Band energy:-0.174409E+03;  BLOECHL correction:    0.000000
       DOS:  cpu time      0.0008: real time      0.0008
    CHARGE:  cpu time      0.0126: real time      0.0126
    MIXING:  cpu time      0.0021: real time      0.0021
    --------------------------------------------
      LOOP:  cpu time      0.1568: real time      0.1573

 eigenvalue-minimisations  :   440
 total energy-change (2. order) :-0.7023192E-04  (-0.1472488E-04)
 number of electron      27.9999966 magnetization 
 augmentation part       -3.8509882 magnetization 

 Broyden mixing:
  rms(total) = 0.60170E-02    rms(broyden)= 0.60170E-02
  rms(prec ) = 0.61992E-02
  weight for this iteration     100.00

 eigenvalues of (default mixing * dielectric matrix)
  average eigenvalue GAMMA=   1.7334
  2.6486  2.2005  1.4761  1.4761  0.8657

 Free energy of the ion-electron system (eV)
  ---------------------------------------------------
  alpha Z        PSCENC =        29.98828012
  Ewald energy   TEWEN  =     -1242.59028332
  -Hartree energ DENC   =      -337.76081416
  -exchange      EXHF   =         0.00000000
  -V(xc)+E(xc)   XCENC  =        81.12267865
  PAW double counting   =      2223.05607806    -2222.35770146
  entropy T*S    EENTRO =         0.00000000
  eigenvalues    EBANDS =      -174.40884858
  atomic energy  EATOM  =      1634.92028419
  Solvation  Ediel_sol  =         0.00000000
  ---------------------------------------------------
  free energy    TOTEN  =        -8.03032649 eV

  energy without entropy =       -8.03032649  energy(sigma->0) =       -8.03032649


--------------------------------------------------------------------------------------------------------




--------------------------------------- Iteration      1(  11)  ---------------------------------------


    POTLOK:  cpu time      0.0035: real time      0.0038
    SETDIJ:  cpu time      0.0401: real time      0.0402
     EDDAV:  cpu time      0.0827: real time      0.0829
 BZINTS: Fermi energy:   -0.234737;   28.000000 electrons
         Band energy:-0.174387E+03;  BLOECHL correction:    0.000000
       DOS:  cpu time      0.0008: real time      0.0008
    CHARGE:  cpu time      0.0129: real time      0.0129
    MIXING:  cpu time      0.0021: real time      0.0021
    --------------------------------------------
      LOOP:  cpu time      0.1422: real time      0.1427

 eigenvalue-minimisations  :   352
 total energy-change (2. order) :-0.4935729E-05  (-0.4005494E-05)
 number of electron      27.9999966 magnetization 
 augmentation part       -3.8508156 magnetization 

 Broyden mixing:
  rms(total) = 0.12453E-02    rms(broyden)= 0.12452E-02
  rms(prec ) = 0.13749E-02
  weight for this iteration     100.00

 eigenvalues of (default mixing * dielectric matrix)
  average eigenvalue GAMMA=   1.6183
  2.4273  2.1516  1.6506  1.6506  1.0568  0.7728

 Free energy of the ion-electron system (eV)
  ---------------------------------------------------
  alpha Z        PSCENC =        29.98828012
  Ewald energy   TEWEN  =     -1242.59028332
  -Hartree energ DENC   =      -337.78314051
  -exchange      EXHF   =         0.00000000
  -V(xc)+E(xc)   XCENC  =        81.12322587
  PAW double counting   =      2225.32975813    -2224.63185923
  entropy T*S    EENTRO =         0.00000000
  eigenvalues    EBANDS =      -174.38659668
  atomic energy  EATOM  =      1634.92028419
  Solvation  Ediel_sol  =         0.00000000
  ---------------------------------------------------
  free energy    TOTEN  =        -8.03033143 eV

  energy without entropy =       -8.03033143  energy(sigma->0) =       -8.03033143


--------------------------------------------------------------------------------------------------------




--------------------------------------- Iteration      1(  12)  ---------------------------------------


    POTLOK:  cpu time      0.0035: real time      0.0038
    SETDIJ:  cpu time      0.0403: real time      0.0403
     EDDAV:  cpu time      0.0836: real time      0.0838
 BZINTS: Fermi energy:   -0.234910;   28.000000 electrons
         Band energy:-0.174389E+03;  BLOECHL correction:    0.000000
       DOS:  cpu time      0.0008: real time      0.0008
    CHARGE:  cpu time      0.0127: real time      0.0127
    MIXING:  cpu time      0.0021: real time      0.0022
    --------------------------------------------
      LOOP:  cpu time      0.1431: real time      0.1436

 eigenvalue-minimisations  :   354
 total energy-change (2. order) :-0.4966955E-07  (-0.3698225E-06)
 number of electron      27.9999966 magnetization 
 augmentation part       -3.8508156 magnetization 

 Broyden mixing:
  rms(total) = 0.56505E-03    rms(broyden)= 0.56505E-03
  rms(prec ) = 0.64140E-03
  weight for this iteration     100.00

 eigenvalues of (default mixing * dielectric matrix)
  average eigenvalue GAMMA=   1.6199
  2.6050  2.2115  1.7942  1.7942  1.1554  0.8894  0.8894

 Free energy of the ion-electron system (eV)
  ---------------------------------------------------
  alpha Z        PSCENC =        29.98828012
  Ewald energy   TEWEN  =     -1242.59028332
  -Hartree energ DENC   =      -337.78097946
  -exchange      EXHF   =         0.00000000
  -V(xc)+E(xc)   XCENC  =        81.12343434
  PAW double counting   =      2225.20256207    -2224.50487208
  entropy T*S    EENTRO =         0.00000000
  eigenvalues    EBANDS =      -174.38875735
  atomic energy  EATOM  =      1634.92028419
  Solvation  Ediel_sol  =         0.00000000
  ---------------------------------------------------
  free energy    TOTEN  =        -8.03033148 eV

  energy without entropy =       -8.03033148  energy(sigma->0) =       -8.03033148


--------------------------------------------------------------------------------------------------------




--------------------------------------- Iteration      1(  13)  ---------------------------------------


    POTLOK:  cpu time      0.0035: real time      0.0038
    SETDIJ:  cpu time      0.0407: real time      0.0408
     EDDAV:  cpu time      0.0928: real time      0.0930
 BZINTS: Fermi energy:   -0.235119;   28.000000 electrons
         Band energy:-0.174392E+03;  BLOECHL correction:    0.000000
       DOS:  cpu time      0.0008: real time      0.0008
    CHARGE:  cpu time      0.0128: real time      0.0128
    MIXING:  cpu time      0.0022: real time      0.0022
    --------------------------------------------
      LOOP:  cpu time      0.1528: real time      0.1534

 eigenvalue-minimisations  :   420
 total energy-change (2. order) :-0.3962761E-06  (-0.9870258E-07)
 number of electron      27.9999966 magnetization 
 augmentation part       -3.8508192 magnetization 

 Broyden mixing:
  rms(total) = 0.19917E-03    rms(broyden)= 0.19916E-03
  rms(prec ) = 0.22123E-03
  weight for this iteration     100.00

 eigenvalues of (default mixing * dielectric matrix)
  average eigenvalue GAMMA=   1.6250
  2.5922  2.3640  1.8522  1.8522  1.2878  1.2878  0.8819  0.8819

 Free energy of the ion-electron system (eV)
  ---------------------------------------------------
  alpha Z        PSCENC =        29.98828012
  Ewald energy   TEWEN  =     -1242.59028332
  -Hartree energ DENC   =      -337.77707434
  -exchange      EXHF   =         0.00000000
  -V(xc)+E(xc)   XCENC  =        81.12337982
  PAW double counting   =      2225.02740038    -2224.32990998
  entropy T*S    EENTRO =         0.00000000
  eigenvalues    EBANDS =      -174.39240875
  atomic energy  EATOM  =      1634.92028419
  Solvation  Ediel_sol  =         0.00000000
  ---------------------------------------------------
  free energy    TOTEN  =        -8.03033187 eV

  energy without entropy =       -8.03033187  energy(sigma->0) =       -8.03033187


--------------------------------------------------------------------------------------------------------




--------------------------------------- Iteration      1(  14)  ---------------------------------------


    POTLOK:  cpu time      0.0036: real time      0.0038
    SETDIJ:  cpu time      0.0402: real time      0.0403
     EDDAV:  cpu time      0.0602: real time      0.0603
 BZINTS: Fermi energy:   -0.235192;   28.000000 electrons
         Band energy:-0.174394E+03;  BLOECHL correction:    0.000000
       DOS:  cpu time      0.0008: real time      0.0008
    --------------------------------------------
      LOOP:  cpu time      0.1048: real time      0.1051

 eigenvalue-minimisations  :   200
 total energy-change (2. order) :-0.3466653E-08  (-0.1313103E-07)
 number of electron      27.9999966 magnetization 
 augmentation part       -3.8508192 magnetization 

 Free energy of the ion-electron system (eV)
  ---------------------------------------------------
  alpha Z        PSCENC =        29.98828012
  Ewald energy   TEWEN  =     -1242.59028332
  -Hartree energ DENC   =      -337.77541158
  -exchange      EXHF   =         0.00000000
  -V(xc)+E(xc)   XCENC  =        81.12329775
  PAW double counting   =      2224.91325584    -2224.21577647
  entropy T*S    EENTRO =         0.00000000
  eigenvalues    EBANDS =      -174.39397842
  atomic energy  EATOM  =      1634.92028419
  Solvation  Ediel_sol  =         0.00000000
  ---------------------------------------------------
  free energy    TOTEN  =        -8.03033188 eV

  energy without entropy =       -8.03033188  energy(sigma->0) =       -8.03033188


--------------------------------------------------------------------------------------------------------




 average (electrostatic) potential at core
  the test charge radii are     0.9406
  (the norm of the test charge is              1.0000)
       1 -95.6313       2 -95.6313       3 -95.6313       4 -95.6313
 
 
 
 E-fermi :  -0.2352     XC(G=0):  -8.0456     alpha+bet : -6.6820

 val. band max:       -0.2554888063   @ k =   0.0000   0.0000   0.2500
 cond. band min:       2.0647034887   @ k =   0.0000   0.0000   0.2500
 fundamental gap:      2.3201922951
 Fermi energy:        -0.2351919456

 k-point     1 :       0.0000    0.0000    0.2500
  band No.  band energies     occupation 
      1     -17.1575      2.00000
      2     -16.9777      2.00000
      3     -13.0648      2.00000
      4     -12.5005      2.00000
      5      -5.9346      2.00000
      6      -4.9771      2.00000
      7      -2.9415      2.00000
      8      -2.8142      2.00000
      9      -2.7950      2.00000
     10      -2.6996      2.00000
     11      -1.0930      2.00000
     12      -0.7088      2.00000
     13      -0.3930      2.00000
     14      -0.2555      2.00000
     15       2.0647      0.00000
     16       2.8612      0.00000
     17       6.3351      0.00000
     18       6.5696      0.00000

 k-point     2 :       0.2000    0.0000    0.2500
  band No.  band energies     occupation 
      1     -17.0821      2.00000
      2     -16.9339      2.00000
      3     -12.9983      2.00000
      4     -12.5431      2.00000
      5      -5.9066      2.00000
      6      -5.1047      2.00000
      7      -3.4572      2.00000
      8      -3.2479      2.00000
      9      -2.9052      2.00000
     10      -2.8561      2.00000
     11      -0.9833      2.00000
     12      -0.6495      2.00000
     13      -0.4956      2.00000
     14      -0.4062      2.00000
     15       2.1947      0.00000
     16       2.8223      0.00000
     17       6.9859      0.00000
     18       7.2737      0.00000

 k-point     3 :       0.4000    0.0000    0.2500
  band No.  band energies     occupation 
      1     -16.9370      2.00000
      2     -16.8786      2.00000
      3     -12.8419      2.00000
      4     -12.6694      2.00000
      5      -5.7671      2.00000
      6      -5.4295      2.00000
      7      -4.0229      2.00000
      8      -3.8623      2.00000
      9      -3.0637      2.00000
     10      -3.0401      2.00000
     11      -1.0465      2.00000
     12      -0.9140      2.00000
     13      -0.5450      2.00000
     14      -0.4717      2.00000
     15       2.4451      0.00000
     16       2.6791      0.00000
     17       7.6200      0.00000
     18       7.7156      0.00000

 k-point     4 :       0.2000    0.2000    0.2500
  band No.  band energies     occupation 
      1     -17.0963      2.00000
      2     -16.9258      2.00000
      3     -13.0039      2.00000
      4     -12.4732      2.00000
      5      -5.8826      2.00000
      6      -4.9913      2.00000
      7      -3.3846      2.00000
      8      -3.1950      2.00000
      9      -3.0440      2.00000
     10      -2.8966      2.00000
     11      -1.1484      2.00000
     12      -0.7532      2.00000
     13      -0.7407      2.00000
     14      -0.3996      2.00000
     15       2.1267      0.00000
     16       2.8391      0.00000
     17       7.4176      0.00000
     18       7.4461      0.00000

 k-point     5 :       0.4000    0.2000    0.2500
  band No.  band energies     occupation 
      1     -16.9976      2.00000
      2     -16.8662      2.00000
      3     -12.9123      2.00000
      4     -12.5149      2.00000
      5      -5.8197      2.00000
      6      -5.1381      2.00000
      7      -3.8251      2.00000
      8      -3.7408      2.00000
      9      -3.2351      2.00000
     10      -3.1593      2.00000
     11      -1.1830      2.00000
     12      -0.9665      2.00000
     13      -0.6743      2.00000
     14      -0.5093      2.00000
     15       2.2530      0.00000
     16       2.7648      0.00000
     17       8.1611      0.00000
     18       8.3921      0.00000

 k-point     6 :      -0.4000    0.2000    0.2500
  band No.  band energies     occupation 
      1     -16.8976      2.00000
      2     -16.8585      2.00000
      3     -12.7897      2.00000
      4     -12.6782      2.00000
      5      -5.6669      2.00000
      6      -5.4970      2.00000
      7      -3.9613      2.00000
      8      -3.8779      2.00000
      9      -3.4890      2.00000
     10      -3.3253      2.00000
     11      -1.0975      2.00000
     12      -0.9328      2.00000
     13      -0.6757      2.00000
     14      -0.5442      2.00000
     15       2.4770      0.00000
     16       2.6365      0.00000
     17       8.1317      0.00000
     18       8.6814      0.00000

 k-point     7 :      -0.2000    0.2000    0.2500
  band No.  band energies     occupation 
      1     -16.9616      2.00000
      2     -16.8915      2.00000
      3     -12.8728      2.00000
      4     -12.6630      2.00000
      5      -5.8086      2.00000
      6      -5.3781      2.00000
      7      -3.8392      2.00000
      8      -3.6371      2.00000
      9      -3.2081      2.00000
     10      -3.0996      2.00000
     11      -0.8676      2.00000
     12      -0.7150      2.00000
     13      -0.6580      2.00000
     14      -0.5246      2.00000
     15       2.4190      0.00000
     16       2.7069      0.00000
     17       8.0511      0.00000
     18       8.4491      0.00000

 k-point     8 :       0.4000    0.4000    0.2500
  band No.  band energies     occupation 
      1     -16.9941      2.00000
      2     -16.8398      2.00000
      3     -12.9021      2.00000
      4     -12.4285      2.00000
      5      -5.7748      2.00000
      6      -5.0067      2.00000
      7      -4.2026      2.00000
      8      -3.8533      2.00000
      9      -3.1957      2.00000
     10      -3.0091      2.00000
     11      -1.4069      2.00000
     12      -1.2010      2.00000
     13      -0.7919      2.00000
     14      -0.6480      2.00000
     15       2.1611      0.00000
     16       2.7708      0.00000
     17       8.0557      0.00000
     18       8.3361      0.00000

 k-point     9 :      -0.4000    0.4000    0.2500
  band No.  band energies     occupation 
      1     -16.9441      2.00000
      2     -16.8237      2.00000
      3     -12.8574      2.00000
      4     -12.4970      2.00000
      5      -5.7434      2.00000
      6      -5.1555      2.00000
      7      -4.1696      2.00000
      8      -3.8205      2.00000
      9      -3.5605      2.00000
     10      -3.3045      2.00000
     11      -1.3717      2.00000
     12      -1.0991      2.00000
     13      -0.6790      2.00000
     14      -0.6782      2.00000
     15       2.2655      0.00000
     16       2.7250      0.00000
     17       8.3567      0.00000
     18       8.5449      0.00000


--------------------------------------------------------------------------------------------------------


 soft charge-density along one line, spin component            1
         0         1         2         3         4         5         6         7         8         9
 total charge-density along one line
 
 pseudopotential strength for first ion, spin component:            1
 48.387  50.783  -0.040  -0.069  -0.000  -0.049  -0.086  -0.000
 50.783  53.300  -0.042  -0.073  -0.000  -0.052  -0.090  -0.000
 -0.040  -0.042   9.111   0.020   0.000  11.296   0.024   0.000
 -0.069  -0.073   0.020   9.141  -0.000   0.024  11.333  -0.000
 -0.000  -0.000   0.000  -0.000   9.098   0.000  -0.000  11.281
 -0.049  -0.052  11.296   0.024   0.000  14.021   0.029   0.000
 -0.086  -0.090   0.024  11.333  -0.000   0.029  14.065  -0.000
 -0.000  -0.000   0.000  -0.000  11.281   0.000  -0.000  14.002
 total augmentation occupancy for first ion, spin component:            1
 12.059  -9.135   2.770   5.251   0.000  -1.268  -2.571  -0.000
 -9.135   8.271  -2.591  -4.910  -0.000   1.240   2.497   0.000
  2.770  -2.591   2.819   1.242  -0.000  -0.697  -0.898  -0.000
  5.251  -4.910   1.242   4.676   0.000  -0.899  -2.037  -0.000
  0.000  -0.000  -0.000   0.000   2.121  -0.000  -0.000  -0.196
 -1.268   1.240  -0.697  -0.899  -0.000   0.444   0.424   0.000
 -2.571   2.497  -0.898  -2.037  -0.000   0.424   1.069   0.000
 -0.000   0.000  -0.000  -0.000  -0.196   0.000   0.000   0.231


------------------------ aborting loop because EDIFF is reached ----------------------------------------





 total charge

# of ion       s       p       d       tot
------------------------------------------
    1        1.613   3.353   0.000   4.966
    2        1.613   3.353   0.000   4.966
    3        1.613   3.353   0.000   4.966
    4        1.613   3.353   0.000   4.966
--------------------------------------------------
tot          6.451  13.412   0.000  19.863
 
    CHARGE:  cpu time      0.0157: real time      0.0158
    FORLOC:  cpu time      0.0011: real time      0.0016
    FORNL :  cpu time      0.0213: real time      0.0213
    STRESS:  cpu time      0.2120: real time      0.2124
    FORCOR:  cpu time      0.0032: real time      0.0032
    FORHAR:  cpu time      0.0008: real time      0.0008
    MIXING:  cpu time      0.0023: real time      0.0024
    OFIELD:  cpu time      0.0000: real time      0.0000

  FORCE on cell =-STRESS in cart. coord.  units (eV):
  Direction    XX          YY          ZZ          XY          YZ          ZX
  --------------------------------------------------------------------------------------
  Alpha Z    29.98828    29.98828    29.98828
  Ewald    -609.65030  -439.44571  -193.49539    -0.00000    -0.00000    -0.00000
  Hartree    38.16001   111.72078   187.89355    -0.00000    -0.00000    -0.00000
  E(xc)    -101.64018  -101.23628  -100.55593    -0.00000     0.00000    -0.00000
  Local    -102.98107  -319.33496  -577.77281     0.00000     0.00000     0.00000
  n-local   330.91196   327.02222   317.98454     1.63554     0.45294    -0.08416
  augment   -83.81720   -81.63501   -76.50651     0.00000     0.00000     0.00000
  Kinetic   499.09819   472.66839   412.02482     6.54383     0.49887    -0.11624
  Fock        0.00000     0.00000     0.00000     0.00000     0.00000     0.00000
  -------------------------------------------------------------------------------------
  Total       0.06967    -0.25230    -0.43945     0.00000     0.00000     0.00000
  in kB       0.99066    -3.58722    -6.24827     0.00000     0.00000     0.00000
  external pressure =       -2.95 kB  Pullay stress =        0.00 kB


 VOLUME and BASIS-vectors are now :
 -----------------------------------------------------------------------------
  energy-cutoff  :      400.00
  volume of cell :      112.68
      direct lattice vectors                 reciprocal lattice vectors
     3.311075580 -2.013429050  0.000000000     0.151008332 -0.248332565  0.000000000
     3.311075580  2.013429050  0.000000000     0.151008332  0.248332565 -0.000000000
     0.000000000  0.000000000  8.451360100    -0.000000000  0.000000000  0.118324150

  length of vectors
     3.875192645  3.875192645  8.451360100     0.290641668  0.290641668  0.118324150


 FORCES acting on ions
    electron-ion (+dipol)            ewald-force                    non-local-force                 convergence-correction
 -----------------------------------------------------------------------------------------------
   -.236E-07 -.405E+02 -.804E+02   0.211E-14 0.453E+02 0.884E+02   0.000E+00 -.467E+01 -.791E+01   -.312E-15 0.290E-05 -.326E-03
   0.236E-07 0.405E+02 0.804E+02   -.107E-14 -.453E+02 -.884E+02   0.000E+00 0.467E+01 0.791E+01   0.257E-15 -.290E-05 0.326E-03
   -.236E-07 0.405E+02 -.804E+02   -.220E-14 -.453E+02 0.884E+02   0.000E+00 0.467E+01 -.791E+01   -.948E-14 -.290E-05 -.326E-03
   0.236E-07 -.405E+02 0.804E+02   0.340E-14 0.453E+02 -.884E+02   0.000E+00 -.467E+01 0.791E+01   0.691E-14 0.290E-05 0.326E-03
 -----------------------------------------------------------------------------------------------
   0.130E-11 -.112E-09 -.278E-10   0.224E-14 0.000E+00 0.000E+00   0.000E+00 0.000E+00 0.178E-14   -.262E-14 0.664E-14 -.205E-15
 
 
 POSITION                                       TOTAL-FORCE (eV/Angst)
 -----------------------------------------------------------------------------------
      3.31108      0.45074      0.89175         0.000000      0.052086      0.141972
      3.31108     -0.45074      7.55961         0.000000     -0.052086     -0.141972
      3.31108      1.56269      5.11743         0.000000     -0.052086      0.141972
      3.31108     -1.56269      3.33393         0.000000      0.052086     -0.141972
 -----------------------------------------------------------------------------------
    total drift:                                0.000000     -0.000000     -0.000000


--------------------------------------------------------------------------------------------------------



  FREE ENERGIE OF THE ION-ELECTRON SYSTEM (eV)
  ---------------------------------------------------
  free  energy   TOTEN  =        -8.03033188 eV

  energy  without entropy=       -8.03033188  energy(sigma->0) =       -8.03033188
 


--------------------------------------------------------------------------------------------------------


    POTLOK:  cpu time      0.0446: real time      0.0446


--------------------------------------------------------------------------------------------------------




--------------------------------------------------------------------------------------------------------


      MLFF:  cpu time      0.0007: real time      0.0015
    WAVPRE:  cpu time      0.0076: real time      0.0077
    FEWALD:  cpu time      0.0009: real time      0.0009
    GENKIN:  cpu time      0.0012: real time      0.0012
    ORTHCH:  cpu time      0.0120: real time      0.0120
     LOOP+:  cpu time      2.6433: real time      3.4570


--------------------------------------- Ionic step        2  -------------------------------------------




--------------------------------------- Iteration      2(   1)  ---------------------------------------


    POTLOK:  cpu time      0.0034: real time      0.0035
    SETDIJ:  cpu time      0.0399: real time      0.0400
     EDDAV:  cpu time      0.0766: real time      0.0768
 BZINTS: Fermi energy:   -0.111438;   28.000000 electrons
         Band energy:-0.170990E+03;  BLOECHL correction:    0.000000
       DOS:  cpu time      0.0007: real time      0.0007
    CHARGE:  cpu time      0.0128: real time      0.0128
    MIXING:  cpu time      0.0019: real time      0.0019
    --------------------------------------------
      LOOP:  cpu time      0.1353: real time      0.1356

 eigenvalue-minimisations  :   324
 total energy-change (2. order) :-0.1463331E-01  (-0.7053320E-01)
 number of electron      27.9999973 magnetization 
 augmentation part       -3.8412786 magnetization 

 Broyden mixing:
  rms(total) = 0.66305E-01    rms(broyden)= 0.66298E-01
  rms(prec ) = 0.84027E-01
  weight for this iteration     100.00

 Free energy of the ion-electron system (eV)
  ---------------------------------------------------
  alpha Z        PSCENC =        30.21469320
  Ewald energy   TEWEN  =     -1247.28028282
  -Hartree energ DENC   =      -336.86237595
  -exchange      EXHF   =         0.00000000
  -V(xc)+E(xc)   XCENC  =        81.25575293
  PAW double counting   =      2224.86996701    -2224.17252803
  entropy T*S    EENTRO =         0.00000000
  eigenvalues    EBANDS =      -170.99047572
  atomic energy  EATOM  =      1634.92028419
  Solvation  Ediel_sol  =         0.00000000
  ---------------------------------------------------
  free energy    TOTEN  =        -8.04496518 eV

  energy without entropy =       -8.04496518  energy(sigma->0) =       -8.04496518


--------------------------------------------------------------------------------------------------------




--------------------------------------- Iteration      2(   2)  ---------------------------------------


    POTLOK:  cpu time      0.0035: real time      0.0038
    SETDIJ:  cpu time      0.0403: real time      0.0404
     EDDAV:  cpu time      0.0816: real time      0.0818
 BZINTS: Fermi energy:   -0.161039;   28.000000 electrons
         Band energy:-0.172220E+03;  BLOECHL correction:    0.000000
       DOS:  cpu time      0.0008: real time      0.0008
    CHARGE:  cpu time      0.0128: real time      0.0128
    MIXING:  cpu time      0.0019: real time      0.0019
    --------------------------------------------
      LOOP:  cpu time      0.1409: real time      0.1415

 eigenvalue-minimisations  :   350
 total energy-change (2. order) : 0.5543493E-02  (-0.3306389E-02)
 number of electron      27.9999973 magnetization 
 augmentation part       -3.8464985 magnetization 

 Broyden mixing:
  rms(total) = 0.24805E-01    rms(broyden)= 0.24803E-01
  rms(prec ) = 0.34481E-01
  weight for this iteration     100.00

 eigenvalues of (default mixing * dielectric matrix)
  average eigenvalue GAMMA=   1.1217
  1.1217

 Free energy of the ion-electron system (eV)
  ---------------------------------------------------
  alpha Z        PSCENC =        30.21469320
  Ewald energy   TEWEN  =     -1247.28028282
  -Hartree energ DENC   =      -335.56073230
  -exchange      EXHF   =         0.00000000
  -V(xc)+E(xc)   XCENC  =        81.17017853
  PAW double counting   =      2226.67298721    -2225.95670853
  entropy T*S    EENTRO =         0.00000000
  eigenvalues    EBANDS =      -172.21984116
  atomic energy  EATOM  =      1634.92028419
  Solvation  Ediel_sol  =         0.00000000
  ---------------------------------------------------
  free energy    TOTEN  =        -8.03942169 eV

  energy without entropy =       -8.03942169  energy(sigma->0) =       -8.03942169


--------------------------------------------------------------------------------------------------------




--------------------------------------- Iteration      2(   3)  ---------------------------------------


    POTLOK:  cpu time      0.0036: real time      0.0038
    SETDIJ:  cpu time      0.0402: real time      0.0403
     EDDAV:  cpu time      0.0808: real time      0.0810
 BZINTS: Fermi energy:   -0.175645;   28.000000 electrons
         Band energy:-0.172827E+03;  BLOECHL correction:    0.000000
       DOS:  cpu time      0.0008: real time      0.0008
    CHARGE:  cpu time      0.0128: real time      0.0128
    MIXING:  cpu time      0.0019: real time      0.0019
    --------------------------------------------
      LOOP:  cpu time      0.1401: real time      0.1406

 eigenvalue-minimisations  :   340
 total energy-change (2. order) : 0.1785187E-02  (-0.3399466E-03)
 number of electron      27.9999973 magnetization 
 augmentation part       -3.8505544 magnetization 

 Broyden mixing:
  rms(total) = 0.16534E-01    rms(broyden)= 0.16533E-01
  rms(prec ) = 0.18379E-01
  weight for this iteration     100.00

 eigenvalues of (default mixing * dielectric matrix)
  average eigenvalue GAMMA=   1.2351
  1.2351  1.2351

 Free energy of the ion-electron system (eV)
  ---------------------------------------------------
  alpha Z        PSCENC =        30.21469320
  Ewald energy   TEWEN  =     -1247.28028282
  -Hartree energ DENC   =      -334.91231866
  -exchange      EXHF   =         0.00000000
  -V(xc)+E(xc)   XCENC  =        81.12988326
  PAW double counting   =      2224.71175713    -2223.99477264
  entropy T*S    EENTRO =         0.00000000
  eigenvalues    EBANDS =      -172.82688017
  atomic energy  EATOM  =      1634.92028419
  Solvation  Ediel_sol  =         0.00000000
  ---------------------------------------------------
  free energy    TOTEN  =        -8.03763650 eV

  energy without entropy =       -8.03763650  energy(sigma->0) =       -8.03763650


--------------------------------------------------------------------------------------------------------




--------------------------------------- Iteration      2(   4)  ---------------------------------------


    POTLOK:  cpu time      0.0035: real time      0.0038
    SETDIJ:  cpu time      0.0401: real time      0.0403
     EDDAV:  cpu time      0.0920: real time      0.0923
 BZINTS: Fermi energy:   -0.178316;   28.000000 electrons
         Band energy:-0.172918E+03;  BLOECHL correction:    0.000000
       DOS:  cpu time      0.0008: real time      0.0008
    CHARGE:  cpu time      0.0128: real time      0.0128
    MIXING:  cpu time      0.0019: real time      0.0019
    --------------------------------------------
      LOOP:  cpu time      0.1512: real time      0.1519

 eigenvalue-minimisations  :   418
 total energy-change (2. order) : 0.1589598E-03  (-0.3047585E-04)
 number of electron      27.9999973 magnetization 
 augmentation part       -3.8516685 magnetization 

 Broyden mixing:
  rms(total) = 0.10821E-01    rms(broyden)= 0.10821E-01
  rms(prec ) = 0.11321E-01
  weight for this iteration     100.00

 eigenvalues of (default mixing * dielectric matrix)
  average eigenvalue GAMMA=   1.6745
  0.9396  2.0420  2.0420

 Free energy of the ion-electron system (eV)
  ---------------------------------------------------
  alpha Z        PSCENC =        30.21469320
  Ewald energy   TEWEN  =     -1247.28028282
  -Hartree energ DENC   =      -334.80844076
  -exchange      EXHF   =         0.00000000
  -V(xc)+E(xc)   XCENC  =        81.12288854
  PAW double counting   =      2221.67321486    -2220.96169068
  entropy T*S    EENTRO =         0.00000000
  eigenvalues    EBANDS =      -172.91814406
  atomic energy  EATOM  =      1634.92028419
  Solvation  Ediel_sol  =         0.00000000
  ---------------------------------------------------
  free energy    TOTEN  =        -8.03747754 eV

  energy without entropy =       -8.03747754  energy(sigma->0) =       -8.03747754


--------------------------------------------------------------------------------------------------------




--------------------------------------- Iteration      2(   5)  ---------------------------------------


    POTLOK:  cpu time      0.0035: real time      0.0038
    SETDIJ:  cpu time      0.0401: real time      0.0402
     EDDAV:  cpu time      0.0835: real time      0.0837
 BZINTS: Fermi energy:   -0.178353;   28.000000 electrons
         Band energy:-0.172902E+03;  BLOECHL correction:    0.000000
       DOS:  cpu time      0.0008: real time      0.0008
    CHARGE:  cpu time      0.0128: real time      0.0128
    MIXING:  cpu time      0.0020: real time      0.0020
    --------------------------------------------
      LOOP:  cpu time      0.1427: real time      0.1432

 eigenvalue-minimisations  :   354
 total energy-change (2. order) : 0.1191947E-04  (-0.6888034E-05)
 number of electron      27.9999973 magnetization 
 augmentation part       -3.8519348 magnetization 

 Broyden mixing:
  rms(total) = 0.10791E-02    rms(broyden)= 0.10790E-02
  rms(prec ) = 0.13978E-02
  weight for this iteration     100.00

 eigenvalues of (default mixing * dielectric matrix)
  average eigenvalue GAMMA=   1.5787
  2.6072  1.6469  0.9065  1.1539

 Free energy of the ion-electron system (eV)
  ---------------------------------------------------
  alpha Z        PSCENC =        30.21469320
  Ewald energy   TEWEN  =     -1247.28028282
  -Hartree energ DENC   =      -334.81774132
  -exchange      EXHF   =         0.00000000
  -V(xc)+E(xc)   XCENC  =        81.12215801
  PAW double counting   =      2219.48928647    -2218.78352634
  entropy T*S    EENTRO =         0.00000000
  eigenvalues    EBANDS =      -172.90233701
  atomic energy  EATOM  =      1634.92028419
  Solvation  Ediel_sol  =         0.00000000
  ---------------------------------------------------
  free energy    TOTEN  =        -8.03746562 eV

  energy without entropy =       -8.03746562  energy(sigma->0) =       -8.03746562


--------------------------------------------------------------------------------------------------------




--------------------------------------- Iteration      2(   6)  ---------------------------------------


    POTLOK:  cpu time      0.0036: real time      0.0038
    SETDIJ:  cpu time      0.0402: real time      0.0403
     EDDAV:  cpu time      0.0817: real time      0.0819
 BZINTS: Fermi energy:   -0.178981;   28.000000 electrons
         Band energy:-0.172928E+03;  BLOECHL correction:    0.000000
       DOS:  cpu time      0.0008: real time      0.0008
    CHARGE:  cpu time      0.0127: real time      0.0128
    MIXING:  cpu time      0.0020: real time      0.0020
    --------------------------------------------
      LOOP:  cpu time      0.1411: real time      0.1416

 eigenvalue-minimisations  :   346
 total energy-change (2. order) : 0.4615496E-06  (-0.1065213E-05)
 number of electron      27.9999973 magnetization 
 augmentation part       -3.8521316 magnetization 

 Broyden mixing:
  rms(total) = 0.85733E-03    rms(broyden)= 0.85731E-03
  rms(prec ) = 0.90787E-03
  weight for this iteration     100.00

 eigenvalues of (default mixing * dielectric matrix)
  average eigenvalue GAMMA=   1.5813
  2.6138  1.8717  1.6144  1.0282  0.7781

 Free energy of the ion-electron system (eV)
  ---------------------------------------------------
  alpha Z        PSCENC =        30.21469320
  Ewald energy   TEWEN  =     -1247.28028282
  -Hartree energ DENC   =      -334.79072708
  -exchange      EXHF   =         0.00000000
  -V(xc)+E(xc)   XCENC  =        81.12036783
  PAW double counting   =      2219.43058415    -2218.72448964
  entropy T*S    EENTRO =         0.00000000
  eigenvalues    EBANDS =      -172.92789500
  atomic energy  EATOM  =      1634.92028419
  Solvation  Ediel_sol  =         0.00000000
  ---------------------------------------------------
  free energy    TOTEN  =        -8.03746516 eV

  energy without entropy =       -8.03746516  energy(sigma->0) =       -8.03746516


--------------------------------------------------------------------------------------------------------




--------------------------------------- Iteration      2(   7)  ---------------------------------------


    POTLOK:  cpu time      0.0035: real time      0.0038
    SETDIJ:  cpu time      0.0403: real time      0.0404
     EDDAV:  cpu time      0.0940: real time      0.0942
 BZINTS: Fermi energy:   -0.179031;   28.000000 electrons
         Band energy:-0.172932E+03;  BLOECHL correction:    0.000000
       DOS:  cpu time      0.0008: real time      0.0008
    CHARGE:  cpu time      0.0127: real time      0.0128
    MIXING:  cpu time      0.0020: real time      0.0020
    --------------------------------------------
      LOOP:  cpu time      0.1533: real time      0.1539

 eigenvalue-minimisations  :   420
 total energy-change (2. order) :-0.1397916E-07  (-0.1178508E-06)
 number of electron      27.9999973 magnetization 
 augmentation part       -3.8521609 magnetization 

 Broyden mixing:
  rms(total) = 0.54678E-03    rms(broyden)= 0.54678E-03
  rms(prec ) = 0.56233E-03
  weight for this iteration     100.00

 eigenvalues of (default mixing * dielectric matrix)
  average eigenvalue GAMMA=   1.5756
  2.6062  2.2445  1.5958  0.9389  1.0342  1.0342

 Free energy of the ion-electron system (eV)
  ---------------------------------------------------
  alpha Z        PSCENC =        30.21469320
  Ewald energy   TEWEN  =     -1247.28028282
  -Hartree energ DENC   =      -334.78707432
  -exchange      EXHF   =         0.00000000
  -V(xc)+E(xc)   XCENC  =        81.12002622
  PAW double counting   =      2219.80095473    -2219.09424187
  entropy T*S    EENTRO =         0.00000000
  eigenvalues    EBANDS =      -172.93182449
  atomic energy  EATOM  =      1634.92028419
  Solvation  Ediel_sol  =         0.00000000
  ---------------------------------------------------
  free energy    TOTEN  =        -8.03746517 eV

  energy without entropy =       -8.03746517  energy(sigma->0) =       -8.03746517


--------------------------------------------------------------------------------------------------------




--------------------------------------- Iteration      2(   8)  ---------------------------------------


    POTLOK:  cpu time      0.0036: real time      0.0038
    SETDIJ:  cpu time      0.0408: real time      0.0409
     EDDAV:  cpu time      0.0609: real time      0.0611
 BZINTS: Fermi energy:   -0.178956;   28.000000 electrons
         Band energy:-0.172931E+03;  BLOECHL correction:    0.000000
       DOS:  cpu time      0.0008: real time      0.0008
    --------------------------------------------
      LOOP:  cpu time      0.1061: real time      0.1066

 eigenvalue-minimisations  :   202
 total energy-change (2. order) :-0.3551048E-07  (-0.1252060E-07)
 number of electron      27.9999973 magnetization 
 augmentation part       -3.8521609 magnetization 

 Free energy of the ion-electron system (eV)
  ---------------------------------------------------
  alpha Z        PSCENC =        30.21469320
  Ewald energy   TEWEN  =     -1247.28028282
  -Hartree energ DENC   =      -334.78815381
[...]
  ---------------------------------------------------
  alpha Z        PSCENC =        31.66511052
  Ewald energy   TEWEN  =     -1268.93970457
  -Hartree energ DENC   =      -323.54702463
  -exchange      EXHF   =         0.00000000
  -V(xc)+E(xc)   XCENC  =        81.23991831
  PAW double counting   =      2253.34033423    -2252.58843321
  entropy T*S    EENTRO =         0.00000000
  eigenvalues    EBANDS =      -164.16117348
  atomic energy  EATOM  =      1634.92028419
  Solvation  Ediel_sol  =         0.00000000
  ---------------------------------------------------
  free energy    TOTEN  =        -8.07068863 eV

  energy without entropy =       -8.07068863  energy(sigma->0) =       -8.07068863


--------------------------------------------------------------------------------------------------------




--------------------------------------- Iteration     24(   5)  ---------------------------------------


    POTLOK:  cpu time      0.0036: real time      0.0038
    SETDIJ:  cpu time      0.0402: real time      0.0403
     EDDAV:  cpu time      0.0849: real time      0.0851
 BZINTS: Fermi energy:    0.148482;   28.000000 electrons
         Band energy:-0.164115E+03;  BLOECHL correction:    0.000000
       DOS:  cpu time      0.0008: real time      0.0008
    CHARGE:  cpu time      0.0128: real time      0.0128
    MIXING:  cpu time      0.0020: real time      0.0020
    --------------------------------------------
      LOOP:  cpu time      0.1443: real time      0.1449

 eigenvalue-minimisations  :   376
 total energy-change (2. order) : 0.8407147E-05  (-0.1650982E-05)
 number of electron      27.9999956 magnetization 
 augmentation part       -3.8630460 magnetization 

 Broyden mixing:
  rms(total) = 0.49211E-03    rms(broyden)= 0.49210E-03
  rms(prec ) = 0.54608E-03
  weight for this iteration     100.00

 eigenvalues of (default mixing * dielectric matrix)
  average eigenvalue GAMMA=   1.6999
  2.3812  2.0510  1.1837  1.1837

 Free energy of the ion-electron system (eV)
  ---------------------------------------------------
  alpha Z        PSCENC =        31.66511052
  Ewald energy   TEWEN  =     -1268.93970457
  -Hartree energ DENC   =      -323.59825582
  -exchange      EXHF   =         0.00000000
  -V(xc)+E(xc)   XCENC  =        81.24281643
  PAW double counting   =      2253.56980480    -2252.81603901
  entropy T*S    EENTRO =         0.00000000
  eigenvalues    EBANDS =      -164.11469677
  atomic energy  EATOM  =      1634.92028419
  Solvation  Ediel_sol  =         0.00000000
  ---------------------------------------------------
  free energy    TOTEN  =        -8.07068022 eV

  energy without entropy =       -8.07068022  energy(sigma->0) =       -8.07068022


--------------------------------------------------------------------------------------------------------




--------------------------------------- Iteration     24(   6)  ---------------------------------------


    POTLOK:  cpu time      0.0035: real time      0.0038
    SETDIJ:  cpu time      0.0402: real time      0.0402
     EDDAV:  cpu time      0.0808: real time      0.0810
 BZINTS: Fermi energy:    0.148656;   28.000000 electrons
         Band energy:-0.164112E+03;  BLOECHL correction:    0.000000
       DOS:  cpu time      0.0008: real time      0.0008
    --------------------------------------------
      LOOP:  cpu time      0.1253: real time      0.1258

 eigenvalue-minimisations  :   348
 total energy-change (2. order) : 0.7811997E-07  (-0.6068198E-07)
 number of electron      27.9999956 magnetization 
 augmentation part       -3.8630460 magnetization 

 Free energy of the ion-electron system (eV)
  ---------------------------------------------------
  alpha Z        PSCENC =        31.66511052
  Ewald energy   TEWEN  =     -1268.93970457
  -Hartree energ DENC   =      -323.60115274
  -exchange      EXHF   =         0.00000000
  -V(xc)+E(xc)   XCENC  =        81.24308451
  PAW double counting   =      2253.38798515    -2252.63420701
  entropy T*S    EENTRO =         0.00000000
  eigenvalues    EBANDS =      -164.11208019
  atomic energy  EATOM  =      1634.92028419
  Solvation  Ediel_sol  =         0.00000000
  ---------------------------------------------------
  free energy    TOTEN  =        -8.07068014 eV

  energy without entropy =       -8.07068014  energy(sigma->0) =       -8.07068014


--------------------------------------------------------------------------------------------------------




 average (electrostatic) potential at core
  the test charge radii are     0.9406
  (the norm of the test charge is              1.0000)
       1 -95.2594       2 -95.2594       3 -95.2594       4 -95.2594
 
 
 
 E-fermi :   0.1487     XC(G=0):  -8.2913     alpha+bet : -7.0556

 val. band max:        0.1274490709   @ k =   0.0000   0.0000   0.2500
 cond. band min:       2.4180661112   @ k =   0.0000   0.0000   0.2500
 fundamental gap:      2.2906170403
 Fermi energy:         0.1486562785

 k-point     1 :       0.0000    0.0000    0.2500
  band No.  band energies     occupation 
      1     -16.7356      2.00000
      2     -16.4300      2.00000
      3     -12.8979      2.00000
      4     -12.0569      2.00000
      5      -5.6122      2.00000
      6      -4.4601      2.00000
      7      -2.4884      2.00000
      8      -2.4716      2.00000
      9      -2.2753      2.00000
     10      -2.2285      2.00000
     11      -1.0139      2.00000
     12      -0.4550      2.00000
     13      -0.1758      2.00000
     14       0.1274      2.00000
     15       2.4181      0.00000
     16       3.1154      0.00000
     17       6.7476      0.00000
     18       7.1260      0.00000

 k-point     2 :       0.2000    0.0000    0.2500
  band No.  band energies     occupation 
      1     -16.6338      2.00000
      2     -16.3799      2.00000
      3     -12.8199      2.00000
      4     -12.1456      2.00000
      5      -5.6291      2.00000
      6      -4.6760      2.00000
      7      -3.1112      2.00000
      8      -2.7508      2.00000
      9      -2.5213      2.00000
     10      -2.4227      2.00000
     11      -0.8027      2.00000
     12      -0.3068      2.00000
     13      -0.2211      2.00000
     14      -0.0515      2.00000
     15       2.5775      0.00000
     16       3.1181      0.00000
     17       7.3885      0.00000
     18       7.8008      0.00000

 k-point     3 :       0.4000    0.0000    0.2500
  band No.  band energies     occupation 
      1     -16.4282      2.00000
      2     -16.3266      2.00000
      3     -12.6261      2.00000
      4     -12.3737      2.00000
      5      -5.5549      2.00000
      6      -5.1590      2.00000
      7      -3.6553      2.00000
      8      -3.3609      2.00000
      9      -2.6968      2.00000
     10      -2.6421      2.00000
     11      -0.7300      2.00000
     12      -0.5172      2.00000
     13      -0.3050      2.00000
     14      -0.1328      2.00000
     15       2.8356      0.00000
     16       3.0898      0.00000
     17       7.9425      0.00000
     18       8.0726      0.00000

 k-point     4 :       0.2000    0.2000    0.2500
  band No.  band energies     occupation 
      1     -16.6795      2.00000
      2     -16.3841      2.00000
      3     -12.8443      2.00000
      4     -12.0367      2.00000
      5      -5.5725      2.00000
      6      -4.4806      2.00000
      7      -3.0700      2.00000
      8      -2.7453      2.00000
      9      -2.5488      2.00000
     10      -2.2886      2.00000
     11      -1.0520      2.00000
     12      -0.5211      2.00000
     13      -0.4753      2.00000
     14       0.0159      2.00000
     15       2.4515      0.00000
     16       3.0989      0.00000
     17       7.8755      0.00000
     18       7.9589      0.00000

 k-point     5 :       0.4000    0.2000    0.2500
  band No.  band energies     occupation 
      1     -16.5552      2.00000
      2     -16.3203      2.00000
      3     -12.7439      2.00000
      4     -12.1278      2.00000
      5      -5.5644      2.00000
      6      -4.7159      2.00000
      7      -3.4373      2.00000
      8      -3.2964      2.00000
      9      -2.8403      2.00000
     10      -2.6432      2.00000
     11      -0.9446      2.00000
     12      -0.7124      2.00000
     13      -0.2940      2.00000
     14      -0.1179      2.00000
     15       2.6020      0.00000
     16       3.0730      0.00000
     17       8.5536      0.00000
     18       8.8340      0.00000

 k-point     6 :      -0.4000    0.2000    0.2500
  band No.  band energies     occupation 
      1     -16.3892      2.00000
      2     -16.3107      2.00000
      3     -12.5780      2.00000
      4     -12.3872      2.00000
      5      -5.4755      2.00000
      6      -5.2206      2.00000
      7      -3.6022      2.00000
      8      -3.3974      2.00000
      9      -3.1098      2.00000
     10      -2.8740      2.00000
     11      -0.7992      2.00000
     12      -0.6030      2.00000
     13      -0.3088      2.00000
     14      -0.1828      2.00000
     15       2.8478      0.00000
     16       3.0613      0.00000
     17       8.4200      0.00000
     18       8.9562      0.00000

 k-point     7 :      -0.2000    0.2000    0.2500
  band No.  band energies     occupation 
      1     -16.4524      2.00000
      2     -16.3368      2.00000
      3     -12.6546      2.00000
      4     -12.3643      2.00000
      5      -5.5862      2.00000
      6      -5.1087      2.00000
      7      -3.5529      2.00000
      8      -3.1979      2.00000
      9      -2.7483      2.00000
     10      -2.6455      2.00000
     11      -0.6029      2.00000
     12      -0.4165      2.00000
     13      -0.2550      2.00000
     14      -0.2178      2.00000
     15       2.8243      0.00000
     16       3.1072      0.00000
     17       8.4051      0.00000
     18       8.9385      0.00000

 k-point     8 :       0.4000    0.4000    0.2500
  band No.  band energies     occupation 
      1     -16.5861      2.00000
      2     -16.3082      2.00000
      3     -12.7548      2.00000
      4     -12.0037      2.00000
      5      -5.4905      2.00000
      6      -4.5063      2.00000
      7      -3.8721      2.00000
      8      -3.3765      2.00000
      9      -2.6655      2.00000
     10      -2.3694      2.00000
     11      -1.1815      2.00000
     12      -1.0394      2.00000
     13      -0.5036      2.00000
     14      -0.1817      2.00000
     15       2.4551      0.00000
     16       3.0415      0.00000
     17       8.5875      0.00000
     18       8.6814      0.00000

 k-point     9 :      -0.4000    0.4000    0.2500
  band No.  band energies     occupation 
      1     -16.5055      2.00000
      2     -16.2829      2.00000
      3     -12.6954      2.00000
      4     -12.1164      2.00000
      5      -5.5069      2.00000
      6      -4.7365      2.00000
      7      -3.8116      2.00000
      8      -3.3303      2.00000
      9      -3.1878      2.00000
     10      -2.7250      2.00000
     11      -1.0956      2.00000
     12      -0.8853      2.00000
     13      -0.2816      2.00000
     14      -0.2250      2.00000
     15       2.5998      0.00000
     16       3.0399      0.00000
     17       8.9215      0.00000
     18       9.0451      0.00000


--------------------------------------------------------------------------------------------------------


 soft charge-density along one line, spin component            1
         0         1         2         3         4         5         6         7         8         9
 total charge-density along one line
 
 pseudopotential strength for first ion, spin component:            1
 48.244  50.632  -0.041  -0.061  -0.000  -0.050  -0.075  -0.000
 50.632  53.142  -0.043  -0.064  -0.000  -0.053  -0.079  -0.000
 -0.041  -0.043   9.095   0.020  -0.000  11.277   0.024  -0.000
 -0.061  -0.064   0.020   9.121   0.000   0.024  11.308   0.000
 -0.000  -0.000  -0.000   0.000   9.080  -0.000   0.000  11.259
 -0.050  -0.053  11.277   0.024  -0.000  13.998   0.029  -0.000
 -0.075  -0.079   0.024  11.308   0.000   0.029  14.036   0.000
 -0.000  -0.000  -0.000   0.000  11.259  -0.000   0.000  13.976
 total augmentation occupancy for first ion, spin component:            1
 13.125 -10.027   2.768   4.668   0.000  -1.235  -2.290  -0.000
-10.027   9.012  -2.587  -4.361  -0.000   1.209   2.222   0.000
  2.768  -2.587   2.898   1.197   0.000  -0.759  -0.874  -0.000
  4.668  -4.361   1.197   4.442   0.000  -0.874  -1.884  -0.000
  0.000  -0.000   0.000   0.000   2.101  -0.000  -0.000  -0.180
 -1.235   1.209  -0.759  -0.874  -0.000   0.466   0.414   0.000
 -2.290   2.222  -0.874  -1.884  -0.000   0.414   0.991   0.000
 -0.000   0.000  -0.000  -0.000  -0.180   0.000   0.000   0.216


------------------------ aborting loop because EDIFF is reached ----------------------------------------





 total charge

# of ion       s       p       d       tot
------------------------------------------
    1        1.618   3.340   0.000   4.958
    2        1.618   3.340   0.000   4.958
    3        1.618   3.340   0.000   4.958
    4        1.618   3.340   0.000   4.958
--------------------------------------------------
tot          6.471  13.359   0.000  19.830
 
    CHARGE:  cpu time      0.0156: real time      0.0157
    FORLOC:  cpu time      0.0003: real time      0.0003
    FORNL :  cpu time      0.0214: real time      0.0215
    STRESS:  cpu time      0.2133: real time      0.2137
    FORCOR:  cpu time      0.0032: real time      0.0032
    FORHAR:  cpu time      0.0008: real time      0.0008
    MIXING:  cpu time      0.0021: real time      0.0021
    OFIELD:  cpu time      0.0000: real time      0.0000

  FORCE on cell =-STRESS in cart. coord.  units (eV):
  Direction    XX          YY          ZZ          XY          YZ          ZX
  --------------------------------------------------------------------------------------
  Alpha Z    31.66511    31.66511    31.66511
  Ewald    -671.17090  -406.44313  -191.32631     0.00000    -0.00000     0.00000
  Hartree     1.02329   126.70614   195.87813    -0.00000    -0.00000    -0.00000
  E(xc)    -101.76831  -101.17343  -100.56285    -0.00000     0.00000    -0.00000
  Local      -6.20849  -363.97556  -593.47441     0.00000     0.00000    -0.00000
  n-local   331.65509   326.59319   318.05799     1.35288     0.63660    -0.08723
  augment   -84.11332   -81.52668   -77.09113    -0.00000    -0.00000    -0.00000
  Kinetic   498.92558   468.13905   416.84395     5.98786     0.51230    -0.10997
  Fock        0.00000     0.00000     0.00000     0.00000     0.00000     0.00000
  -------------------------------------------------------------------------------------
  Total       0.00806    -0.01531    -0.00952     0.00000     0.00000     0.00000
  in kB       0.12099    -0.22983    -0.14285     0.00000     0.00000     0.00000
  external pressure =       -0.08 kB  Pullay stress =        0.00 kB


 VOLUME and BASIS-vectors are now :
 -----------------------------------------------------------------------------
  energy-cutoff  :      400.00
  volume of cell :      106.72
      direct lattice vectors                 reciprocal lattice vectors
     3.418419053 -1.945918562  0.000000000     0.146266444 -0.256948060  0.000000000
     3.418419053  1.945918562 -0.000000000     0.146266444  0.256948060 -0.000000000
     0.000000000  0.000000000  8.021445201     0.000000000  0.000000000  0.124665815

  length of vectors
     3.933470208  3.933470208  8.021445201     0.295662271  0.295662271  0.124665815


 FORCES acting on ions
    electron-ion (+dipol)            ewald-force                    non-local-force                 convergence-correction
 -----------------------------------------------------------------------------------------------
   0.303E-06 -.391E+02 -.643E+02   -.102E-14 0.440E+02 0.713E+02   -.555E-16 -.489E+01 -.702E+01   -.440E-14 0.125E-03 0.132E-04
   -.303E-06 0.391E+02 0.643E+02   0.267E-14 -.440E+02 -.713E+02   0.555E-16 0.489E+01 0.702E+01   0.300E-13 -.125E-03 -.132E-04
   0.303E-06 0.391E+02 -.643E+02   0.412E-14 -.440E+02 0.713E+02   0.000E+00 0.489E+01 -.702E+01   0.124E-13 -.125E-03 0.132E-04
   -.303E-06 -.391E+02 0.643E+02   0.222E-14 0.440E+02 -.713E+02   0.000E+00 -.489E+01 0.702E+01   0.389E-14 0.125E-03 -.132E-04
 -----------------------------------------------------------------------------------------------
   -.283E-11 -.110E-09 -.338E-10   0.799E-14 0.000E+00 0.142E-13   0.000E+00 0.000E+00 0.888E-15   0.418E-13 0.490E-14 0.326E-13
 
 
 POSITION                                       TOTAL-FORCE (eV/Angst)
 -----------------------------------------------------------------------------------
      3.41842      0.48812      0.88501         0.000000     -0.000508      0.004078
      3.41842     -0.48812      7.13643         0.000000      0.000508     -0.004078
      3.41842      1.45780      4.89574         0.000000      0.000508      0.004078
      3.41842     -1.45780      3.12571         0.000000     -0.000508     -0.004078
 -----------------------------------------------------------------------------------
    total drift:                               -0.000000     -0.000000     -0.000000


--------------------------------------------------------------------------------------------------------



  FREE ENERGIE OF THE ION-ELECTRON SYSTEM (eV)
  ---------------------------------------------------
  free  energy   TOTEN  =        -8.07068014 eV

  energy  without entropy=       -8.07068014  energy(sigma->0) =       -8.07068014
 d Force = 0.2109080E-06[-0.225E-05, 0.267E-05]  d Energy = 0.1848849E-04-0.183E-04
 d Force =-0.3664208E-01[-0.367E-01,-0.366E-01]  d Ewald  =-0.1387543E+01 0.135E+01
 


--------------------------------------------------------------------------------------------------------


    POTLOK:  cpu time      0.0448: real time      0.0449


--------------------------------------------------------------------------------------------------------




--------------------------------------------------------------------------------------------------------


  
 reached required accuracy - stopping structural energy minimisation
     LOOP+:  cpu time      1.1868: real time      1.1926
    4ORBIT:  cpu time      0.0000: real time      0.0000



 total charge

# of ion       s       p       d       tot
------------------------------------------
    1        1.618   3.340   0.000   4.958
    2        1.618   3.340   0.000   4.958
    3        1.618   3.340   0.000   4.958
    4        1.618   3.340   0.000   4.958
--------------------------------------------------
tot          6.471  13.359   0.000  19.830
 
 BZINTS: Fermi energy:    0.148656;   28.000000 electrons
         Band energy:-0.164112E+03;  BLOECHL correction:    0.000000

 total amount of memory used by VASP MPI-rank0    48676. kBytes
=======================================================================

   base                                    :      30000. kBytes
   nonl-proj                               :       1320. kBytes
   fftplans                                :       4680. kBytes
   grid                                    :       7232. kBytes
   one-center                              :         12. kBytes
   wavefun                                 :       5432. kBytes
 
  
  
 General timing and accounting informations for this job:
 ========================================================
  
                  Total CPU time used (sec):       38.126
                            User time (sec):       35.400
                          System time (sec):        2.726
                         Elapsed time (sec):       45.429
  
                   Maximum memory used (kb):     2061224.
                   Average memory used (kb):          N/A
  
                          Minor page faults:       293974
                          Major page faults:         8261
                 Voluntary context switches:        18679
