<?xml version="1.0" encoding="ISO-8859-1"?>
<modeling>
 <generator>
  <i name="program" type="string">vasp </i>
  <i name="version" type="string">6.5.1  </i>
  <i name="subversion" type="string">10Mar25 (build May 13 2025 11:33:44) complex                          parallel </i>
  <i name="platform" type="string">LinuxNV </i>
  <i name="date" type="string">2026 05 13 </i>
  <i name="time" type="string">11:33:22 </i>
 </generator>
 <incar>
  <i type="string" name="PREC">Normal</i>
  <i type="string" name="ALGO">Normal</i>
  <i type="int" name="NELM">   100</i>
  <i type="int" name="IBRION">     2</i>
  <i name="EDIFF">      0.00000010</i>
  <i name="EDIFFG">     -0.00500000</i>
  <i type="int" name="NSW">   300</i>
  <i type="int" name="ISIF">     3</i>
  <i name="ENCUT">    400.00000000</i>
  <i type="logical" name="LREAL"> F  </i>
  <i type="int" name="ISMEAR">    -5</i>
  <i name="SIGMA">      0.10000000</i>
  <i type="logical" name="LWAVE"> F  </i>
  <i type="logical" name="LCHARG"> F  </i>
  <i type="int" name="LORBIT">    10</i>
  <i type="logical" name="LASPH"> T  </i>
  <i type="string" name="GGA">Ps</i>
 </incar>
 <primitive_cell>
  <structure name="primitive_cell" >
   <crystal>
    <varray name="basis" >
     <v>       3.31107558      -2.01342905       0.00000000 </v>
     <v>       3.31107558       2.01342905       0.00000000 </v>
     <v>       0.00000000       0.00000000       8.45136010 </v>
    </varray>
    <i name="volume">    112.68394086 </i>
    <varray name="rec_basis" >
     <v>       0.15100833      -0.24833256       0.00000000 </v>
     <v>       0.15100833       0.24833256      -0.00000000 </v>
     <v>      -0.00000000       0.00000000       0.11832415 </v>
    </varray>
   </crystal>
   <varray name="positions" >
    <v>       0.38806571       0.61193429       0.10551543 </v>
    <v>       0.61193429       0.38806571       0.89448457 </v>
    <v>       0.11193429       0.88806571       0.60551543 </v>
    <v>       0.88806571       0.11193429       0.39448457 </v>
   </varray>
  </structure>
  <varray name="primitive_index" >
   <v type="int" >        1 </v>
   <v type="int" >        2 </v>
   <v type="int" >        3 </v>
   <v type="int" >        4 </v>
  </varray>
 </primitive_cell>
 <kpoints>
  <generation param="Gamma">
   <v type="int" name="divisions">       5        5        2 </v>
   <v name="usershift">      0.00000000       0.00000000       0.50000000 </v>
   <v name="genvec1">      0.20000000      -0.00000000       0.00000000 </v>
   <v name="genvec2">     -0.00000000       0.20000000       0.00000000 </v>
   <v name="genvec3">      0.00000000       0.00000000       0.50000000 </v>
   <v name="shift">      0.00000000       0.00000000       0.50000000 </v>
  </generation>
  <varray name="kpointlist" >
   <v>       0.00000000       0.00000000       0.25000000 </v>
   <v>       0.20000000       0.00000000       0.25000000 </v>
   <v>       0.40000000       0.00000000       0.25000000 </v>
   <v>       0.20000000       0.20000000       0.25000000 </v>
   <v>       0.40000000       0.20000000       0.25000000 </v>
   <v>      -0.40000000       0.20000000       0.25000000 </v>
   <v>      -0.20000000       0.20000000       0.25000000 </v>
   <v>       0.40000000       0.40000000       0.25000000 </v>
   <v>      -0.40000000       0.40000000       0.25000000 </v>
  </varray>
  <varray name="weights" >
   <v>       0.04000000 </v>
   <v>       0.16000000 </v>
   <v>       0.16000000 </v>
   <v>       0.08000000 </v>
   <v>       0.16000000 </v>
   <v>       0.16000000 </v>
   <v>       0.08000000 </v>
   <v>       0.08000000 </v>
   <v>       0.08000000 </v>
  </varray>
  <varray name="tetrahedronlist"  type="int" >
   <v type="int" >        8        2        3        7        7 </v>
   <v type="int" >        8        3        6        7        7 </v>
   <v type="int" >        8        3        6        6        7 </v>
   <v type="int" >        8        2        2        3        7 </v>
   <v type="int" >        8        2        3        3        7 </v>
   <v type="int" >        8        3        3        6        7 </v>
   <v type="int" >        8        3        3        6        6 </v>
   <v type="int" >        8        3        5        6        6 </v>
   <v type="int" >        8        3        5        5        6 </v>
   <v type="int" >       16        3        3        3        6 </v>
   <v type="int" >        8        3        3        5        6 </v>
   <v type="int" >        8        2        3        5        5 </v>
   <v type="int" >        8        2        4        5        5 </v>
   <v type="int" >        8        2        4        4        5 </v>
   <v type="int" >        8        2        3        3        5 </v>
   <v type="int" >        8        2        2        3        5 </v>
   <v type="int" >        8        2        2        4        5 </v>
   <v type="int" >        8        1        2        4        4 </v>
   <v type="int" >        8        1        2        2        4 </v>
   <v type="int" >        8        1        1        2        4 </v>
   <v type="int" >        8        1        2        2        2 </v>
   <v type="int" >        8        2        2        2        7 </v>
   <v type="int" >        4        2        2        7        7 </v>
   <v type="int" >        4        1        1        2        2 </v>
   <v type="int" >        8        6        6        6        7 </v>
   <v type="int" >        8        6        6        6        9 </v>
   <v type="int" >        4        6        6        9        9 </v>
   <v type="int" >        4        6        6        7        7 </v>
   <v type="int" >        8        5        6        9        9 </v>
   <v type="int" >        8        5        8        9        9 </v>
   <v type="int" >        8        5        8        8        9 </v>
   <v type="int" >        8        5        6        6        9 </v>
   <v type="int" >        8        5        5        6        9 </v>
   <v type="int" >        8        5        5        8        9 </v>
   <v type="int" >        8        4        5        8        8 </v>
   <v type="int" >        8        4        5        5        8 </v>
   <v type="int" >        8        4        4        5        8 </v>
   <v type="int" >        8        8        8        8        9 </v>
   <v type="int" >        4        8        8        9        9 </v>
  </varray>
  <i name="volumeweight">      0.00333333 </i>
 </kpoints>
 <parameters>
  <separator name="general" >
   <i type="string" name="SYSTEM">unknown system</i>
   <i type="logical" name="LCOMPAT"> F  </i>
  </separator>
  <separator name="electronic" >
   <i type="string" name="PREC">normal</i>
   <i name="ENMAX">    400.00000000</i>
   <i name="ENAUG">    356.19200000</i>
   <i name="EDIFF">      0.00000010</i>
   <i type="int" name="IALGO">    38</i>
   <i type="int" name="IWAVPR">    11</i>
   <i type="int" name="NBANDS">    18</i>
   <i type="int" name="NBANDSLOW">    -1</i>
   <i type="int" name="NBANDSHIGH">    -1</i>
   <i name="NELECT">     28.00000000</i>
   <i type="int" name="TURBO">     0</i>
   <i type="int" name="IRESTART">     0</i>
   <i type="int" name="NREBOOT">     0</i>
   <i type="int" name="NMIN">     0</i>
   <i name="EREF">      0.00000000</i>
   <separator name="electronic smearing" >
    <i type="int" name="ISMEAR">    -5</i>
    <i name="SIGMA">      0.10000000</i>
    <i name="KSPACING">      0.50000000</i>
    <i type="logical" name="KGAMMA"> T  </i>
    <i type="logical" name="KBLOWUP"> T  </i>
   </separator>
   <separator name="electronic projectors" >
    <i type="logical" name="LREAL"> F  </i>
    <v name="ROPT">      0.00000000</v>
    <i type="int" name="LMAXPAW">  -100</i>
    <i type="int" name="LMAXMIX">     2</i>
    <i type="logical" name="NLSPLINE"> F  </i>
   </separator>
   <separator name="electronic startup" >
    <i type="int" name="ISTART">     0</i>
    <i type="int" name="ICHARG">     2</i>
    <i type="int" name="INIWAV">     1</i>
   </separator>
   <separator name="electronic spin" >
    <i type="int" name="ISPIN">     1</i>
    <i type="logical" name="LNONCOLLINEAR"> F  </i>
    <v name="MAGMOM">      1.00000000      1.00000000      1.00000000      1.00000000</v>
    <i name="NUPDOWN">     -1.00000000</i>
    <i type="logical" name="LSORBIT"> F  </i>
    <v name="SAXIS">      0.00000000      0.00000000      1.00000000</v>
    <i type="logical" name="LSPIRAL"> F  </i>
    <v name="QSPIRAL">      0.00000000      0.00000000      0.00000000</v>
    <i type="logical" name="LZEROZ"> F  </i>
   </separator>
   <separator name="electronic exchange-correlation" >
    <i type="logical" name="LASPH"> T  </i>
   </separator>
   <separator name="electronic convergence" >
    <i type="int" name="NELM">   100</i>
    <i type="int" name="NELMDL">    -5</i>
    <i type="int" name="NELMIN">     2</i>
    <i name="ENINI">    400.00000000</i>
    <separator name="electronic convergence detail" >
     <i type="logical" name="LDIAG"> T  </i>
     <i type="logical" name="LSUBROT"> F  </i>
     <i type="logical" name="LROBUST"> F  </i>
     <i type="int" name="ISEARCH">     0</i>
     <i name="WEIMIN">      0.00100000</i>
     <i name="EBREAK">      0.00000000</i>
     <i name="DEPER">      0.30000000</i>
     <i type="int" name="NRMM">     4</i>
     <i name="TIME">      0.40000000</i>
    </separator>
   </separator>
   <separator name="electronic mixer" >
    <i name="AMIX">      0.40000000</i>
    <i name="BMIX">      1.00000000</i>
    <i name="AMIN">      0.10000000</i>
    <i name="AMIX_MAG">      1.60000000</i>
    <i name="BMIX_MAG">      1.00000000</i>
    <separator name="electronic mixer details" >
     <i type="int" name="IMIX">     4</i>
     <i type="logical" name="MIXFIRST"> F  </i>
     <i type="int" name="MAXMIX">   -45</i>
     <i name="WC">    100.00000000</i>
     <i type="int" name="INIMIX">     1</i>
     <i type="int" name="MIXPRE">     1</i>
     <i type="int" name="MREMOVE">     5</i>
    </separator>
   </separator>
   <separator name="electronic dipolcorrection" >
    <i type="logical" name="LDIPOL"> F  </i>
    <i type="logical" name="LMONO"> F  </i>
    <i type="int" name="IDIPOL">     0</i>
    <i name="EPSILON">      1.00000000</i>
    <v name="DIPOL">   -100.00000000   -100.00000000   -100.00000000</v>
    <i name="EFIELD">      0.00000000</i>
    <i type="logical" name="LVACPOTAV"> F  </i>
   </separator>
  </separator>
  <separator name="grids" >
   <i type="int" name="NGX">    20</i>
   <i type="int" name="NGY">    20</i>
   <i type="int" name="NGZ">    42</i>
   <i type="int" name="NGXF">    40</i>
   <i type="int" name="NGYF">    40</i>
   <i type="int" name="NGZF">    84</i>
   <i type="logical" name="ADDGRID"> F  </i>
  </separator>
  <separator name="ionic" >
   <i type="int" name="NSW">   300</i>
   <i type="int" name="IBRION">     2</i>
   <i type="int" name="MDALGO">     0</i>
   <i type="int" name="ISIF">     3</i>
   <i name="PSTRESS">      0.00000000</i>
   <i name="EDIFFG">     -0.00500000</i>
   <i type="int" name="NFREE">     1</i>
   <i name="POTIM">      0.50000000</i>
   <i name="SMASS">     -3.00000000</i>
   <i name="SCALEE">      1.00000000</i>
  </separator>
  <separator name="ionic md" >
   <i name="TEBEG">      0.00010000</i>
   <i name="TEEND">      0.00010000</i>
   <i type="int" name="NBLOCK">     1</i>
   <i type="int" name="KBLOCK">   300</i>
   <i type="int" name="NPACO">   256</i>
   <i name="APACO">     10.00000000</i>
  </separator>
  <separator name="symmetry" >
   <i type="int" name="ISYM">     2</i>
   <i name="SYMPREC">      0.00001000</i>
  </separator>
  <separator name="dos" >
   <i type="int" name="LORBIT">    10</i>
   <v name="RWIGS">     -1.00000000</v>
   <i type="int" name="NEDOS">   301</i>
   <i name="EMIN">     10.00000000</i>
   <i name="EMAX">    -10.00000000</i>
   <i name="EFERMI">      0.00000000</i>
  </separator>
  <separator name="writing" >
   <i type="int" name="NWRITE">     2</i>
   <i type="logical" name="LWAVE"> F  </i>
   <i type="logical" name="LDOWNSAMPLE"> F  </i>
   <i type="logical" name="LCHARG"> F  </i>
   <i type="logical" name="LPARD"> F  </i>
   <i type="logical" name="LVTOT"> F  </i>
   <i type="logical" name="LVHAR"> F  </i>
   <i type="logical" name="LELF"> F  </i>
   <i type="logical" name="LOPTICS"> F  </i>
   <v name="STM">      0.00000000      0.00000000      0.00000000      0.00000000      0.00000000      0.00000000      0.00000000</v>
  </separator>
  <separator name="performance" >
   <i type="int" name="NPAR">     1</i>
   <i type="int" name="NSIM">     4</i>
   <i type="int" name="NBLK">    -1</i>
   <i type="logical" name="LPLANE"> T  </i>
   <i type="logical" name="LSCALAPACK"> T  </i>
   <i type="logical" name="LSCAAWARE"> F  </i>
   <i type="logical" name="LSCALU"> F  </i>
   <i type="logical" name="LASYNC"> F  </i>
   <i type="logical" name="LORBITALREAL"> F  </i>
  </separator>
  <separator name="miscellaneous" >
   <i type="int" name="IDIOT">     3</i>
   <i type="int" name="PHON_NSTRUCT">    -1</i>
   <i type="logical" name="LMUSIC"> F  </i>
   <v name="POMASS">     35.45300000</v>
   <v name="DARWINR">      0.00000000</v>
   <v name="DARWINV">      1.00000000</v>
   <i type="logical" name="LCORR"> T  </i>
  </separator>
  <i type="logical" name="GGA_COMPAT"> T  </i>
  <i type="logical" name="LBERRY"> F  </i>
  <i type="int" name="ICORELEVEL">     0</i>
  <i type="logical" name="LDAU"> F  </i>
  <i type="int" name="I_CONSTRAINED_M">     0</i>
  <separator name="electronic exchange-correlation" >
   <i type="string" name="GGA    ">PS</i>
   <i type="string" name="XC_C">1</i>
   <i type="int" name="VOSKOWN">     0</i>
   <i type="logical" name="LHFCALC"> F  </i>
   <i type="string" name="PRECFOCK"></i>
   <i type="logical" name="LSYMGRAD"> F  </i>
   <i type="logical" name="LHFONE"> F  </i>
   <i type="logical" name="LRHFCALC"> F  </i>
   <i type="logical" name="LTHOMAS"> F  </i>
   <i type="logical" name="LMODELHF"> F  </i>
   <i type="logical" name="LFOCKACE"> F  </i>
   <i name="ENCUT4O">     -1.00000000</i>
   <i type="int" name="EXXOEP">     0</i>
   <i type="int" name="FOURORBIT">     0</i>
   <i name="AEXX">      0.00000000</i>
   <i name="HFALPHA">      0.00000000</i>
   <i name="MCALPHA">      0.00000000</i>
   <i name="ALDAX">      1.00000000</i>
   <i name="AGGAX">      1.00000000</i>
   <i name="AMGGAX">      1.00000000</i>
   <i name="ALDAC">      1.00000000</i>
   <i name="AGGAC">      1.00000000</i>
   <i name="AMGGAC">      1.00000000</i>
   <i type="int" name="NKREDX">     1</i>
   <i type="int" name="NKREDY">     1</i>
   <i type="int" name="NKREDZ">     1</i>
   <i type="logical" name="SHIFTRED"> F  </i>
   <i type="logical" name="ODDONLY"> F  </i>
   <i type="logical" name="EVENONLY"> F  </i>
   <i type="int" name="LMAXFOCK">     0</i>
   <i type="int" name="NMAXFOCKAE">     0</i>
   <i type="logical" name="LFOCKAEDFT"> F  </i>
   <i name="HFSCREEN">      0.00000000</i>
   <i name="HFSCREENC">      0.00000000</i>
   <i type="int" name="NBANDSGWLOW">     0</i>
  </separator>
  <separator name="vdW DFT" >
   <i type="logical" name="LUSE_VDW"> F  </i>
   <i type="int" name="IVDW_NL">    -1</i>
   <i type="logical" name="LSPIN_VDW"> F  </i>
   <i name="ZAB_VDW">     -0.84910000</i>
   <i name="GAMMA_VDW">      1.39626340</i>
   <i name="ALPHA_VDW">      0.00000000</i>
   <i name="PARAM1">      0.12340000</i>
   <i name="PARAM2">      1.00000000</i>
   <i name="BPARAM">      6.30000000</i>
   <i name="CPARAM">      0.00930000</i>
  </separator>
  <separator name="model GW" >
   <i type="int" name="MODEL_GW">     0</i>
   <i name="MODEL_EPS0">     16.90259113</i>
   <i name="MODEL_ALPHA">      1.00000000</i>
  </separator>
  <separator name="linear response parameters" >
   <i type="logical" name="LEPSILON"> F  </i>
   <i type="logical" name="LRPA"> F  </i>
   <i type="logical" name="LNABLA"> F  </i>
   <i type="logical" name="LVEL"> F  </i>
   <i name="CSHIFT">      0.10000000</i>
   <i name="OMEGAMAX">     -1.00000000</i>
   <i name="DEG_THRESHOLD">      0.00200000</i>
   <i name="RTIME">     -0.10000000</i>
   <i name="WPLASMAI">      0.00000000</i>
   <v name="DFIELD">      0.00000000      0.00000000      0.00000000</v>
   <v name="WPLASMA">      0.00000000      0.00000000      0.00000000      0.00000000      0.00000000      0.00000000      0.00000000      0.00000000      0.00000000</v>
  </separator>
  <separator name="orbital magnetization" >
   <i type="logical" name="NUCIND"> F  </i>
   <v name="MAGPOS">      0.00000000      0.00000000      0.00000000</v>
   <i type="logical" name="LNICSALL"> T  </i>
   <i type="logical" name="ORBITALMAG"> F  </i>
   <i type="logical" name="LMAGBLOCH"> F  </i>
   <i type="logical" name="LCHIMAG"> F  </i>
   <i type="logical" name="LGAUGE"> T  </i>
   <i type="int" name="MAGATOM">     0</i>
   <v name="MAGDIPOL">      0.00000000      0.00000000      0.00000000</v>
   <v name="AVECCONST">      0.00000000      0.00000000      0.00000000</v>
  </separator>
  <separator name="response functions" >
   <i type="logical" name="LALL_IN_ONE"> F  </i>
   <i type="int" name="IALL_IN_ONE">    -1</i>
   <i type="int" name="NBANDS_WAVE">    -1</i>
   <i type="logical" name="LFINITE_TEMPERATURE"> F  </i>
   <i type="logical" name="LADDER"> F  </i>
   <i type="logical" name="LRPAFORCE"> F  </i>
   <i type="logical" name="LFXC"> F  </i>
   <i type="logical" name="LHARTREE"> T  </i>
   <i type="int" name="IBSE">     2</i>
   <v type="int" name="KPOINT">    -1     0     0     0</v>
   <i type="logical" name="LTCTC"> F  </i>
   <i type="logical" name="LTCTE"> F  </i>
   <i type="logical" name="LTETE"> F  </i>
   <i type="logical" name="LTRIPLET"> F  </i>
   <i type="logical" name="LFXCEPS"> F  </i>
   <i type="logical" name="LFXHEG"> F  </i>
   <i type="int" name="NATURALO">     2</i>
   <i type="logical" name="LHOLEGF"> F  </i>
   <i type="logical" name="L2ORDER"> F  </i>
   <i type="logical" name="LDMP1"> F  </i>
   <i type="logical" name="LMP2LT"> F  </i>
   <i type="logical" name="LSMP2LT"> F  </i>
   <i type="logical" name="LGWLF"> F  </i>
   <i name="ENCUTGW">     -1.60000002</i>
   <i name="ENCUTGWSOFT">     -1.60000002</i>
   <i name="ENCUTLF">     -1.00000000</i>
   <i type="logical" name="ESF_SPLINES"> F  </i>
   <i name="ESF_CONV">      0.01000000</i>
   <i type="int" name="ESF_NINTER">    15</i>
   <i type="int" name="LMAXMP2">    -1</i>
   <i name="SCISSOR">      0.00000000</i>
   <i type="int" name="NOMEGA">     0</i>
   <i type="int" name="NOMEGAR">     0</i>
   <i type="int" name="NBANDSGW">    -1</i>
   <i type="int" name="NBANDSO">    -1</i>
   <i type="int" name="NBANDSV">    -1</i>
   <i type="int" name="NELMGW">     1</i>
   <i type="int" name="NELMHF">     1</i>
   <i type="int" name="DIM">     3</i>
   <i type="int" name="IESPILON">     4</i>
   <i type="int" name="ANTIRES">     0</i>
   <i name="OMEGAMAX">    -30.00000000</i>
   <i name="OMEGAMIN">    -30.00000000</i>
   <i name="OMEGATL">   -200.00000000</i>
   <i type="int" name="OMEGAGRID">     0</i>
   <i name="CSHIFT">     -0.10000000</i>
   <i type="logical" name="LSELFENERGY"> F  </i>
   <i type="logical" name="LSPECTRAL"> F  </i>
   <i type="logical" name="LSPECTRALGW"> F  </i>
   <i type="logical" name="LSINGLES"> F  </i>
   <i type="logical" name="LFERMIGW"> F  </i>
   <i type="logical" name="ODDONLYGW"> F  </i>
   <i type="logical" name="EVENONLYGW"> F  </i>
   <i type="int" name="NKREDLFX">     1</i>
   <i type="int" name="NKREDLFY">     1</i>
   <i type="int" name="NKREDLFZ">     1</i>
   <i type="int" name="MAXMEM">  2800</i>
   <i type="int" name="TELESCOPE">     0</i>
   <i type="int" name="NTAUPAR">    -1</i>
   <i type="int" name="NOMEGAPAR">    -1</i>
   <i name="DAMP_NEWTON">      0.80000001</i>
   <i name="LAMBDA">      1.00000000</i>
  </separator>
  <separator name="External order field" >
   <i name="OFIELD_KAPPA">      0.00000000</i>
   <v name="OFIELD_K">      0.00000000      0.00000000      0.00000000</v>
   <i name="OFIELD_Q6_NEAR">      0.00000000</i>
   <i name="OFIELD_Q6_FAR">      0.00000000</i>
   <i name="OFIELD_A">      0.00000000</i>
  </separator>
  <separator name="optional k-points parameters" >
   <i type="int" name="KPOINTS_OPT_MODE">     1</i>
   <i type="logical" name="LKPOINTS_OPT"> F  </i>
  </separator>
 </parameters>
 <atominfo>
  <atoms>       4 </atoms>
  <types>       1 </types>
  <array name="atoms" >
   <dimension dim="1">ion</dimension>
   <field type="string">element</field>
   <field type="int">atomtype</field>
   <set>
    <rc><c>Cl</c><c>   1</c></rc>
    <rc><c>Cl</c><c>   1</c></rc>
    <rc><c>Cl</c><c>   1</c></rc>
    <rc><c>Cl</c><c>   1</c></rc>
   </set>
  </array>
  <array name="atomtypes" >
   <dimension dim="1">type</dimension>
   <field type="int">atomspertype</field>
   <field type="string">element</field>
   <field>mass</field>
   <field>valence</field>
   <field type="string">pseudopotential</field>
   <set>
    <rc><c>   4</c><c>Cl</c><c>     35.45300000</c><c>      7.00000000</c><c>  PAW_PBE Cl 06Sep2000                  </c></rc>
   </set>
  </array>
 </atominfo>
 <structure name="initialpos" >
  <crystal>
   <varray name="basis" >
    <v>       3.31107558      -2.01342905       0.00000000 </v>
    <v>       3.31107558       2.01342905       0.00000000 </v>
    <v>       0.00000000       0.00000000       8.45136010 </v>
   </varray>
   <i name="volume">    112.68394086 </i>
   <varray name="rec_basis" >
    <v>       0.15100833      -0.24833256       0.00000000 </v>
    <v>       0.15100833       0.24833256      -0.00000000 </v>
    <v>      -0.00000000       0.00000000       0.11832415 </v>
   </varray>
  </crystal>
  <varray name="positions" >
   <v>       0.38806571       0.61193429       0.10551543 </v>
   <v>       0.61193429       0.38806571       0.89448457 </v>
   <v>       0.11193429       0.88806571       0.60551543 </v>
   <v>       0.88806571       0.11193429       0.39448457 </v>
  </varray>
 </structure>
 <calculation>
  <scstep>
   <time name="dav">    0.32    1.05</time>
   <time name="total">    0.40    1.12</time>
   <energy>
    <i name="alphaZ">     29.98828012 </i>
    <i name="ewald">  -1242.59028332 </i>
    <i name="hartreedc">   -340.13097772 </i>
    <i name="XCdc">     81.00355656 </i>
    <i name="pawpsdc">   1300.36435954 </i>
    <i name="pawaedc">  -1299.59849449 </i>
    <i name="eentropy">      0.00000000 </i>
    <i name="bandstr">     24.09616906 </i>
    <i name="atom">   1634.92028419 </i>
    <i name="e_fr_energy">    188.05289396 </i>
    <i name="e_wo_entrp">    188.05289396 </i>
    <i name="e_0_energy">    188.05289396 </i>
   </energy>
  </scstep>
  <scstep>
   <time name="dav">    0.10    0.10</time>
   <time name="total">    0.10    0.10</time>
   <energy>
    <i name="e_fr_energy">      4.38838437 </i>
    <i name="e_wo_entrp">      4.38838437 </i>
    <i name="e_0_energy">      4.38838437 </i>
   </energy>
  </scstep>
  <scstep>
   <time name="dav">    0.09    0.09</time>
   <time name="total">    0.10    0.10</time>
   <energy>
    <i name="e_fr_energy">     -8.35610170 </i>
    <i name="e_wo_entrp">     -8.35610170 </i>
    <i name="e_0_energy">     -8.35610170 </i>
   </energy>
  </scstep>
  <scstep>
   <time name="dav">    0.09    0.09</time>
   <time name="total">    0.09    0.09</time>
   <energy>
    <i name="e_fr_energy">     -8.50893949 </i>
    <i name="e_wo_entrp">     -8.50893949 </i>
    <i name="e_0_energy">     -8.50893949 </i>
   </energy>
  </scstep>
  <scstep>
   <time name="dav">    0.09    0.09</time>
   <time name="total">    0.28    0.30</time>
   <energy>
    <i name="e_fr_energy">     -8.51153473 </i>
    <i name="e_wo_entrp">     -8.51153473 </i>
    <i name="e_0_energy">     -8.51153473 </i>
   </energy>
  </scstep>
  <scstep>
   <time name="dav">    0.08    0.08</time>
   <time name="total">    0.14    0.15</time>
   <energy>
    <i name="e_fr_energy">     -8.15453471 </i>
    <i name="e_wo_entrp">     -8.15453471 </i>
    <i name="e_0_energy">     -8.15453471 </i>
   </energy>
  </scstep>
  <scstep>
   <time name="dav">    0.09    0.09</time>
   <time name="total">    0.15    0.20</time>
   <energy>
    <i name="e_fr_energy">     -8.04442066 </i>
    <i name="e_wo_entrp">     -8.04442066 </i>
    <i name="e_0_energy">     -8.04442066 </i>
   </energy>
  </scstep>
  <scstep>
   <time name="dav">    0.08    0.08</time>
   <time name="total">    0.16    0.16</time>
   <energy>
    <i name="e_fr_energy">     -8.03009982 </i>
    <i name="e_wo_entrp">     -8.03009982 </i>
    <i name="e_0_energy">     -8.03009982 </i>
   </energy>
  </scstep>
  <scstep>
   <time name="dav">    0.09    0.09</time>
   <time name="total">    0.15    0.15</time>
   <energy>
    <i name="e_fr_energy">     -8.03025626 </i>
    <i name="e_wo_entrp">     -8.03025626 </i>
    <i name="e_0_energy">     -8.03025626 </i>
   </energy>
  </scstep>
  <scstep>
   <time name="dav">    0.10    0.10</time>
   <time name="total">    0.16    0.16</time>
   <energy>
    <i name="e_fr_energy">     -8.03032649 </i>
    <i name="e_wo_entrp">     -8.03032649 </i>
    <i name="e_0_energy">     -8.03032649 </i>
   </energy>
  </scstep>
  <scstep>
   <time name="dav">    0.08    0.08</time>
   <time name="total">    0.14    0.14</time>
   <energy>
    <i name="e_fr_energy">     -8.03033143 </i>
    <i name="e_wo_entrp">     -8.03033143 </i>
    <i name="e_0_energy">     -8.03033143 </i>
   </energy>
  </scstep>
  <scstep>
   <time name="dav">    0.08    0.08</time>
   <time name="total">    0.14    0.14</time>
   <energy>
    <i name="e_fr_energy">     -8.03033148 </i>
    <i name="e_wo_entrp">     -8.03033148 </i>
    <i name="e_0_energy">     -8.03033148 </i>
   </energy>
  </scstep>
  <scstep>
   <time name="dav">    0.09    0.09</time>
   <time name="total">    0.15    0.15</time>
   <energy>
    <i name="e_fr_energy">     -8.03033187 </i>
    <i name="e_wo_entrp">     -8.03033187 </i>
    <i name="e_0_energy">     -8.03033187 </i>
   </energy>
  </scstep>
  <scstep>
   <time name="dav">    0.06    0.06</time>
   <time name="total">    0.10    0.11</time>
   <energy>
    <i name="alphaZ">     29.98828012 </i>
    <i name="ewald">  -1242.59028332 </i>
    <i name="hartreedc">   -337.77541158 </i>
    <i name="XCdc">     81.12329775 </i>
    <i name="pawpsdc">   2224.91325584 </i>
    <i name="pawaedc">  -2224.21577647 </i>
    <i name="eentropy">      0.00000000 </i>
    <i name="bandstr">   -174.39397842 </i>
    <i name="atom">   1634.92028419 </i>
    <i name="e_fr_energy">     -8.03033188 </i>
    <i name="e_wo_entrp">     -8.03033188 </i>
    <i name="e_0_energy">     -8.03033188 </i>
   </energy>
  </scstep>
  <structure>
   <crystal>
    <varray name="basis" >
     <v>       3.31107558      -2.01342905       0.00000000 </v>
     <v>       3.31107558       2.01342905       0.00000000 </v>
     <v>       0.00000000       0.00000000       8.45136010 </v>
    </varray>
    <i name="volume">    112.68394086 </i>
    <varray name="rec_basis" >
     <v>       0.15100833      -0.24833256       0.00000000 </v>
     <v>       0.15100833       0.24833256      -0.00000000 </v>
     <v>      -0.00000000       0.00000000       0.11832415 </v>
    </varray>
   </crystal>
   <varray name="positions" >
    <v>       0.38806571       0.61193429       0.10551543 </v>
    <v>       0.61193429       0.38806571       0.89448457 </v>
    <v>       0.11193429       0.88806571       0.60551543 </v>
    <v>       0.88806571       0.11193429       0.39448457 </v>
   </varray>
  </structure>
  <varray name="forces" >
   <v>       0.00000000       0.05208571       0.14197242 </v>
   <v>       0.00000000      -0.05208571      -0.14197242 </v>
   <v>       0.00000000      -0.05208571       0.14197242 </v>
   <v>       0.00000000       0.05208571      -0.14197242 </v>
  </varray>
  <varray name="stress" >
   <v>       0.99065937       0.00000000       0.00000000 </v>
   <v>       0.00000000      -3.58721867       0.00000000 </v>
   <v>       0.00000000       0.00000000      -6.24827084 </v>
  </varray>
  <energy>
   <i name="e_fr_energy">     -8.03033188 </i>
   <i name="e_wo_entrp">     -8.03033188 </i>
   <i name="e_0_energy">     -8.03033188 </i>
  </energy>
  <time name="totalsc">    2.64    3.46</time>
 </calculation>
 <calculation>
  <scstep>
   <time name="dav">    0.08    0.08</time>
   <time name="total">    0.14    0.14</time>
   <energy>
    <i name="alphaZ">     30.21469320 </i>
    <i name="ewald">  -1247.28028282 </i>
    <i name="hartreedc">   -336.86237595 </i>
    <i name="XCdc">     81.25575293 </i>
    <i name="pawpsdc">   2224.86996701 </i>
    <i name="pawaedc">  -2224.17252803 </i>
    <i name="eentropy">      0.00000000 </i>
    <i name="bandstr">   -170.99047572 </i>
    <i name="atom">   1634.92028419 </i>
    <i name="e_fr_energy">     -8.04496518 </i>
    <i name="e_wo_entrp">     -8.04496518 </i>
    <i name="e_0_energy">     -8.04496518 </i>
   </energy>
  </scstep>
  <scstep>
   <time name="dav">    0.08    0.08</time>
   <time name="total">    0.14    0.14</time>
   <energy>
    <i name="e_fr_energy">     -8.03942169 </i>
    <i name="e_wo_entrp">     -8.03942169 </i>
    <i name="e_0_energy">     -8.03942169 </i>
   </energy>
  </scstep>
  <scstep>
   <time name="dav">    0.08    0.08</time>
   <time name="total">    0.14    0.14</time>
   <energy>
    <i name="e_fr_energy">     -8.03763650 </i>
    <i name="e_wo_entrp">     -8.03763650 </i>
    <i name="e_0_energy">     -8.03763650 </i>
   </energy>
  </scstep>
  <scstep>
   <time name="dav">    0.09    0.09</time>
   <time name="total">    0.15    0.15</time>
   <energy>
    <i name="e_fr_energy">     -8.03747754 </i>
    <i name="e_wo_entrp">     -8.03747754 </i>
    <i name="e_0_energy">     -8.03747754 </i>
   </energy>
  </scstep>
  <scstep>
   <time name="dav">    0.08    0.08</time>
   <time name="total">    0.14    0.14</time>
   <energy>
    <i name="e_fr_energy">     -8.03746562 </i>
    <i name="e_wo_entrp">     -8.03746562 </i>
    <i name="e_0_energy">     -8.03746562 </i>
   </energy>
  </scstep>
  <scstep>
   <time name="dav">    0.08    0.08</time>
   <time name="total">    0.14    0.14</time>
   <energy>
    <i name="e_fr_energy">     -8.03746516 </i>
    <i name="e_wo_entrp">     -8.03746516 </i>
    <i name="e_0_energy">     -8.03746516 </i>
   </energy>
  </scstep>
  <scstep>
   <time name="dav">    0.09    0.09</time>
   <time name="total">    0.15    0.15</time>
   <energy>
    <i name="e_fr_energy">     -8.03746517 </i>
    <i name="e_wo_entrp">     -8.03746517 </i>
    <i name="e_0_energy">     -8.03746517 </i>
   </energy>
  </scstep>
  <scstep>
   <time name="dav">    0.06    0.06</time>
   <time name="total">    0.11    0.11</time>
   <energy>
    <i name="alphaZ">     30.21469320 </i>
    <i name="ewald">  -1247.28028282 </i>
    <i name="hartreedc">   -334.78815381 </i>
    <i name="XCdc">     81.11998170 </i>
    <i name="pawpsdc">   2219.99761381 </i>
    <i name="pawaedc">  -2219.29071078 </i>
    <i name="eentropy">      0.00000000 </i>
    <i name="bandstr">   -172.93089070 </i>
    <i name="atom">   1634.92028419 </i>
    <i name="e_fr_energy">     -8.03746521 </i>
    <i name="e_wo_entrp">     -8.03746521 </i>
    <i name="e_0_energy">     -8.03746521 </i>
   </energy>
  </scstep>
  <structure>
   <crystal>
    <varray name="basis" >
     <v>       3.31385796      -2.00730249       0.00000000 </v>
     <v>       3.31385796       2.00730249       0.00000000 </v>
     <v>       0.00000000       0.00000000       8.40656721 </v>
    </varray>
    <i name="volume">    111.83954647 </i>
    <varray name="rec_basis" >
     <v>       0.15088154      -0.24909051       0.00000000 </v>
     <v>       0.15088154       0.24909051      -0.00000000 </v>
     <v>      -0.00000000       0.00000000       0.11895462 </v>
    </varray>
   </crystal>
   <varray name="positions" >
    <v>       0.38744171       0.61255829       0.10632585 </v>
    <v>       0.61255829       0.38744171       0.89367415 </v>
    <v>       0.11255829       0.88744171       0.60632585 </v>
    <v>       0.88744171       0.11255829       0.39367415 </v>
   </varray>
  </structure>
  <varray name="forces" >
   <v>       0.00000000       0.03112974       0.08873643 </v>
   <v>       0.00000000      -0.03112974      -0.08873643 </v>
   <v>       0.00000000      -0.03112974       0.08873643 </v>
   <v>       0.00000000       0.03112974      -0.08873643 </v>
  </varray>
  <varray name="stress" >
   <v>       1.08692357       0.00000000       0.00000000 </v>
   <v>       0.00000000      -4.16336062       0.00000000 </v>
   <v>       0.00000000       0.00000000      -8.19706415 </v>
  </varray>
  <energy>
   <i name="e_fr_energy">     -8.03746521 </i>
   <i name="e_wo_entrp">     -8.03746521 </i>
   <i name="e_0_energy">     -8.03746521 </i>
  </energy>
  <time name="totalsc">    1.48    1.49</time>
 </calculation>
 <calculation>
  <scstep>
   <time name="dav">    0.08    0.08</time>
   <time name="total">    0.14    0.14</time>
   <energy>
    <i name="alphaZ">     30.91140890 </i>
    <i name="ewald">  -1260.94033271 </i>
    <i name="hartreedc">   -332.47551633 </i>
    <i name="XCdc">     81.53169899 </i>
    <i name="pawpsdc">   2220.09615096 </i>
    <i name="pawaedc">  -2219.38914083 </i>
    <i name="eentropy">      0.00000000 </i>
    <i name="bandstr">   -162.77713718 </i>
    <i name="atom">   1634.92028419 </i>
    <i name="e_fr_energy">     -8.12258400 </i>
    <i name="e_wo_entrp">     -8.12258400 </i>
    <i name="e_0_energy">     -8.12258400 </i>
   </energy>
  </scstep>
  <scstep>
   <time name="dav">    0.08    0.08</time>
   <time name="total">    0.14    0.14</time>
   <energy>
    <i name="e_fr_energy">     -8.07138444 </i>
    <i name="e_wo_entrp">     -8.07138444 </i>
    <i name="e_0_energy">     -8.07138444 </i>
   </energy>
  </scstep>
  <scstep>
   <time name="dav">    0.08    0.08</time>
   <time name="total">    0.14    0.14</time>
   <energy>
    <i name="e_fr_energy">     -8.05561492 </i>
    <i name="e_wo_entrp">     -8.05561492 </i>
    <i name="e_0_energy">     -8.05561492 </i>
   </energy>
  </scstep>
  <scstep>
   <time name="dav">    0.09    0.09</time>
   <time name="total">    0.15    0.15</time>
   <energy>
    <i name="e_fr_energy">     -8.05399001 </i>
    <i name="e_wo_entrp">     -8.05399001 </i>
    <i name="e_0_energy">     -8.05399001 </i>
   </energy>
  </scstep>
  <scstep>
   <time name="dav">    0.09    0.09</time>
   <time name="total">    0.15    0.15</time>
   <energy>
    <i name="e_fr_energy">     -8.05380923 </i>
    <i name="e_wo_entrp">     -8.05380923 </i>
    <i name="e_0_energy">     -8.05380923 </i>
   </energy>
  </scstep>
  <scstep>
   <time name="dav">    0.08    0.08</time>
   <time name="total">    0.14    0.14</time>
   <energy>
    <i name="e_fr_energy">     -8.05380624 </i>
    <i name="e_wo_entrp">     -8.05380624 </i>
    <i name="e_0_energy">     -8.05380624 </i>
   </energy>
  </scstep>
  <scstep>
   <time name="dav">    0.09    0.09</time>
   <time name="total">    0.15    0.15</time>
   <energy>
    <i name="e_fr_energy">     -8.05380707 </i>
    <i name="e_wo_entrp">     -8.05380707 </i>
    <i name="e_0_energy">     -8.05380707 </i>
   </energy>
  </scstep>
  <scstep>
   <time name="dav">    0.08    0.08</time>
   <time name="total">    0.14    0.14</time>
   <energy>
    <i name="e_fr_energy">     -8.05380722 </i>
    <i name="e_wo_entrp">     -8.05380722 </i>
    <i name="e_0_energy">     -8.05380722 </i>
   </energy>
  </scstep>
  <scstep>
   <time name="dav">    0.07    0.07</time>
   <time name="total">    0.11    0.11</time>
   <energy>
    <i name="alphaZ">     30.91140890 </i>
    <i name="ewald">  -1260.94033271 </i>
    <i name="hartreedc">   -326.34807664 </i>
    <i name="XCdc">     81.12444065 </i>
    <i name="pawpsdc">   2212.02608803 </i>
    <i name="pawaedc">  -2211.29172521 </i>
    <i name="eentropy">      0.00000000 </i>
    <i name="bandstr">   -168.45589447 </i>
    <i name="atom">   1634.92028419 </i>
    <i name="e_fr_energy">     -8.05380725 </i>
    <i name="e_wo_entrp">     -8.05380725 </i>
    <i name="e_0_energy">     -8.05380725 </i>
   </energy>
  </scstep>
  <structure>
   <crystal>
    <varray name="basis" >
     <v>       3.32220509      -1.98892280       0.00000000 </v>
     <v>       3.32220509       1.98892280       0.00000000 </v>
     <v>       0.00000000       0.00000000       8.27218853 </v>
    </varray>
    <i name="volume">    109.31878241 </i>
    <varray name="rec_basis" >
     <v>       0.15050245      -0.25139236       0.00000000 </v>
     <v>       0.15050245       0.25139236      -0.00000000 </v>
     <v>      -0.00000000       0.00000000       0.12088699 </v>
    </varray>
   </crystal>
   <varray name="positions" >
    <v>       0.38556400       0.61443600       0.10877005 </v>
    <v>       0.61443600       0.38556400       0.89122995 </v>
    <v>       0.11443600       0.88556400       0.60877005 </v>
    <v>       0.88556400       0.11443600       0.39122995 </v>
   </varray>
  </structure>
  <varray name="forces" >
   <v>       0.00000000      -0.01448854      -0.05116749 </v>
   <v>       0.00000000       0.01448854       0.05116749 </v>
   <v>       0.00000000       0.01448854      -0.05116749 </v>
   <v>       0.00000000      -0.01448854       0.05116749 </v>
  </varray>
  <varray name="stress" >
   <v>       1.31012457       0.00000000       0.00000000 </v>
   <v>       0.00000000      -5.25176040       0.00000000 </v>
   <v>       0.00000000      -0.00000000     -11.95589855 </v>
  </varray>
  <energy>
   <i name="e_fr_energy">     -8.05380725 </i>
   <i name="e_wo_entrp">     -8.05380725 </i>
   <i name="e_0_energy">     -8.05380725 </i>
  </energy>
  <time name="totalsc">    1.63    1.64</time>
 </calculation>
 <calculation>
  <scstep>
   <time name="dav">    0.08    0.08</time>
   <time name="total">    0.14    0.14</time>
   <energy>
    <i name="alphaZ">     32.38827915 </i>
    <i name="ewald">  -1286.49137731 </i>
    <i name="hartreedc">   -323.57462319 </i>
    <i name="XCdc">     82.01176084 </i>
    <i name="pawpsdc">   2212.06402736 </i>
    <i name="pawaedc">  -2211.32964876 </i>
    <i name="eentropy">      0.00000000 </i>
    <i name="bandstr">   -148.32617739 </i>
    <i name="atom">   1634.92028419 </i>
    <i name="e_fr_energy">     -8.33747512 </i>
    <i name="e_wo_entrp">     -8.33747512 </i>
    <i name="e_0_energy">     -8.33747512 </i>
   </energy>
  </scstep>
  <scstep>
   <time name="dav">    0.08    0.08</time>
   <time name="total">    0.14    0.14</time>
   <energy>
    <i name="e_fr_energy">     -8.12702081 </i>
    <i name="e_wo_entrp">     -8.12702081 </i>
    <i name="e_0_energy">     -8.12702081 </i>
   </energy>
  </scstep>
  <scstep>
   <time name="dav">    0.08    0.08</time>
   <time name="total">    0.14    0.14</time>
   <energy>
    <i name="e_fr_energy">     -8.06472568 </i>
    <i name="e_wo_entrp">     -8.06472568 </i>
    <i name="e_0_energy">     -8.06472568 </i>
   </energy>
  </scstep>
  <scstep>
   <time name="dav">    0.09    0.09</time>
   <time name="total">    0.15    0.15</time>
   <energy>
    <i name="e_fr_energy">     -8.05738269 </i>
    <i name="e_wo_entrp">     -8.05738269 </i>
    <i name="e_0_energy">     -8.05738269 </i>
   </energy>
  </scstep>
  <scstep>
   <time name="dav">    0.09    0.09</time>
   <time name="total">    0.15    0.15</time>
   <energy>
    <i name="e_fr_energy">     -8.05656214 </i>
    <i name="e_wo_entrp">     -8.05656214 </i>
    <i name="e_0_energy">     -8.05656214 </i>
   </energy>
  </scstep>
  <scstep>
   <time name="dav">    0.08    0.08</time>
   <time name="total">    0.14    0.14</time>
   <energy>
    <i name="e_fr_energy">     -8.05655981 </i>
    <i name="e_wo_entrp">     -8.05655981 </i>
    <i name="e_0_energy">     -8.05655981 </i>
   </energy>
  </scstep>
  <scstep>
   <time name="dav">    0.09    0.09</time>
   <time name="total">    0.15    0.15</time>
   <energy>
    <i name="e_fr_energy">     -8.05656236 </i>
    <i name="e_wo_entrp">     -8.05656236 </i>
    <i name="e_0_energy">     -8.05656236 </i>
   </energy>
  </scstep>
  <scstep>
   <time name="dav">    0.08    0.08</time>
   <time name="total">    0.14    0.14</time>
   <energy>
    <i name="e_fr_energy">     -8.05656203 </i>
    <i name="e_wo_entrp">     -8.05656203 </i>
    <i name="e_0_energy">     -8.05656203 </i>
   </energy>
  </scstep>
  <scstep>
   <time name="dav">    0.09    0.09</time>
   <time name="total">    0.15    0.15</time>
   <energy>
    <i name="e_fr_energy">     -8.05656220 </i>
    <i name="e_wo_entrp">     -8.05656220 </i>
    <i name="e_0_energy">     -8.05656220 </i>
   </energy>
  </scstep>
  <scstep>
   <time name="dav">    0.06    0.06</time>
   <time name="total">    0.11    0.11</time>
   <energy>
    <i name="alphaZ">     32.38827915 </i>
    <i name="ewald">  -1286.49137731 </i>
    <i name="hartreedc">   -311.78409693 </i>
    <i name="XCdc">     81.20263036 </i>
    <i name="pawpsdc">   2224.89062788 </i>
    <i name="pawaedc">  -2224.10760465 </i>
    <i name="eentropy">      0.00000000 </i>
    <i name="bandstr">   -159.07530491 </i>
    <i name="atom">   1634.92028419 </i>
    <i name="e_fr_energy">     -8.05656222 </i>
    <i name="e_wo_entrp">     -8.05656222 </i>
    <i name="e_0_energy">     -8.05656222 </i>
   </energy>
  </scstep>
  <structure>
   <crystal>
    <varray name="basis" >
     <v>       3.33889936      -1.95216343       0.00000000 </v>
     <v>       3.33889936       1.95216343       0.00000000 </v>
     <v>       0.00000000       0.00000000       8.00343118 </v>
    </varray>
    <i name="volume">    104.33396504 </i>
    <varray name="rec_basis" >
     <v>       0.14974995      -0.25612610       0.00000000 </v>
     <v>       0.14974995       0.25612610      -0.00000000 </v>
     <v>      -0.00000000       0.00000000       0.12494641 </v>
    </varray>
   </crystal>
   <varray name="positions" >
    <v>       0.38177388       0.61822612       0.11373787 </v>
    <v>       0.61822612       0.38177388       0.88626213 </v>
    <v>       0.11822612       0.88177388       0.61373787 </v>
    <v>       0.88177388       0.11822612       0.38626213 </v>
   </varray>
  </structure>
  <varray name="forces" >
   <v>       0.00000000      -0.03610193      -0.28389159 </v>
   <v>       0.00000000       0.03610193       0.28389159 </v>
   <v>       0.00000000       0.03610193      -0.28389159 </v>
   <v>       0.00000000      -0.03610193       0.28389159 </v>
  </varray>
  <varray name="stress" >
   <v>       1.72012698       0.00000000       0.00000000 </v>
   <v>       0.00000000      -3.25036167      -0.00000000 </v>
   <v>       0.00000000       0.00000000      -8.95270822 </v>
  </varray>
  <energy>
   <i name="e_fr_energy">     -8.05656222 </i>
   <i name="e_wo_entrp">     -8.05656222 </i>
   <i name="e_0_energy">     -8.05656222 </i>
  </energy>
  <time name="totalsc">    1.79    1.79</time>
 </calculation>
 <calculation>
  <scstep>
   <time name="dav">    0.08    0.08</time>
   <time name="total">    0.14    0.14</time>
   <energy>
    <i name="alphaZ">     31.60231720 </i>
    <i name="ewald">  -1273.23883614 </i>
    <i name="hartreedc">   -313.02236381 </i>
    <i name="XCdc">     80.73594406 </i>
    <i name="pawpsdc">   2224.85770407 </i>
    <i name="pawaedc">  -2224.07472119 </i>
    <i name="eentropy">      0.00000000 </i>
    <i name="bandstr">   -169.91580050 </i>
    <i name="atom">   1634.92028419 </i>
    <i name="e_fr_energy">     -8.13547211 </i>
    <i name="e_wo_entrp">     -8.13547211 </i>
    <i name="e_0_energy">     -8.13547211 </i>
   </energy>
  </scstep>
  <scstep>
   <time name="dav">    0.08    0.09</time>
   <time name="total">    0.14    0.15</time>
   <energy>
    <i name="e_fr_energy">     -8.08310225 </i>
    <i name="e_wo_entrp">     -8.08310225 </i>
    <i name="e_0_energy">     -8.08310225 </i>
   </energy>
  </scstep>
  <scstep>
   <time name="dav">    0.08    0.08</time>
   <time name="total">    0.14    0.14</time>
   <energy>
    <i name="e_fr_energy">     -8.06287808 </i>
    <i name="e_wo_entrp">     -8.06287808 </i>
    <i name="e_0_energy">     -8.06287808 </i>
   </energy>
  </scstep>
  <scstep>
   <time name="dav">    0.09    0.09</time>
   <time name="total">    0.15    0.15</time>
   <energy>
    <i name="e_fr_energy">     -8.06177788 </i>
    <i name="e_wo_entrp">     -8.06177788 </i>
    <i name="e_0_energy">     -8.06177788 </i>
   </energy>
  </scstep>
  <scstep>
   <time name="dav">    0.09    0.09</time>
   <time name="total">    0.14    0.15</time>
   <energy>
    <i name="e_fr_energy">     -8.06142911 </i>
    <i name="e_wo_entrp">     -8.06142911 </i>
    <i name="e_0_energy">     -8.06142911 </i>
   </energy>
  </scstep>
  <scstep>
   <time name="dav">    0.08    0.08</time>
   <time name="total">    0.14    0.14</time>
   <energy>
    <i name="e_fr_energy">     -8.06142314 </i>
    <i name="e_wo_entrp">     -8.06142314 </i>
    <i name="e_0_energy">     -8.06142314 </i>
   </energy>
  </scstep>
  <scstep>
   <time name="dav">    0.09    0.09</time>
   <time name="total">    0.15    0.15</time>
   <energy>
    <i name="e_fr_energy">     -8.06142520 </i>
    <i name="e_wo_entrp">     -8.06142520 </i>
    <i name="e_0_energy">     -8.06142520 </i>
   </energy>
  </scstep>
  <scstep>
   <time name="dav">    0.08    0.08</time>
   <time name="total">    0.14    0.14</time>
   <energy>
    <i name="e_fr_energy">     -8.06142591 </i>
    <i name="e_wo_entrp">     -8.06142591 </i>
    <i name="e_0_energy">     -8.06142591 </i>
   </energy>
  </scstep>
  <scstep>
   <time name="dav">    0.06    0.06</time>
   <time name="total">    0.12    0.12</time>
   <energy>
    <i name="e_fr_energy">     -8.06142606 </i>
    <i name="e_wo_entrp">     -8.06142606 </i>
    <i name="e_0_energy">     -8.06142606 </i>
   </energy>
  </scstep>
  <scstep>
   <time name="dav">    0.06    0.06</time>
   <time name="total">    0.10    0.10</time>
   <energy>
    <i name="alphaZ">     31.60231720 </i>
    <i name="ewald">  -1273.23883614 </i>
    <i name="hartreedc">   -319.17430539 </i>
    <i name="XCdc">     81.15558238 </i>
    <i name="pawpsdc">   2215.76927785 </i>
    <i name="pawaedc">  -2215.01232405 </i>
    <i name="eentropy">      0.00000000 </i>
    <i name="bandstr">   -164.08342213 </i>
    <i name="atom">   1634.92028419 </i>
    <i name="e_fr_energy">     -8.06142607 </i>
    <i name="e_wo_entrp">     -8.06142607 </i>
    <i name="e_0_energy">     -8.06142607 </i>
   </energy>
  </scstep>
  <structure>
   <crystal>
    <varray name="basis" >
     <v>       3.33017737      -1.97136852       0.00000000 </v>
     <v>       3.33017737       1.97136852       0.00000000 </v>
     <v>       0.00000000       0.00000000       8.14384463 </v>
    </varray>
    <i name="volume">    106.92879140 </i>
    <varray name="rec_basis" >
     <v>       0.15014215      -0.25363091       0.00000000 </v>
     <v>       0.15014215       0.25363091      -0.00000000 </v>
     <v>      -0.00000000       0.00000000       0.12279213 </v>
    </varray>
   </crystal>
   <varray name="positions" >
    <v>       0.38379133       0.61620867       0.11105526 </v>
    <v>       0.61620867       0.38379133       0.88894474 </v>
    <v>       0.11620867       0.88379133       0.61105526 </v>
    <v>       0.88379133       0.11620867       0.38894474 </v>
   </varray>
  </structure>
  <varray name="forces" >
   <v>       0.00000000      -0.02969845      -0.15305412 </v>
   <v>       0.00000000       0.02969845       0.15305412 </v>
   <v>       0.00000000       0.02969845      -0.15305412 </v>
   <v>       0.00000000      -0.02969845       0.15305412 </v>
  </varray>
  <varray name="stress" >
   <v>       1.47995518       0.00000000       0.00000000 </v>
   <v>       0.00000000      -4.89849501      -0.00000000 </v>
   <v>       0.00000000       0.00000000     -11.58960018 </v>
  </varray>
  <energy>
   <i name="e_fr_energy">     -8.06142607 </i>
   <i name="e_wo_entrp">     -8.06142607 </i>
   <i name="e_0_energy">     -8.06142607 </i>
  </energy>
  <time name="totalsc">    1.75    1.76</time>
 </calculation>
 <calculation>
  <scstep>
   <time name="dav">    0.08    0.08</time>
   <time name="total">    0.14    0.14</time>
   <energy>
    <i name="alphaZ">     31.95425602 </i>
    <i name="ewald">  -1276.56228463 </i>
    <i name="hartreedc">   -320.60869675 </i>
    <i name="XCdc">     81.43100025 </i>
    <i name="pawpsdc">   2215.77963636 </i>
    <i name="pawaedc">  -2215.02268226 </i>
    <i name="eentropy">      0.00000000 </i>
    <i name="bandstr">   -159.97361584 </i>
    <i name="atom">   1634.92028419 </i>
    <i name="e_fr_energy">     -8.08210266 </i>
    <i name="e_wo_entrp">     -8.08210266 </i>
    <i name="e_0_energy">     -8.08210266 </i>
   </energy>
  </scstep>
  <scstep>
   <time name="dav">    0.08    0.08</time>
   <time name="total">    0.14    0.14</time>
   <energy>
    <i name="e_fr_energy">     -8.06878828 </i>
    <i name="e_wo_entrp">     -8.06878828 </i>
    <i name="e_0_energy">     -8.06878828 </i>
   </energy>
  </scstep>
  <scstep>
   <time name="dav">    0.08    0.08</time>
   <time name="total">    0.14    0.14</time>
   <energy>
    <i name="e_fr_energy">     -8.06497656 </i>
    <i name="e_wo_entrp">     -8.06497656 </i>
    <i name="e_0_energy">     -8.06497656 </i>
   </energy>
  </scstep>
  <scstep>
   <time name="dav">    0.10    0.10</time>
   <time name="total">    0.16    0.16</time>
   <energy>
    <i name="e_fr_energy">     -8.06483468 </i>
    <i name="e_wo_entrp">     -8.06483468 </i>
    <i name="e_0_energy">     -8.06483468 </i>
   </energy>
  </scstep>
  <scstep>
   <time name="dav">    0.08    0.08</time>
   <time name="total">    0.14    0.14</time>
   <energy>
    <i name="e_fr_energy">     -8.06477143 </i>
    <i name="e_wo_entrp">     -8.06477143 </i>
    <i name="e_0_energy">     -8.06477143 </i>
   </energy>
  </scstep>
  <scstep>
   <time name="dav">    0.09    0.09</time>
   <time name="total">    0.15    0.15</time>
   <energy>
    <i name="e_fr_energy">     -8.06477597 </i>
    <i name="e_wo_entrp">     -8.06477597 </i>
    <i name="e_0_energy">     -8.06477597 </i>
   </energy>
  </scstep>
  <scstep>
   <time name="dav">    0.08    0.08</time>
   <time name="total">    0.14    0.14</time>
   <energy>
    <i name="e_fr_energy">     -8.06477534 </i>
    <i name="e_wo_entrp">     -8.06477534 </i>
    <i name="e_0_energy">     -8.06477534 </i>
   </energy>
  </scstep>
  <scstep>
   <time name="dav">    0.08    0.08</time>
   <time name="total">    0.14    0.14</time>
   <energy>
    <i name="e_fr_energy">     -8.06477568 </i>
    <i name="e_wo_entrp">     -8.06477568 </i>
    <i name="e_0_energy">     -8.06477568 </i>
   </energy>
  </scstep>
  <scstep>
   <time name="dav">    0.06    0.06</time>
   <time name="total">    0.11    0.11</time>
   <energy>
    <i name="alphaZ">     31.95425602 </i>
    <i name="ewald">  -1276.56228463 </i>
    <i name="hartreedc">   -318.07494096 </i>
    <i name="XCdc">     81.25543925 </i>
    <i name="pawpsdc">   2256.60802310 </i>
    <i name="pawaedc">  -2255.86276371 </i>
    <i name="eentropy">      0.00000000 </i>
    <i name="bandstr">   -162.30278897 </i>
    <i name="atom">   1634.92028419 </i>
    <i name="e_fr_energy">     -8.06477571 </i>
    <i name="e_wo_entrp">     -8.06477571 </i>
    <i name="e_0_energy">     -8.06477571 </i>
   </energy>
  </scstep>
  <structure>
   <crystal>
    <varray name="basis" >
     <v>       3.33405080      -1.96339335       0.00000000 </v>
     <v>       3.33405080       1.96339335      -0.00000000 </v>
     <v>       0.00000000       0.00000000       8.07746996 </v>
    </varray>
    <i name="volume">    105.75109562 </i>
    <varray name="rec_basis" >
     <v>       0.14996772      -0.25466115       0.00000000 </v>
     <v>       0.14996772       0.25466115      -0.00000000 </v>
     <v>       0.00000000       0.00000000       0.12380114 </v>
    </varray>
   </crystal>
   <varray name="positions" >
    <v>       0.38347741       0.61652259       0.11127795 </v>
    <v>       0.61652259       0.38347741       0.88872205 </v>
    <v>       0.11652259       0.88347741       0.61127795 </v>
    <v>       0.88347741       0.11652259       0.38872205 </v>
   </varray>
  </structure>
  <varray name="forces" >
   <v>       0.00000000       0.05915938      -0.01409769 </v>
   <v>       0.00000000      -0.05915938       0.01409769 </v>
   <v>       0.00000000      -0.05915938      -0.01409769 </v>
   <v>       0.00000000       0.05915938       0.01409769 </v>
  </varray>
  <varray name="stress" >
   <v>       1.43598223       0.00000000       0.00000000 </v>
   <v>       0.00000000      -0.93635980       0.00000000 </v>
   <v>       0.00000000      -0.00000000       0.77805986 </v>
  </varray>
  <energy>
   <i name="e_fr_energy">     -8.06477571 </i>
   <i name="e_wo_entrp">     -8.06477571 </i>
   <i name="e_0_energy">     -8.06477571 </i>
  </energy>
  <time name="totalsc">    1.63    1.63</time>
 </calculation>
 <calculation>
  <scstep>
   <time name="dav">    0.08    0.08</time>
   <time name="total">    0.14    0.14</time>
   <energy>
    <i name="alphaZ">     31.96137496 </i>
    <i name="ewald">  -1276.62881299 </i>
    <i name="hartreedc">   -318.10427467 </i>
    <i name="XCdc">     81.26098904 </i>
    <i name="pawpsdc">   2256.56168639 </i>
    <i name="pawaedc">  -2255.81641798 </i>
    <i name="eentropy">      0.00000000 </i>
    <i name="bandstr">   -162.21961284 </i>
    <i name="atom">   1634.92028419 </i>
    <i name="e_fr_energy">     -8.06478390 </i>
    <i name="e_wo_entrp">     -8.06478390 </i>
    <i name="e_0_energy">     -8.06478390 </i>
   </energy>
  </scstep>
  <scstep>
   <time name="dav">    0.08    0.08</time>
   <time name="total">    0.14    0.14</time>
   <energy>
    <i name="e_fr_energy">     -8.06477811 </i>
    <i name="e_wo_entrp">     -8.06477811 </i>
    <i name="e_0_energy">     -8.06477811 </i>
   </energy>
  </scstep>
  <scstep>
   <time name="dav">    0.08    0.08</time>
   <time name="total">    0.14    0.14</time>
   <energy>
    <i name="e_fr_energy">     -8.06477653 </i>
    <i name="e_wo_entrp">     -8.06477653 </i>
    <i name="e_0_energy">     -8.06477653 </i>
   </energy>
  </scstep>
  <scstep>
   <time name="dav">    0.06    0.06</time>
   <time name="total">    0.10    0.10</time>
   <energy>
    <i name="alphaZ">     31.96137496 </i>
    <i name="ewald">  -1276.62881299 </i>
    <i name="hartreedc">   -318.05292397 </i>
    <i name="XCdc">     81.25750607 </i>
    <i name="pawpsdc">   2257.33929091 </i>
    <i name="pawaedc">  -2256.59401623 </i>
    <i name="eentropy">      0.00000000 </i>
    <i name="bandstr">   -162.26747956 </i>
    <i name="atom">   1634.92028419 </i>
    <i name="e_fr_energy">     -8.06477661 </i>
    <i name="e_wo_entrp">     -8.06477661 </i>
    <i name="e_0_energy">     -8.06477661 </i>
   </energy>
  </scstep>
  <structure>
   <crystal>
    <varray name="basis" >
     <v>       3.33412841      -1.96323356       0.00000000 </v>
     <v>       3.33412841       1.96323356      -0.00000000 </v>
     <v>       0.00000000       0.00000000       8.07614011 </v>
    </varray>
    <i name="volume">    105.72754109 </i>
    <varray name="rec_basis" >
     <v>       0.14996423      -0.25468187       0.00000000 </v>
     <v>       0.14996423       0.25468187      -0.00000000 </v>
     <v>      -0.00000000       0.00000000       0.12382153 </v>
    </varray>
   </crystal>
   <varray name="positions" >
    <v>       0.38347109       0.61652891       0.11128245 </v>
    <v>       0.61652891       0.38347109       0.88871755 </v>
    <v>       0.11652891       0.88347109       0.61128245 </v>
    <v>       0.88347109       0.11652891       0.38871755 </v>
   </varray>
  </structure>
  <varray name="forces" >
   <v>       0.00000000       0.06097377      -0.01125190 </v>
   <v>       0.00000000      -0.06097377       0.01125190 </v>
   <v>       0.00000000      -0.06097377      -0.01125190 </v>
   <v>       0.00000000       0.06097377       0.01125190 </v>
  </varray>
  <varray name="stress" >
   <v>       1.47534127       0.00000000       0.00000000 </v>
   <v>       0.00000000      -0.88467847       0.00000000 </v>
   <v>       0.00000000       0.00000000       0.98343947 </v>
  </varray>
  <energy>
   <i name="e_fr_energy">     -8.06477661 </i>
   <i name="e_wo_entrp">     -8.06477661 </i>
   <i name="e_0_energy">     -8.06477661 </i>
  </energy>
  <time name="totalsc">    0.89    0.90</time>
 </calculation>
 <calculation>
  <scstep>
   <time name="dav">    0.08    0.08</time>
   <time name="total">    0.14    0.14</time>
   <energy>
    <i name="alphaZ">     31.97592489 </i>
    <i name="ewald">  -1276.81163518 </i>
    <i name="hartreedc">   -318.02890277 </i>
    <i name="XCdc">     81.26409440 </i>
    <i name="pawpsdc">   2257.39754720 </i>
    <i name="pawaedc">  -2256.65252007 </i>
    <i name="eentropy">      0.00000000 </i>
    <i name="bandstr">   -162.13004575 </i>
    <i name="atom">   1634.92028419 </i>
    <i name="e_fr_energy">     -8.06525308 </i>
    <i name="e_wo_entrp">     -8.06525308 </i>
    <i name="e_0_energy">     -8.06525308 </i>
   </energy>
  </scstep>
  <scstep>
   <time name="dav">    0.09    0.09</time>
   <time name="total">    0.15    0.15</time>
   <energy>
    <i name="e_fr_energy">     -8.06524542 </i>
    <i name="e_wo_entrp">     -8.06524542 </i>
    <i name="e_0_energy">     -8.06524542 </i>
   </energy>
  </scstep>
  <scstep>
   <time name="dav">    0.09    0.09</time>
   <time name="total">    0.15    0.15</time>
   <energy>
    <i name="e_fr_energy">     -8.06520786 </i>
    <i name="e_wo_entrp">     -8.06520786 </i>
    <i name="e_0_energy">     -8.06520786 </i>
   </energy>
  </scstep>
  <scstep>
   <time name="dav">    0.09    0.09</time>
   <time name="total">    0.15    0.15</time>
   <energy>
    <i name="e_fr_energy">     -8.06519484 </i>
    <i name="e_wo_entrp">     -8.06519484 </i>
    <i name="e_0_energy">     -8.06519484 </i>
   </energy>
  </scstep>
  <scstep>
   <time name="dav">    0.08    0.08</time>
   <time name="total">    0.14    0.14</time>
   <energy>
    <i name="e_fr_energy">     -8.06519526 </i>
    <i name="e_wo_entrp">     -8.06519526 </i>
    <i name="e_0_energy">     -8.06519526 </i>
   </energy>
  </scstep>
  <scstep>
   <time name="dav">    0.06    0.06</time>
   <time name="total">    0.12    0.12</time>
   <energy>
    <i name="e_fr_energy">     -8.06519537 </i>
    <i name="e_wo_entrp">     -8.06519537 </i>
    <i name="e_0_energy">     -8.06519537 </i>
   </energy>
  </scstep>
  <scstep>
   <time name="dav">    0.06    0.06</time>
   <time name="total">    0.10    0.10</time>
   <energy>
    <i name="alphaZ">     31.97592489 </i>
    <i name="ewald">  -1276.81163518 </i>
    <i name="hartreedc">   -317.97581569 </i>
    <i name="XCdc">     81.25870083 </i>
    <i name="pawpsdc">   2257.62346286 </i>
    <i name="pawaedc">  -2256.87788867 </i>
    <i name="eentropy">      0.00000000 </i>
    <i name="bandstr">   -162.17822864 </i>
    <i name="atom">   1634.92028419 </i>
    <i name="e_fr_energy">     -8.06519540 </i>
    <i name="e_wo_entrp">     -8.06519540 </i>
    <i name="e_0_energy">     -8.06519540 </i>
   </energy>
  </scstep>
  <structure>
   <crystal>
    <varray name="basis" >
     <v>       3.33624947      -1.96187769       0.00000000 </v>
     <v>       3.33624947       1.96187769      -0.00000000 </v>
     <v>       0.00000000       0.00000000       8.07290850 </v>
    </varray>
    <i name="volume">    105.67943211 </i>
    <varray name="rec_basis" >
     <v>       0.14986889      -0.25485789       0.00000000 </v>
     <v>       0.14986889       0.25485789      -0.00000000 </v>
     <v>       0.00000000       0.00000000       0.12387109 </v>
    </varray>
   </crystal>
   <varray name="positions" >
    <v>       0.38310462       0.61689538       0.11127292 </v>
    <v>       0.61689538       0.38310462       0.88872708 </v>
    <v>       0.11689538       0.88310462       0.61127292 </v>
    <v>       0.88310462       0.11689538       0.38872708 </v>
   </varray>
  </structure>
  <varray name="forces" >
   <v>       0.00000000       0.05917765      -0.01132065 </v>
   <v>       0.00000000      -0.05917765       0.01132065 </v>
   <v>       0.00000000      -0.05917765      -0.01132065 </v>
   <v>       0.00000000       0.05917765       0.01132065 </v>
  </varray>
  <varray name="stress" >
   <v>       1.40472980       0.00000000       0.00000000 </v>
   <v>       0.00000000      -0.78768065      -0.00000000 </v>
   <v>       0.00000000      -0.00000000       1.06087589 </v>
  </varray>
  <energy>
   <i name="e_fr_energy">     -8.06519540 </i>
   <i name="e_wo_entrp">     -8.06519540 </i>
   <i name="e_0_energy">     -8.06519540 </i>
  </energy>
  <time name="totalsc">    1.32    1.33</time>
 </calculation>
 <calculation>
  <scstep>
   <time name="dav">    0.08    0.08</time>
   <time name="total">    0.14    0.14</time>
   <energy>
    <i name="alphaZ">     32.01981470 </i>
    <i name="ewald">  -1277.35780941 </i>
    <i name="hartreedc">   -317.90603384 </i>
    <i name="XCdc">     81.27872743 </i>
    <i name="pawpsdc">   2257.64765511 </i>
    <i name="pawaedc">  -2256.90205996 </i>
    <i name="eentropy">      0.00000000 </i>
    <i name="bandstr">   -161.76746069 </i>
    <i name="atom">   1634.92028419 </i>
    <i name="e_fr_energy">     -8.06688247 </i>
    <i name="e_wo_entrp">     -8.06688247 </i>
    <i name="e_0_energy">     -8.06688247 </i>
   </energy>
  </scstep>
  <scstep>
   <time name="dav">    0.09    0.09</time>
   <time name="total">    0.15    0.15</time>
   <energy>
    <i name="e_fr_energy">     -8.06681114 </i>
    <i name="e_wo_entrp">     -8.06681114 </i>
    <i name="e_0_energy">     -8.06681114 </i>
   </energy>
  </scstep>
  <scstep>
   <time name="dav">    0.09    0.09</time>
   <time name="total">    0.15    0.15</time>
   <energy>
    <i name="e_fr_energy">     -8.06647167 </i>
    <i name="e_wo_entrp">     -8.06647167 </i>
    <i name="e_0_energy">     -8.06647167 </i>
   </energy>
  </scstep>
  <scstep>
   <time name="dav">    0.09    0.09</time>
   <time name="total">    0.15    0.15</time>
   <energy>
    <i name="e_fr_energy">     -8.06635100 </i>
    <i name="e_wo_entrp">     -8.06635100 </i>
    <i name="e_0_energy">     -8.06635100 </i>
   </energy>
  </scstep>
  <scstep>
   <time name="dav">    0.08    0.08</time>
   <time name="total">    0.14    0.14</time>
   <energy>
    <i name="e_fr_energy">     -8.06635199 </i>
    <i name="e_wo_entrp">     -8.06635199 </i>
    <i name="e_0_energy">     -8.06635199 </i>
   </energy>
  </scstep>
  <scstep>
   <time name="dav">    0.09    0.09</time>
   <time name="total">    0.15    0.15</time>
   <energy>
    <i name="e_fr_energy">     -8.06635255 </i>
    <i name="e_wo_entrp">     -8.06635255 </i>
    <i name="e_0_energy">     -8.06635255 </i>
   </energy>
  </scstep>
  <scstep>
   <time name="dav">    0.06    0.06</time>
   <time name="total">    0.12    0.12</time>
   <energy>
    <i name="e_fr_energy">     -8.06635280 </i>
    <i name="e_wo_entrp">     -8.06635280 </i>
    <i name="e_0_energy">     -8.06635280 </i>
   </energy>
  </scstep>
  <scstep>
   <time name="dav">    0.06    0.06</time>
   <time name="total">    0.10    0.10</time>
   <energy>
    <i name="alphaZ">     32.01981470 </i>
    <i name="ewald">  -1277.35780941 </i>
    <i name="hartreedc">   -317.74586278 </i>
    <i name="XCdc">     81.26236086 </i>
    <i name="pawpsdc">   2258.42916770 </i>
    <i name="pawaedc">  -2257.68184055 </i>
    <i name="eentropy">      0.00000000 </i>
    <i name="bandstr">   -161.91246748 </i>
    <i name="atom">   1634.92028419 </i>
    <i name="e_fr_energy">     -8.06635277 </i>
    <i name="e_wo_entrp">     -8.06635277 </i>
    <i name="e_0_energy">     -8.06635277 </i>
   </energy>
  </scstep>
  <structure>
   <crystal>
    <varray name="basis" >
     <v>       3.34261265      -1.95781006       0.00000000 </v>
     <v>       3.34261265       1.95781006      -0.00000000 </v>
     <v>       0.00000000       0.00000000       8.06321368 </v>
    </varray>
    <i name="volume">    105.53457650 </i>
    <varray name="rec_basis" >
     <v>       0.14958359      -0.25538739       0.00000000 </v>
     <v>       0.14958359       0.25538739      -0.00000000 </v>
     <v>      -0.00000000       0.00000000       0.12402003 </v>
    </varray>
   </crystal>
   <varray name="positions" >
    <v>       0.38200447       0.61799553       0.11124431 </v>
    <v>       0.61799553       0.38200447       0.88875569 </v>
    <v>       0.11799553       0.88200447       0.61124431 </v>
    <v>       0.88200447       0.11799553       0.38875569 </v>
   </varray>
  </structure>
  <varray name="forces" >
   <v>       0.00000000       0.05380778      -0.01185489 </v>
   <v>       0.00000000      -0.05380778       0.01185489 </v>
   <v>       0.00000000      -0.05380778      -0.01185489 </v>
   <v>       0.00000000       0.05380778       0.01185489 </v>
  </varray>
  <varray name="stress" >
   <v>       1.31539306       0.00000000       0.00000000 </v>
   <v>       0.00000000      -0.54105666       0.00000000 </v>
   <v>       0.00000000      -0.00000000       1.16191311 </v>
  </varray>
  <energy>
   <i name="e_fr_energy">     -8.06635277 </i>
   <i name="e_wo_entrp">     -8.06635277 </i>
   <i name="e_0_energy">     -8.06635277 </i>
  </energy>
  <time name="totalsc">    1.47    1.48</time>
 </calculation>
 <calculation>
  <scstep>
   <time name="dav">    0.08    0.08</time>
   <time name="total">    0.14    0.14</time>
   <energy>
    <i name="alphaZ">     32.10867949 </i>
    <i name="ewald">  -1278.43967416 </i>
    <i name="hartreedc">   -317.61939855 </i>
    <i name="XCdc">     81.30293787 </i>
    <i name="pawpsdc">   2258.45099550 </i>
    <i name="pawaedc">  -2257.70364783 </i>
    <i name="eentropy">      0.00000000 </i>
    <i name="bandstr">   -161.09053651 </i>
    <i name="atom">   1634.92028419 </i>
    <i name="e_fr_energy">     -8.07036001 </i>
    <i name="e_wo_entrp">     -8.07036001 </i>
    <i name="e_0_energy">     -8.07036001 </i>
   </energy>
  </scstep>
  <scstep>
   <time name="dav">    0.09    0.09</time>
   <time name="total">    0.15    0.15</time>
   <energy>
    <i name="e_fr_energy">     -8.07005179 </i>
    <i name="e_wo_entrp">     -8.07005179 </i>
    <i name="e_0_energy">     -8.07005179 </i>
   </energy>
  </scstep>
  <scstep>
   <time name="dav">    0.09    0.09</time>
   <time name="total">    0.14    0.15</time>
   <energy>
    <i name="e_fr_energy">     -8.06869037 </i>
    <i name="e_wo_entrp">     -8.06869037 </i>
    <i name="e_0_energy">     -8.06869037 </i>
   </energy>
  </scstep>
  <scstep>
   <time name="dav">    0.08    0.08</time>
   <time name="total">    0.14    0.14</time>
   <energy>
    <i name="e_fr_energy">     -8.06819779 </i>
    <i name="e_wo_entrp">     -8.06819779 </i>
    <i name="e_0_energy">     -8.06819779 </i>
   </energy>
  </scstep>
  <scstep>
   <time name="dav">    0.08    0.08</time>
   <time name="total">    0.14    0.14</time>
   <energy>
    <i name="e_fr_energy">     -8.06819938 </i>
    <i name="e_wo_entrp">     -8.06819938 </i>
    <i name="e_0_energy">     -8.06819938 </i>
   </energy>
  </scstep>
  <scstep>
   <time name="dav">    0.09    0.09</time>
   <time name="total">    0.15    0.15</time>
   <energy>
    <i name="e_fr_energy">     -8.06820114 </i>
    <i name="e_wo_entrp">     -8.06820114 </i>
    <i name="e_0_energy">     -8.06820114 </i>
   </energy>
  </scstep>
  <scstep>
   <time name="dav">    0.08    0.08</time>
   <time name="total">    0.14    0.14</time>
   <energy>
    <i name="e_fr_energy">     -8.06820203 </i>
    <i name="e_wo_entrp">     -8.06820203 </i>
    <i name="e_0_energy">     -8.06820203 </i>
   </energy>
  </scstep>
  <scstep>
   <time name="dav">    0.06    0.06</time>
   <time name="total">    0.11    0.11</time>
   <energy>
    <i name="alphaZ">     32.10867949 </i>
    <i name="ewald">  -1278.43967416 </i>
    <i name="hartreedc">   -317.30639207 </i>
    <i name="XCdc">     81.27008369 </i>
    <i name="pawpsdc">   2260.08065593 </i>
    <i name="pawaedc">  -2259.32980431 </i>
    <i name="eentropy">      0.00000000 </i>
    <i name="bandstr">   -161.37203474 </i>
    <i name="atom">   1634.92028419 </i>
    <i name="e_fr_energy">     -8.06820199 </i>
    <i name="e_wo_entrp">     -8.06820199 </i>
    <i name="e_0_energy">     -8.06820199 </i>
   </energy>
  </scstep>
  <structure>
   <crystal>
    <varray name="basis" >
     <v>       3.35533901      -1.94967480       0.00000000 </v>
     <v>       3.35533901       1.94967480      -0.00000000 </v>
     <v>       0.00000000       0.00000000       8.04382404 </v>
    </varray>
    <i name="volume">    105.24249635 </i>
    <varray name="rec_basis" >
     <v>       0.14901624      -0.25645303       0.00000000 </v>
     <v>       0.14901624       0.25645303      -0.00000000 </v>
     <v>      -0.00000000       0.00000000       0.12431898 </v>
    </varray>
   </crystal>
   <varray name="positions" >
    <v>       0.37979958       0.62020042       0.11118704 </v>
    <v>       0.62020042       0.37979958       0.88881296 </v>
    <v>       0.12020042       0.87979958       0.61118704 </v>
    <v>       0.87979958       0.12020042       0.38881296 </v>
   </varray>
  </structure>
  <varray name="forces" >
   <v>       0.00000000       0.04212886      -0.01267084 </v>
   <v>       0.00000000      -0.04212886       0.01267084 </v>
   <v>       0.00000000      -0.04212886      -0.01267084 </v>
   <v>       0.00000000       0.04212886       0.01267084 </v>
  </varray>
  <varray name="stress" >
   <v>       1.14103522       0.00000000       0.00000000 </v>
   <v>       0.00000000      -0.01771448      -0.00000000 </v>
   <v>       0.00000000       0.00000000       1.38033761 </v>
  </varray>
  <energy>
   <i name="e_fr_energy">     -8.06820199 </i>
   <i name="e_wo_entrp">     -8.06820199 </i>
   <i name="e_0_energy">     -8.06820199 </i>
  </energy>
  <time name="totalsc">    1.49    1.50</time>
 </calculation>
 <calculation>
  <scstep>
   <time name="dav">    0.08    0.08</time>
   <time name="total">    0.14    0.14</time>
   <energy>
    <i name="alphaZ">     32.29079467 </i>
    <i name="ewald">  -1280.55396854 </i>
    <i name="hartreedc">   -317.10981148 </i>
    <i name="XCdc">     81.35333777 </i>
    <i name="pawpsdc">   2260.09844419 </i>
    <i name="pawaedc">  -2259.34756308 </i>
    <i name="eentropy">      0.00000000 </i>
    <i name="bandstr">   -159.73032801 </i>
    <i name="atom">   1634.92028419 </i>
    <i name="e_fr_energy">     -8.07881029 </i>
    <i name="e_wo_entrp">     -8.07881029 </i>
    <i name="e_0_energy">     -8.07881029 </i>
   </energy>
  </scstep>
  <scstep>
   <time name="dav">    0.09    0.09</time>
   <time name="total">    0.15    0.15</time>
   <energy>
    <i name="e_fr_energy">     -8.07736270 </i>
    <i name="e_wo_entrp">     -8.07736270 </i>
    <i name="e_0_energy">     -8.07736270 </i>
   </energy>
  </scstep>
  <scstep>
   <time name="dav">    0.09    0.09</time>
   <time name="total">    0.15    0.15</time>
   <energy>
    <i name="e_fr_energy">     -8.07188137 </i>
    <i name="e_wo_entrp">     -8.07188137 </i>
    <i name="e_0_energy">     -8.07188137 </i>
   </energy>
  </scstep>
  <scstep>
   <time name="dav">    0.08    0.08</time>
   <time name="total">    0.14    0.14</time>
   <energy>
    <i name="e_fr_energy">     -8.06985016 </i>
    <i name="e_wo_entrp">     -8.06985016 </i>
    <i name="e_0_energy">     -8.06985016 </i>
   </energy>
  </scstep>
  <scstep>
   <time name="dav">    0.08    0.08</time>
   <time name="total">    0.14    0.14</time>
   <energy>
    <i name="e_fr_energy">     -8.06985278 </i>
    <i name="e_wo_entrp">     -8.06985278 </i>
    <i name="e_0_energy">     -8.06985278 </i>
   </energy>
  </scstep>
  <scstep>
   <time name="dav">    0.09    0.09</time>
   <time name="total">    0.15    0.16</time>
   <energy>
    <i name="e_fr_energy">     -8.06985855 </i>
    <i name="e_wo_entrp">     -8.06985855 </i>
    <i name="e_0_energy">     -8.06985855 </i>
   </energy>
  </scstep>
  <scstep>
   <time name="dav">    0.09    0.09</time>
   <time name="total">    0.15    0.15</time>
   <energy>
    <i name="e_fr_energy">     -8.06986171 </i>
    <i name="e_wo_entrp">     -8.06986171 </i>
    <i name="e_0_energy">     -8.06986171 </i>
   </energy>
  </scstep>
  <scstep>
   <time name="dav">    0.09    0.09</time>
   <time name="total">    0.15    0.15</time>
   <energy>
    <i name="e_fr_energy">     -8.06986181 </i>
    <i name="e_wo_entrp">     -8.06986181 </i>
    <i name="e_0_energy">     -8.06986181 </i>
   </energy>
  </scstep>
  <scstep>
   <time name="dav">    0.06    0.06</time>
   <time name="total">    0.10    0.11</time>
   <energy>
    <i name="alphaZ">     32.29079467 </i>
    <i name="ewald">  -1280.55396854 </i>
    <i name="hartreedc">   -316.51521026 </i>
    <i name="XCdc">     81.28722776 </i>
    <i name="pawpsdc">   2263.74658128 </i>
    <i name="pawaedc">  -2262.98847980 </i>
    <i name="eentropy">      0.00000000 </i>
    <i name="bandstr">   -160.25709110 </i>
    <i name="atom">   1634.92028419 </i>
    <i name="e_fr_energy">     -8.06986180 </i>
    <i name="e_wo_entrp">     -8.06986180 </i>
    <i name="e_0_energy">     -8.06986180 </i>
   </energy>
  </scstep>
  <structure>
   <crystal>
    <varray name="basis" >
     <v>       3.38079173      -1.93340428       0.00000000 </v>
     <v>       3.38079173       1.93340428      -0.00000000 </v>
     <v>       0.00000000       0.00000000       8.00504477 </v>
    </varray>
    <i name="volume">    104.64894463 </i>
    <varray name="rec_basis" >
     <v>       0.14789435      -0.25861120       0.00000000 </v>
     <v>       0.14789435       0.25861120      -0.00000000 </v>
     <v>      -0.00000000       0.00000000       0.12492123 </v>
    </varray>
   </crystal>
   <varray name="positions" >
    <v>       0.37537140       0.62462860       0.11107221 </v>
    <v>       0.62462860       0.37537140       0.88892779 </v>
    <v>       0.12462860       0.87537140       0.61107221 </v>
    <v>       0.87537140       0.12462860       0.38892779 </v>
   </varray>
  </structure>
  <varray name="forces" >
   <v>       0.00000000       0.01530767      -0.01230491 </v>
   <v>       0.00000000      -0.01530767       0.01230491 </v>
   <v>       0.00000000      -0.01530767      -0.01230491 </v>
   <v>       0.00000000       0.01530767       0.01230491 </v>
  </varray>
  <varray name="stress" >
   <v>       0.82505644       0.00000000       0.00000000 </v>
   <v>       0.00000000       1.23950119      -0.00000000 </v>
   <v>       0.00000000      -0.00000000       1.98543518 </v>
  </varray>
  <energy>
   <i name="e_fr_energy">     -8.06986180 </i>
   <i name="e_wo_entrp">     -8.06986180 </i>
   <i name="e_0_energy">     -8.06986180 </i>
  </energy>
  <time name="totalsc">    1.64    1.66</time>
 </calculation>
 <calculation>
  <scstep>
   <time name="dav">    0.08    0.08</time>
   <time name="total">    0.14    0.14</time>
   <energy>
    <i name="alphaZ">     32.05689641 </i>
    <i name="ewald">  -1277.84954917 </i>
    <i name="hartreedc">   -315.59767595 </i>
    <i name="XCdc">     81.09547422 </i>
    <i name="pawpsdc">   2263.74939067 </i>
    <i name="pawaedc">  -2262.99126370 </i>
    <i name="eentropy">      0.00000000 </i>
    <i name="bandstr">   -163.45976827 </i>
    <i name="atom">   1634.92028419 </i>
    <i name="e_fr_energy">     -8.07621158 </i>
    <i name="e_wo_entrp">     -8.07621158 </i>
    <i name="e_0_energy">     -8.07621158 </i>
   </energy>
  </scstep>
  <scstep>
   <time name="dav">    0.08    0.08</time>
   <time name="total">    0.14    0.14</time>
   <energy>
    <i name="e_fr_energy">     -8.07097179 </i>
    <i name="e_wo_entrp">     -8.07097179 </i>
    <i name="e_0_energy">     -8.07097179 </i>
   </energy>
  </scstep>
  <scstep>
   <time name="dav">    0.08    0.08</time>
   <time name="total">    0.14    0.14</time>
   <energy>
    <i name="e_fr_energy">     -8.06982593 </i>
    <i name="e_wo_entrp">     -8.06982593 </i>
    <i name="e_0_energy">     -8.06982593 </i>
   </energy>
  </scstep>
  <scstep>
   <time name="dav">    0.09    0.09</time>
   <time name="total">    0.15    0.15</time>
   <energy>
    <i name="e_fr_energy">     -8.06980993 </i>
    <i name="e_wo_entrp">     -8.06980993 </i>
    <i name="e_0_energy">     -8.06980993 </i>
   </energy>
  </scstep>
  <scstep>
   <time name="dav">    0.08    0.08</time>
   <time name="total">    0.14    0.14</time>
   <energy>
    <i name="e_fr_energy">     -8.06976994 </i>
    <i name="e_wo_entrp">     -8.06976994 </i>
    <i name="e_0_energy">     -8.06976994 </i>
   </energy>
  </scstep>
  <scstep>
   <time name="dav">    0.08    0.08</time>
   <time name="total">    0.14    0.14</time>
   <energy>
    <i name="e_fr_energy">     -8.06976983 </i>
    <i name="e_wo_entrp">     -8.06976983 </i>
    <i name="e_0_energy">     -8.06976983 </i>
   </energy>
  </scstep>
  <scstep>
   <time name="dav">    0.08    0.08</time>
   <time name="total">    0.14    0.14</time>
   <energy>
    <i name="e_fr_energy">     -8.06976983 </i>
    <i name="e_wo_entrp">     -8.06976983 </i>
    <i name="e_0_energy">     -8.06976983 </i>
   </energy>
  </scstep>
  <scstep>
   <time name="dav">    0.06    0.06</time>
   <time name="total">    0.10    0.10</time>
   <energy>
    <i name="alphaZ">     32.05689641 </i>
    <i name="ewald">  -1277.84954917 </i>
    <i name="hartreedc">   -317.70324765 </i>
    <i name="XCdc">     81.22966836 </i>
    <i name="pawpsdc">   2240.50655769 </i>
    <i name="pawaedc">  -2239.74141321 </i>
    <i name="eentropy">      0.00000000 </i>
    <i name="bandstr">   -161.48896637 </i>
    <i name="atom">   1634.92028419 </i>
    <i name="e_fr_energy">     -8.06976973 </i>
    <i name="e_wo_entrp">     -8.06976973 </i>
    <i name="e_0_energy">     -8.06976973 </i>
   </energy>
  </scstep>
  <structure>
   <crystal>
    <varray name="basis" >
     <v>       3.38684236      -1.93726293       0.00000000 </v>
     <v>       3.38684236       1.93726293      -0.00000000 </v>
     <v>       0.00000000       0.00000000       8.03301476 </v>
    </varray>
    <i name="volume">    105.41249972 </i>
    <varray name="rec_basis" >
     <v>       0.14763014      -0.25809610       0.00000000 </v>
     <v>       0.14763014       0.25809610      -0.00000000 </v>
     <v>      -0.00000000       0.00000000       0.12448626 </v>
    </varray>
   </crystal>
   <varray name="positions" >
    <v>       0.37476757       0.62523243       0.11089451 </v>
    <v>       0.62523243       0.37476757       0.88910549 </v>
    <v>       0.12523243       0.87476757       0.61089451 </v>
    <v>       0.87476757       0.12523243       0.38910549 </v>
   </varray>
  </structure>
  <varray name="forces" >
   <v>       0.00000000      -0.03939714      -0.08282608 </v>
   <v>       0.00000000       0.03939714       0.08282608 </v>
   <v>       0.00000000       0.03939714      -0.08282608 </v>
   <v>       0.00000000      -0.03939714       0.08282608 </v>
  </varray>
  <varray name="stress" >
   <v>       0.71258858       0.00000000       0.00000000 </v>
   <v>       0.00000000      -1.26497025       0.00000000 </v>
   <v>       0.00000000       0.00000000      -4.86896121 </v>
  </varray>
  <energy>
   <i name="e_fr_energy">     -8.06976973 </i>
   <i name="e_wo_entrp">     -8.06976973 </i>
[...]
       </set>
      </set>
      <set comment="kpoint 5">
       <set comment="band 1">
        <r>  0.1890  0.0113  0.0000 </r>
        <r>  0.1890  0.0113  0.0000 </r>
        <r>  0.1863  0.0121  0.0000 </r>
        <r>  0.1863  0.0121  0.0000 </r>
       </set>
       <set comment="band 2">
        <r>  0.1861  0.0154  0.0000 </r>
        <r>  0.1861  0.0154  0.0000 </r>
        <r>  0.1895  0.0145  0.0000 </r>
        <r>  0.1895  0.0145  0.0000 </r>
       </set>
       <set comment="band 3">
        <r>  0.1982  0.0069  0.0000 </r>
        <r>  0.1982  0.0069  0.0000 </r>
        <r>  0.1899  0.0062  0.0000 </r>
        <r>  0.1899  0.0062  0.0000 </r>
       </set>
       <set comment="band 4">
        <r>  0.2002  0.0045  0.0000 </r>
        <r>  0.2002  0.0045  0.0000 </r>
        <r>  0.2088  0.0058  0.0000 </r>
        <r>  0.2088  0.0058  0.0000 </r>
       </set>
       <set comment="band 5">
        <r>  0.0089  0.1579  0.0000 </r>
        <r>  0.0089  0.1579  0.0000 </r>
        <r>  0.0078  0.1716  0.0000 </r>
        <r>  0.0078  0.1716  0.0000 </r>
       </set>
       <set comment="band 6">
        <r>  0.0174  0.2001  0.0000 </r>
        <r>  0.0174  0.2001  0.0000 </r>
        <r>  0.0140  0.1351  0.0000 </r>
        <r>  0.0140  0.1351  0.0000 </r>
       </set>
       <set comment="band 7">
        <r>  0.0006  0.0848  0.0000 </r>
        <r>  0.0006  0.0848  0.0000 </r>
        <r>  0.0017  0.2049  0.0000 </r>
        <r>  0.0017  0.2049  0.0000 </r>
       </set>
       <set comment="band 8">
        <r>  0.0031  0.1620  0.0000 </r>
        <r>  0.0031  0.1620  0.0000 </r>
        <r>  0.0002  0.1333  0.0000 </r>
        <r>  0.0002  0.1333  0.0000 </r>
       </set>
       <set comment="band 9">
        <r>  0.0009  0.0636  0.0000 </r>
        <r>  0.0009  0.0636  0.0000 </r>
        <r>  0.0000  0.2516  0.0000 </r>
        <r>  0.0000  0.2516  0.0000 </r>
       </set>
       <set comment="band 10">
        <r>  0.0001  0.2725  0.0000 </r>
        <r>  0.0001  0.2725  0.0000 </r>
        <r>  0.0058  0.0538  0.0000 </r>
        <r>  0.0058  0.0538  0.0000 </r>
       </set>
       <set comment="band 11">
        <r>  0.0001  0.2327  0.0000 </r>
        <r>  0.0001  0.2327  0.0000 </r>
        <r>  0.0051  0.0857  0.0000 </r>
        <r>  0.0051  0.0857  0.0000 </r>
       </set>
       <set comment="band 12">
        <r>  0.0004  0.1657  0.0000 </r>
        <r>  0.0004  0.1657  0.0000 </r>
        <r>  0.0011  0.1662  0.0000 </r>
        <r>  0.0011  0.1662  0.0000 </r>
       </set>
       <set comment="band 13">
        <r>  0.0024  0.1332  0.0000 </r>
        <r>  0.0024  0.1332  0.0000 </r>
        <r>  0.0004  0.2169  0.0000 </r>
        <r>  0.0004  0.2169  0.0000 </r>
       </set>
       <set comment="band 14">
        <r>  0.0006  0.1329  0.0000 </r>
        <r>  0.0006  0.1329  0.0000 </r>
        <r>  0.0000  0.2238  0.0000 </r>
        <r>  0.0000  0.2238  0.0000 </r>
       </set>
       <set comment="band 15">
        <r>  0.0160  0.1987  0.0000 </r>
        <r>  0.0160  0.1987  0.0000 </r>
        <r>  0.0138  0.1222  0.0000 </r>
        <r>  0.0138  0.1222  0.0000 </r>
       </set>
       <set comment="band 16">
        <r>  0.0069  0.1566  0.0000 </r>
        <r>  0.0069  0.1566  0.0000 </r>
        <r>  0.0055  0.1864  0.0000 </r>
        <r>  0.0055  0.1864  0.0000 </r>
       </set>
       <set comment="band 17">
        <r>  0.0062  0.0199  0.0000 </r>
        <r>  0.0062  0.0199  0.0000 </r>
        <r>  0.0052  0.0181  0.0000 </r>
        <r>  0.0052  0.0181  0.0000 </r>
       </set>
       <set comment="band 18">
        <r>  0.0010  0.0201  0.0000 </r>
        <r>  0.0010  0.0201  0.0000 </r>
        <r>  0.0060  0.0151  0.0000 </r>
        <r>  0.0060  0.0151  0.0000 </r>
       </set>
      </set>
      <set comment="kpoint 6">
       <set comment="band 1">
        <r>  0.1917  0.0125  0.0000 </r>
        <r>  0.1917  0.0125  0.0000 </r>
        <r>  0.1866  0.0139  0.0000 </r>
        <r>  0.1866  0.0139  0.0000 </r>
       </set>
       <set comment="band 2">
        <r>  0.1863  0.0150  0.0000 </r>
        <r>  0.1863  0.0150  0.0000 </r>
        <r>  0.1918  0.0136  0.0000 </r>
        <r>  0.1918  0.0136  0.0000 </r>
       </set>
       <set comment="band 3">
        <r>  0.2050  0.0064  0.0000 </r>
        <r>  0.2050  0.0064  0.0000 </r>
        <r>  0.1901  0.0049  0.0000 </r>
        <r>  0.1901  0.0049  0.0000 </r>
       </set>
       <set comment="band 4">
        <r>  0.1926  0.0043  0.0000 </r>
        <r>  0.1926  0.0043  0.0000 </r>
        <r>  0.2075  0.0062  0.0000 </r>
        <r>  0.2075  0.0062  0.0000 </r>
       </set>
       <set comment="band 5">
        <r>  0.0077  0.1219  0.0000 </r>
        <r>  0.0077  0.1219  0.0000 </r>
        <r>  0.0106  0.2005  0.0000 </r>
        <r>  0.0106  0.2005  0.0000 </r>
       </set>
       <set comment="band 6">
        <r>  0.0135  0.2207  0.0000 </r>
        <r>  0.0135  0.2207  0.0000 </r>
        <r>  0.0084  0.1021  0.0000 </r>
        <r>  0.0084  0.1021  0.0000 </r>
       </set>
       <set comment="band 7">
        <r>  0.0071  0.0285  0.0000 </r>
        <r>  0.0071  0.0285  0.0000 </r>
        <r>  0.0004  0.2625  0.0000 </r>
        <r>  0.0004  0.2625  0.0000 </r>
       </set>
       <set comment="band 8">
        <r>  0.0007  0.2355  0.0000 </r>
        <r>  0.0007  0.2355  0.0000 </r>
        <r>  0.0065  0.0626  0.0000 </r>
        <r>  0.0065  0.0626  0.0000 </r>
       </set>
       <set comment="band 9">
        <r>  0.0001  0.1506  0.0000 </r>
        <r>  0.0001  0.1506  0.0000 </r>
        <r>  0.0018  0.1554  0.0000 </r>
        <r>  0.0018  0.1554  0.0000 </r>
       </set>
       <set comment="band 10">
        <r>  0.0002  0.1660  0.0000 </r>
        <r>  0.0002  0.1660  0.0000 </r>
        <r>  0.0006  0.1471  0.0000 </r>
        <r>  0.0006  0.1471  0.0000 </r>
       </set>
       <set comment="band 11">
        <r>  0.0002  0.2043  0.0000 </r>
        <r>  0.0002  0.2043  0.0000 </r>
        <r>  0.0022  0.1160  0.0000 </r>
        <r>  0.0022  0.1160  0.0000 </r>
       </set>
       <set comment="band 12">
        <r>  0.0011  0.1973  0.0000 </r>
        <r>  0.0011  0.1973  0.0000 </r>
        <r>  0.0059  0.1317  0.0000 </r>
        <r>  0.0059  0.1317  0.0000 </r>
       </set>
       <set comment="band 13">
        <r>  0.0029  0.1793  0.0000 </r>
        <r>  0.0029  0.1793  0.0000 </r>
        <r>  0.0009  0.1659  0.0000 </r>
        <r>  0.0009  0.1659  0.0000 </r>
       </set>
       <set comment="band 14">
        <r>  0.0032  0.0786  0.0000 </r>
        <r>  0.0032  0.0786  0.0000 </r>
        <r>  0.0000  0.2742  0.0000 </r>
        <r>  0.0000  0.2742  0.0000 </r>
       </set>
       <set comment="band 15">
        <r>  0.0150  0.2843  0.0000 </r>
        <r>  0.0150  0.2843  0.0000 </r>
        <r>  0.0054  0.0531  0.0000 </r>
        <r>  0.0054  0.0531  0.0000 </r>
       </set>
       <set comment="band 16">
        <r>  0.0033  0.0805  0.0000 </r>
        <r>  0.0033  0.0805  0.0000 </r>
        <r>  0.0115  0.2725  0.0000 </r>
        <r>  0.0115  0.2725  0.0000 </r>
       </set>
       <set comment="band 17">
        <r>  0.0026  0.0137  0.0000 </r>
        <r>  0.0026  0.0137  0.0000 </r>
        <r>  0.0009  0.0084  0.0000 </r>
        <r>  0.0009  0.0084  0.0000 </r>
       </set>
       <set comment="band 18">
        <r>  0.0021  0.0169  0.0000 </r>
        <r>  0.0021  0.0169  0.0000 </r>
        <r>  0.0042  0.0134  0.0000 </r>
        <r>  0.0042  0.0134  0.0000 </r>
       </set>
      </set>
      <set comment="kpoint 7">
       <set comment="band 1">
        <r>  0.1854  0.0136  0.0000 </r>
        <r>  0.1854  0.0136  0.0000 </r>
        <r>  0.1904  0.0122  0.0000 </r>
        <r>  0.1904  0.0122  0.0000 </r>
       </set>
       <set comment="band 2">
        <r>  0.1912  0.0136  0.0000 </r>
        <r>  0.1912  0.0136  0.0000 </r>
        <r>  0.1856  0.0151  0.0000 </r>
        <r>  0.1856  0.0151  0.0000 </r>
       </set>
       <set comment="band 3">
        <r>  0.1882  0.0051  0.0000 </r>
        <r>  0.1882  0.0051  0.0000 </r>
        <r>  0.2025  0.0064  0.0000 </r>
        <r>  0.2025  0.0064  0.0000 </r>
       </set>
       <set comment="band 4">
        <r>  0.2081  0.0061  0.0000 </r>
        <r>  0.2081  0.0061  0.0000 </r>
        <r>  0.1937  0.0043  0.0000 </r>
        <r>  0.1937  0.0043  0.0000 </r>
       </set>
       <set comment="band 5">
        <r>  0.0077  0.1796  0.0000 </r>
        <r>  0.0077  0.1796  0.0000 </r>
        <r>  0.0079  0.1404  0.0000 </r>
        <r>  0.0079  0.1404  0.0000 </r>
       </set>
       <set comment="band 6">
        <r>  0.0116  0.1193  0.0000 </r>
        <r>  0.0116  0.1193  0.0000 </r>
        <r>  0.0141  0.2077  0.0000 </r>
        <r>  0.0141  0.2077  0.0000 </r>
       </set>
       <set comment="band 7">
        <r>  0.0000  0.2624  0.0000 </r>
        <r>  0.0000  0.2624  0.0000 </r>
        <r>  0.0064  0.0298  0.0000 </r>
        <r>  0.0064  0.0298  0.0000 </r>
       </set>
       <set comment="band 8">
        <r>  0.0093  0.0667  0.0000 </r>
        <r>  0.0093  0.0667  0.0000 </r>
        <r>  0.0013  0.2434  0.0000 </r>
        <r>  0.0013  0.2434  0.0000 </r>
       </set>
       <set comment="band 9">
        <r>  0.0000  0.1624  0.0000 </r>
        <r>  0.0000  0.1624  0.0000 </r>
        <r>  0.0000  0.1549  0.0000 </r>
        <r>  0.0000  0.1549  0.0000 </r>
       </set>
       <set comment="band 10">
        <r>  0.0000  0.1585  0.0000 </r>
        <r>  0.0000  0.1585  0.0000 </r>
        <r>  0.0000  0.1670  0.0000 </r>
        <r>  0.0000  0.1670  0.0000 </r>
       </set>
       <set comment="band 11">
        <r>  0.0091  0.0356  0.0000 </r>
        <r>  0.0091  0.0356  0.0000 </r>
        <r>  0.0004  0.2897  0.0000 </r>
        <r>  0.0004  0.2897  0.0000 </r>
       </set>
       <set comment="band 12">
        <r>  0.0000  0.1769  0.0000 </r>
        <r>  0.0000  0.1769  0.0000 </r>
        <r>  0.0000  0.1621  0.0000 </r>
        <r>  0.0000  0.1621  0.0000 </r>
       </set>
       <set comment="band 13">
        <r>  0.0000  0.1692  0.0000 </r>
        <r>  0.0000  0.1692  0.0000 </r>
        <r>  0.0000  0.1831  0.0000 </r>
        <r>  0.0000  0.1831  0.0000 </r>
       </set>
       <set comment="band 14">
        <r>  0.0006  0.3187  0.0000 </r>
        <r>  0.0006  0.3187  0.0000 </r>
        <r>  0.0070  0.0308  0.0000 </r>
        <r>  0.0070  0.0308  0.0000 </r>
       </set>
       <set comment="band 15">
        <r>  0.0069  0.0591  0.0000 </r>
        <r>  0.0069  0.0591  0.0000 </r>
        <r>  0.0155  0.2758  0.0000 </r>
        <r>  0.0155  0.2758  0.0000 </r>
       </set>
       <set comment="band 16">
        <r>  0.0102  0.2636  0.0000 </r>
        <r>  0.0102  0.2636  0.0000 </r>
        <r>  0.0040  0.0921  0.0000 </r>
        <r>  0.0040  0.0921  0.0000 </r>
       </set>
       <set comment="band 17">
        <r>  0.0113  0.0185  0.0000 </r>
        <r>  0.0113  0.0185  0.0000 </r>
        <r>  0.0145  0.0154  0.0000 </r>
        <r>  0.0145  0.0154  0.0000 </r>
       </set>
       <set comment="band 18">
        <r>  0.0000  0.0058  0.0000 </r>
        <r>  0.0000  0.0058  0.0000 </r>
        <r>  0.0000  0.0121  0.0000 </r>
        <r>  0.0000  0.0121  0.0000 </r>
       </set>
      </set>
      <set comment="kpoint 8">
       <set comment="band 1">
        <r>  0.1879  0.0113  0.0000 </r>
        <r>  0.1879  0.0113  0.0000 </r>
        <r>  0.1879  0.0113  0.0000 </r>
        <r>  0.1879  0.0113  0.0000 </r>
       </set>
       <set comment="band 2">
        <r>  0.1878  0.0152  0.0000 </r>
        <r>  0.1878  0.0152  0.0000 </r>
        <r>  0.1878  0.0152  0.0000 </r>
        <r>  0.1878  0.0152  0.0000 </r>
       </set>
       <set comment="band 3">
        <r>  0.1939  0.0071  0.0000 </r>
        <r>  0.1939  0.0071  0.0000 </r>
        <r>  0.1939  0.0071  0.0000 </r>
        <r>  0.1939  0.0071  0.0000 </r>
       </set>
       <set comment="band 4">
        <r>  0.2067  0.0051  0.0000 </r>
        <r>  0.2067  0.0051  0.0000 </r>
        <r>  0.2067  0.0051  0.0000 </r>
        <r>  0.2067  0.0051  0.0000 </r>
       </set>
       <set comment="band 5">
        <r>  0.0093  0.1681  0.0000 </r>
        <r>  0.0093  0.1681  0.0000 </r>
        <r>  0.0093  0.1681  0.0000 </r>
        <r>  0.0093  0.1681  0.0000 </r>
       </set>
       <set comment="band 6">
        <r>  0.0173  0.1708  0.0000 </r>
        <r>  0.0173  0.1708  0.0000 </r>
        <r>  0.0173  0.1708  0.0000 </r>
        <r>  0.0173  0.1708  0.0000 </r>
       </set>
       <set comment="band 7">
        <r>  0.0003  0.1366  0.0000 </r>
        <r>  0.0003  0.1366  0.0000 </r>
        <r>  0.0003  0.1366  0.0000 </r>
        <r>  0.0003  0.1366  0.0000 </r>
       </set>
       <set comment="band 8">
        <r>  0.0003  0.1437  0.0000 </r>
        <r>  0.0003  0.1437  0.0000 </r>
        <r>  0.0003  0.1437  0.0000 </r>
        <r>  0.0003  0.1437  0.0000 </r>
       </set>
       <set comment="band 9">
        <r>  0.0006  0.1648  0.0000 </r>
        <r>  0.0006  0.1648  0.0000 </r>
        <r>  0.0006  0.1648  0.0000 </r>
        <r>  0.0006  0.1648  0.0000 </r>
       </set>
       <set comment="band 10">
        <r>  0.0028  0.1663  0.0000 </r>
        <r>  0.0028  0.1663  0.0000 </r>
        <r>  0.0028  0.1663  0.0000 </r>
        <r>  0.0028  0.1663  0.0000 </r>
       </set>
       <set comment="band 11">
        <r>  0.0013  0.1540  0.0000 </r>
        <r>  0.0013  0.1540  0.0000 </r>
        <r>  0.0013  0.1540  0.0000 </r>
        <r>  0.0013  0.1540  0.0000 </r>
       </set>
       <set comment="band 12">
        <r>  0.0008  0.1592  0.0000 </r>
        <r>  0.0008  0.1592  0.0000 </r>
        <r>  0.0008  0.1592  0.0000 </r>
        <r>  0.0008  0.1592  0.0000 </r>
       </set>
       <set comment="band 13">
        <r>  0.0005  0.1709  0.0000 </r>
        <r>  0.0005  0.1709  0.0000 </r>
        <r>  0.0005  0.1709  0.0000 </r>
        <r>  0.0005  0.1709  0.0000 </r>
       </set>
       <set comment="band 14">
        <r>  0.0000  0.1753  0.0000 </r>
        <r>  0.0000  0.1753  0.0000 </r>
        <r>  0.0000  0.1753  0.0000 </r>
        <r>  0.0000  0.1753  0.0000 </r>
       </set>
       <set comment="band 15">
        <r>  0.0160  0.1549  0.0000 </r>
        <r>  0.0160  0.1549  0.0000 </r>
        <r>  0.0160  0.1549  0.0000 </r>
        <r>  0.0160  0.1549  0.0000 </r>
       </set>
       <set comment="band 16">
        <r>  0.0069  0.1677  0.0000 </r>
        <r>  0.0069  0.1677  0.0000 </r>
        <r>  0.0069  0.1677  0.0000 </r>
        <r>  0.0069  0.1677  0.0000 </r>
       </set>
       <set comment="band 17">
        <r>  0.0006  0.0083  0.0000 </r>
        <r>  0.0006  0.0083  0.0000 </r>
        <r>  0.0006  0.0083  0.0000 </r>
        <r>  0.0006  0.0083  0.0000 </r>
       </set>
       <set comment="band 18">
        <r>  0.0014  0.0179  0.0000 </r>
        <r>  0.0014  0.0179  0.0000 </r>
        <r>  0.0014  0.0179  0.0000 </r>
        <r>  0.0014  0.0179  0.0000 </r>
       </set>
      </set>
      <set comment="kpoint 9">
       <set comment="band 1">
        <r>  0.1901  0.0115  0.0000 </r>
        <r>  0.1901  0.0115  0.0000 </r>
        <r>  0.1873  0.0123  0.0000 </r>
        <r>  0.1873  0.0123  0.0000 </r>
       </set>
       <set comment="band 2">
        <r>  0.1869  0.0155  0.0000 </r>
        <r>  0.1869  0.0155  0.0000 </r>
        <r>  0.1904  0.0146  0.0000 </r>
        <r>  0.1904  0.0146  0.0000 </r>
       </set>
       <set comment="band 3">
        <r>  0.1997  0.0069  0.0000 </r>
        <r>  0.1997  0.0069  0.0000 </r>
        <r>  0.1913  0.0061  0.0000 </r>
        <r>  0.1913  0.0061  0.0000 </r>
       </set>
       <set comment="band 4">
        <r>  0.2004  0.0044  0.0000 </r>
        <r>  0.2004  0.0044  0.0000 </r>
        <r>  0.2091  0.0058  0.0000 </r>
        <r>  0.2091  0.0058  0.0000 </r>
       </set>
       <set comment="band 5">
        <r>  0.0093  0.1568  0.0000 </r>
        <r>  0.0093  0.1568  0.0000 </r>
        <r>  0.0086  0.1753  0.0000 </r>
        <r>  0.0086  0.1753  0.0000 </r>
       </set>
       <set comment="band 6">
        <r>  0.0171  0.2024  0.0000 </r>
        <r>  0.0171  0.2024  0.0000 </r>
        <r>  0.0137  0.1323  0.0000 </r>
        <r>  0.0137  0.1323  0.0000 </r>
       </set>
       <set comment="band 7">
        <r>  0.0000  0.1384  0.0000 </r>
        <r>  0.0000  0.1384  0.0000 </r>
        <r>  0.0000  0.1362  0.0000 </r>
        <r>  0.0000  0.1362  0.0000 </r>
       </set>
       <set comment="band 8">
        <r>  0.0000  0.1430  0.0000 </r>
        <r>  0.0000  0.1430  0.0000 </r>
        <r>  0.0000  0.1469  0.0000 </r>
        <r>  0.0000  0.1469  0.0000 </r>
       </set>
       <set comment="band 9">
        <r>  0.0038  0.0321  0.0000 </r>
        <r>  0.0038  0.0321  0.0000 </r>
        <r>  0.0001  0.2710  0.0000 </r>
        <r>  0.0001  0.2710  0.0000 </r>
       </set>
       <set comment="band 10">
        <r>  0.0000  0.2532  0.0000 </r>
        <r>  0.0000  0.2532  0.0000 </r>
        <r>  0.0065  0.0707  0.0000 </r>
        <r>  0.0065  0.0707  0.0000 </r>
       </set>
       <set comment="band 11">
        <r>  0.0000  0.1570  0.0000 </r>
        <r>  0.0000  0.1570  0.0000 </r>
        <r>  0.0000  0.1493  0.0000 </r>
        <r>  0.0000  0.1493  0.0000 </r>
       </set>
       <set comment="band 12">
        <r>  0.0002  0.2454  0.0000 </r>
        <r>  0.0002  0.2454  0.0000 </r>
        <r>  0.0058  0.0815  0.0000 </r>
        <r>  0.0058  0.0815  0.0000 </r>
       </set>
       <set comment="band 13">
        <r>  0.0030  0.0789  0.0000 </r>
        <r>  0.0030  0.0789  0.0000 </r>
        <r>  0.0003  0.2740  0.0000 </r>
        <r>  0.0003  0.2740  0.0000 </r>
       </set>
       <set comment="band 14">
        <r>  0.0000  0.1715  0.0000 </r>
        <r>  0.0000  0.1715  0.0000 </r>
        <r>  0.0000  0.1781  0.0000 </r>
        <r>  0.0000  0.1781  0.0000 </r>
       </set>
       <set comment="band 15">
        <r>  0.0152  0.1971  0.0000 </r>
        <r>  0.0152  0.1971  0.0000 </r>
        <r>  0.0135  0.1237  0.0000 </r>
        <r>  0.0135  0.1237  0.0000 </r>
       </set>
       <set comment="band 16">
        <r>  0.0069  0.1568  0.0000 </r>
        <r>  0.0069  0.1568  0.0000 </r>
        <r>  0.0055  0.1842  0.0000 </r>
        <r>  0.0055  0.1842  0.0000 </r>
       </set>
       <set comment="band 17">
        <r>  0.0004  0.0106  0.0000 </r>
        <r>  0.0004  0.0106  0.0000 </r>
        <r>  0.0014  0.0119  0.0000 </r>
        <r>  0.0014  0.0119  0.0000 </r>
       </set>
       <set comment="band 18">
        <r>  0.0000  0.0297  0.0000 </r>
        <r>  0.0000  0.0297  0.0000 </r>
        <r>  0.0000  0.0077  0.0000 </r>
        <r>  0.0000  0.0077  0.0000 </r>
       </set>
      </set>
     </set>
    </set>
   </array>
  </projected>
 </calculation>
 <structure name="finalpos" >
  <crystal>
   <varray name="basis" >
    <v>       3.41841905      -1.94591856       0.00000000 </v>
    <v>       3.41841905       1.94591856      -0.00000000 </v>
    <v>       0.00000000       0.00000000       8.02144520 </v>
   </varray>
   <i name="volume">    106.71674687 </i>
   <varray name="rec_basis" >
    <v>       0.14626644      -0.25694806       0.00000000 </v>
    <v>       0.14626644       0.25694806      -0.00000000 </v>
    <v>       0.00000000       0.00000000       0.12466581 </v>
   </varray>
  </crystal>
  <varray name="positions" >
   <v>       0.37457924       0.62542076       0.11033098 </v>
   <v>       0.62542076       0.37457924       0.88966902 </v>
   <v>       0.12542076       0.87457924       0.61033098 </v>
   <v>       0.87457924       0.12542076       0.38966902 </v>
  </varray>
 </structure>
</modeling>
