       N       E                     dE             d eps       ncg     rms          rms(c)
DAV:   1     0.233888075443E+04    0.23389E+04   -0.12262E+05  1144   0.746E+02
DAV:   2     0.334916224944E+02   -0.23054E+04   -0.22302E+04  1404   0.197E+02
DAV:   3    -0.175374544699E+03   -0.20887E+03   -0.20797E+03  1360   0.666E+01
DAV:   4    -0.178802878456E+03   -0.34283E+01   -0.34204E+01  1344   0.993E+00
DAV:   5    -0.178878904795E+03   -0.76026E-01   -0.75972E-01  1320   0.136E+00    0.257E+01
DAV:   6    -0.171336765735E+03    0.75421E+01   -0.34153E+01  1256   0.705E+00    0.142E+01
DAV:   7    -0.174445313918E+03   -0.31085E+01   -0.64252E+00  1360   0.331E+00    0.970E+00
DAV:   8    -0.177184476789E+03   -0.27392E+01   -0.15423E+00  1320   0.158E+00    0.510E+00
DAV:   9    -0.178644602847E+03   -0.14601E+01   -0.12865E+00  1304   0.129E+00    0.121E+00
DAV:  10    -0.178744274645E+03   -0.99672E-01   -0.10216E-01  1304   0.405E-01    0.734E-01
DAV:  11    -0.178776475055E+03   -0.32200E-01   -0.20358E-02  1280   0.187E-01    0.437E-01
DAV:  12    -0.178787746614E+03   -0.11272E-01   -0.10912E-02  1352   0.137E-01    0.115E-01
DAV:  13    -0.178788043507E+03   -0.29689E-03   -0.82816E-04  1432   0.413E-02    0.389E-02
DAV:  14    -0.178788047853E+03   -0.43461E-05   -0.45173E-05  1160   0.132E-02
   1 F= -.17878805E+03 E0= -.17878805E+03  d E =-.178788E+03  mag=    -0.0045
       N       E                     dE             d eps       ncg     rms          rms(c)
DAV:   1    -0.178879927650E+03   -0.91884E-01   -0.11732E+01  1136   0.416E+00    0.130E+00
DAV:   2    -0.178918001722E+03   -0.38074E-01   -0.42994E-01  1248   0.809E-01    0.604E-01
DAV:   3    -0.178916222923E+03    0.17788E-02   -0.47327E-03  1352   0.104E-01    0.391E-01
DAV:   4    -0.178914718070E+03    0.15049E-02   -0.51851E-03  1328   0.107E-01    0.201E-01
DAV:   5    -0.178914762079E+03   -0.44009E-04   -0.12258E-03  1368   0.468E-02    0.686E-02
DAV:   6    -0.178914685576E+03    0.76503E-04   -0.67312E-05  1168   0.227E-02    0.374E-02
DAV:   7    -0.178914646167E+03    0.39409E-04   -0.12455E-04  1360   0.262E-02    0.171E-02
DAV:   8    -0.178914652688E+03   -0.65208E-05   -0.75611E-05  1200   0.123E-02
   2 F= -.17891465E+03 E0= -.17891465E+03  d E =-.126605E+00  mag=     0.0000
       N       E                     dE             d eps       ncg     rms          rms(c)
DAV:   1    -0.178852143177E+03    0.62503E-01   -0.10537E+02  1144   0.126E+01    0.398E+00
DAV:   2    -0.179202369671E+03   -0.35023E+00   -0.39648E+00  1264   0.246E+00    0.180E+00
DAV:   3    -0.179186354752E+03    0.16015E-01   -0.46392E-02  1376   0.334E-01    0.121E+00
DAV:   4    -0.179173038930E+03    0.13316E-01   -0.36850E-02  1328   0.296E-01    0.635E-01
DAV:   5    -0.179172716507E+03    0.32242E-03   -0.10043E-02  1376   0.147E-01    0.235E-01
DAV:   6    -0.179172021970E+03    0.69454E-03   -0.63177E-04  1408   0.795E-02    0.117E-01
DAV:   7    -0.179171670630E+03    0.35134E-03   -0.11899E-03  1488   0.105E-01    0.630E-02
DAV:   8    -0.179171788867E+03   -0.11824E-03   -0.10756E-03  1296   0.456E-02    0.507E-02
DAV:   9    -0.179171805418E+03   -0.16550E-04   -0.67650E-05  1256   0.127E-02    0.315E-02
DAV:  10    -0.179171808009E+03   -0.25914E-05   -0.32104E-05  1104   0.115E-02
   3 F= -.17917181E+03 E0= -.17917181E+03  d E =-.383760E+00  mag=    -0.0000
       N       E                     dE             d eps       ncg     rms          rms(c)
DAV:   1    -0.177634016769E+03    0.15378E+01   -0.41438E+02  1160   0.256E+01    0.103E+01
DAV:   2    -0.179306827838E+03   -0.16728E+01   -0.18976E+01  1264   0.550E+00    0.439E+00
DAV:   3    -0.179235891741E+03    0.70936E-01   -0.25216E-01  1384   0.849E-01    0.300E+00
DAV:   4    -0.179191393302E+03    0.44498E-01   -0.82050E-02  1384   0.452E-01    0.192E+00
DAV:   5    -0.179175908385E+03    0.15485E-01   -0.37298E-02  1360   0.344E-01    0.900E-01
DAV:   6    -0.179171759440E+03    0.41489E-02   -0.13584E-02  1488   0.294E-01    0.205E-01
DAV:   7    -0.179171887294E+03   -0.12785E-03   -0.97707E-03  1472   0.195E-01    0.247E-01
DAV:   8    -0.179172025105E+03   -0.13781E-03   -0.19293E-03  1328   0.661E-02    0.211E-01
DAV:   9    -0.179171989120E+03    0.35985E-04   -0.16351E-04  1272   0.172E-02    0.164E-01
DAV:  10    -0.179172074441E+03   -0.85321E-04   -0.55171E-04  1296   0.384E-02    0.112E-01
DAV:  11    -0.179172097888E+03   -0.23447E-04   -0.14124E-04  1344   0.188E-02    0.651E-02
DAV:  12    -0.179172082827E+03    0.15061E-04   -0.72636E-05  1280   0.128E-02    0.243E-02
DAV:  13    -0.179172082851E+03   -0.23641E-07   -0.27848E-05  1040   0.845E-03
   4 F= -.17917208E+03 E0= -.17917208E+03  d E =-.384035E+00  mag=     0.0000
       N       E                     dE             d eps       ncg     rms          rms(c)
DAV:   1    -0.178932284003E+03    0.23980E+00   -0.10131E+02  1128   0.133E+01    0.389E+00
DAV:   2    -0.179288523649E+03   -0.35624E+00   -0.40337E+00  1272   0.273E+00    0.179E+00
DAV:   3    -0.179272584303E+03    0.15939E-01   -0.42580E-02  1376   0.359E-01    0.122E+00
DAV:   4    -0.179260239254E+03    0.12345E-01   -0.25931E-02  1376   0.282E-01    0.712E-01
DAV:   5    -0.179258459613E+03    0.17796E-02   -0.12239E-02  1360   0.191E-01    0.270E-01
DAV:   6    -0.179257603603E+03    0.85601E-03   -0.15728E-03  1520   0.117E-01    0.880E-02
DAV:   7    -0.179257247746E+03    0.35586E-03   -0.13172E-03  1560   0.910E-02    0.748E-02
DAV:   8    -0.179257258452E+03   -0.10707E-04   -0.53122E-04  1312   0.360E-02    0.591E-02
DAV:   9    -0.179257237424E+03    0.21028E-04   -0.49434E-05  1168   0.109E-02    0.361E-02
DAV:  10    -0.179257226668E+03    0.10756E-04   -0.41619E-05  1152   0.135E-02    0.126E-02
DAV:  11    -0.179257225480E+03    0.11876E-05   -0.79544E-06   912   0.662E-03
   5 F= -.17925723E+03 E0= -.17925723E+03  d E =-.469178E+00  mag=     0.0000
       N       E                     dE             d eps       ncg     rms          rms(c)
DAV:   1    -0.179270277485E+03   -0.13051E-01   -0.13024E+01  1128   0.489E+00    0.114E+00
DAV:   2    -0.179312544115E+03   -0.42267E-01   -0.47862E-01  1264   0.971E-01    0.548E-01
DAV:   3    -0.179311271398E+03    0.12727E-02   -0.46836E-03  1392   0.115E-01    0.361E-01
DAV:   4    -0.179310431007E+03    0.84039E-03   -0.16133E-03  1392   0.680E-02    0.228E-01
DAV:   5    -0.179310262281E+03    0.16873E-03   -0.91611E-04  1360   0.510E-02    0.946E-02
DAV:   6    -0.179310249004E+03    0.13277E-04   -0.19187E-04  1488   0.319E-02    0.288E-02
DAV:   7    -0.179310237013E+03    0.11991E-04   -0.13281E-04  1424   0.212E-02    0.225E-02
DAV:   8    -0.179310236308E+03    0.70487E-06   -0.18790E-05   936   0.666E-03
   6 F= -.17931024E+03 E0= -.17931024E+03  d E =-.530108E-01  mag=    -0.0000
       N       E                     dE             d eps       ncg     rms          rms(c)
DAV:   1    -0.179131395389E+03    0.17884E+00   -0.74892E+01  1128   0.117E+01    0.278E+00
DAV:   2    -0.179382608508E+03   -0.25121E+00   -0.28455E+00  1264   0.235E+00    0.133E+00
DAV:   3    -0.179374994618E+03    0.76139E-02   -0.27648E-02  1392   0.280E-01    0.878E-01
DAV:   4    -0.179369964894E+03    0.50297E-02   -0.98177E-03  1384   0.167E-01    0.548E-01
DAV:   5    -0.179369008586E+03    0.95631E-03   -0.48861E-03  1360   0.116E-01    0.233E-01
DAV:   6    -0.179368883965E+03    0.12462E-03   -0.93590E-04  1456   0.728E-02    0.624E-02
DAV:   7    -0.179368840624E+03    0.43341E-04   -0.67398E-04  1416   0.469E-02    0.511E-02
DAV:   8    -0.179368840445E+03    0.17835E-06   -0.92305E-05  1352   0.143E-02
   7 F= -.17936884E+03 E0= -.17936884E+03  d E =-.111615E+00  mag=    -0.0000
       N       E                     dE             d eps       ncg     rms          rms(c)
DAV:   1    -0.179367862047E+03    0.97858E-03   -0.43052E-01  1168   0.879E-01    0.221E-01
DAV:   2    -0.179369228294E+03   -0.13662E-02   -0.15735E-02  1280   0.174E-01    0.887E-02
DAV:   3    -0.179369185851E+03    0.42443E-04   -0.14943E-04  1392   0.208E-02    0.574E-02
DAV:   4    -0.179369150693E+03    0.35158E-04   -0.11122E-04  1360   0.194E-02    0.267E-02
DAV:   5    -0.179369151522E+03   -0.82865E-06   -0.35258E-05  1112   0.940E-03
   8 F= -.17936915E+03 E0= -.17936915E+03  d E =-.111926E+00  mag=    -0.0000
       N       E                     dE             d eps       ncg     rms          rms(c)
DAV:   1    -0.179368865923E+03    0.28477E-03   -0.18373E+00  1148   0.181E+00    0.382E-01
DAV:   2    -0.179374653011E+03   -0.57871E-02   -0.65355E-02  1216   0.356E-01    0.179E-01
DAV:   3    -0.179374490372E+03    0.16264E-03   -0.55572E-04  1392   0.399E-02    0.119E-01
DAV:   4    -0.179374383953E+03    0.10642E-03   -0.22677E-04  1376   0.254E-02    0.712E-02
DAV:   5    -0.179374371576E+03    0.12377E-04   -0.92400E-05  1376   0.148E-02    0.298E-02
DAV:   6    -0.179374369739E+03    0.18375E-05   -0.11556E-05   928   0.820E-03
   9 F= -.17937437E+03 E0= -.17937437E+03  d E =-.521822E-02  mag=    -0.0000
       N       E                     dE             d eps       ncg     rms          rms(c)
DAV:   1    -0.179356922524E+03    0.17449E-01   -0.71389E+00  1128   0.357E+00    0.755E-01
DAV:   2    -0.179379482949E+03   -0.22560E-01   -0.25463E-01  1232   0.701E-01    0.353E-01
DAV:   3    -0.179378846892E+03    0.63606E-03   -0.21587E-03  1392   0.786E-02    0.234E-01
DAV:   4    -0.179378428839E+03    0.41805E-03   -0.89911E-04  1376   0.508E-02    0.138E-01
DAV:   5    -0.179378386390E+03    0.42449E-04   -0.36109E-04  1368   0.292E-02    0.575E-02
DAV:   6    -0.179378382528E+03    0.38622E-05   -0.50143E-05  1216   0.164E-02
  10 F= -.17937838E+03 E0= -.17937838E+03  d E =-.923101E-02  mag=     0.0000
