 vasp.6.5.1 10Mar25 (build May 13 2025 11:33:44) complex                         
 executed on              LinuxNV date 2026.05.13  15:20:49
 running    2 mpi-ranks, on    1 nodes
 distrk:  each k-point on    2 cores,    1 groups
 distr:  one band on NCORE=   1 cores,    2 groups
 Offloading initialized ...    2 GPUs detected


--------------------------------------------------------------------------------------------------------


 INCAR:
   ALGO = Normal
   PREC = Normal
   LREAL = Auto
   EDIFF = 1e-05
   ENCUT = 262.472
   LASPH = True
   NELM = 100
   ISIF = 2
   IBRION = 2
   EDIFFG = -0.03
   NSW = 300
   ISMEAR = 0
   SIGMA = 0.1
   ISPIN = 2
   LWAVE = False
   LCHARG = False
   LORBIT = 10
   GGA = Ps
   NELECT = 424.0
   KPAR = 1

 POTCAR:    PAW_PBE Cs_sv 08Apr2002               
 POTCAR:    PAW_PBE Cl 06Sep2000                  
 -----------------------------------------------------------------------------
|                                                                             |
|           W    W    AA    RRRRR   N    N  II  N    N   GGGG   !!!           |
|           W    W   A  A   R    R  NN   N  II  NN   N  G    G  !!!           |
|           W    W  A    A  R    R  N N  N  II  N N  N  G       !!!           |
|           W WW W  AAAAAA  RRRRR   N  N N  II  N  N N  G  GGG   !            |
|           WW  WW  A    A  R   R   N   NN  II  N   NN  G    G                |
|           W    W  A    A  R    R  N    N  II  N    N   GGGG   !!!           |
|                                                                             |
|     You requested a magnetic or noncollinear calculation, but did not       |
|     specify the initial magnetic moment with the MAGMOM tag. Note that      |
|     a default of 1 will be used for all atoms. This ferromagnetic setup     |
|     may break the symmetry of the crystal, in particular it may rule        |
|     out finding an antiferromagnetic solution. Thence, we recommend         |
|     setting the initial magnetic moment manually or verifying carefully     |
|     that this magnetic setup is desired.                                    |
|                                                                             |
 -----------------------------------------------------------------------------

 POTCAR:    PAW_PBE Cs_sv 08Apr2002               
   SHA256 =  c1463496f0f6037ed62c6012a8013a89ee9ad6ffb38599dcd6c079e7ed31779b Cs_sv/POTCAR          
   COPYR  = (c) Copyright 08Apr2002 Georg Kresse                                                    
   COPYR  = This file is part of the software VASP. Any use, copying, and all other rights are regul
   COPYR  = If you do not have a valid VASP license, you may not use, copy or distribute this file. 
   VRHFIN =Cs: 5s5p6s                                                                               
   LEXCH  = PE                                                                                      
   EATOM  =   555.6835 eV,   40.8416 Ry                                                             
                                                                                                    
   TITEL  = PAW_PBE Cs_sv 08Apr2002                                                                 
   LULTRA =        F    use ultrasoft PP ?                                                          
   IUNSCR =        1    unscreen: 0-lin 1-nonlin 2-no                                               
   RPACOR =    2.200    partial core radius                                                         
   POMASS =  132.900; ZVAL   =    9.000    mass and valenz                                          
   RCORE  =    2.500    outmost cutoff radius                                                       
   RWIGS  =    2.500; RWIGS  =    1.323    wigner-seitz radius (au A)                               
   ENMAX  =  220.318; ENMIN  =  165.238 eV                                                          
   RCLOC  =    2.207    cutoff for local pot                                                        
   LCOR   =        T    correct aug charges                                                         
   LPAW   =        T    paw PP                                                                      
   EAUG   =  407.933                                                                                
   DEXC   =    0.000                                                                                
   RMAX   =    2.554    core radius for proj-oper                                                   
   RAUG   =    1.300    factor for augmentation sphere                                              
   RDEP   =    2.590    radius for radial grids                                                     
   RDEPT  =    2.117    core radius for aug-charge                                                  
                                                                                                    
   Atomic configuration                                                                             
   13 entries                                                                                       
     n  l   j            E        occ.                                                              
     1  0  0.50    -35790.1377   2.0000                                                             
     2  0  0.50     -5613.6201   2.0000                                                             
     2  1  1.50     -5035.0101   6.0000                                                             
     3  0  0.50     -1167.0767   2.0000                                                             
     3  1  1.50      -980.9754   6.0000                                                             
     3  2  2.50      -708.0703  10.0000                                                             
     4  0  0.50      -220.2386   2.0000                                                             
     4  1  1.50      -160.7596   6.0000                                                             
     4  2  2.50       -74.2354  10.0000                                                             
     5  0  0.50       -26.7287   2.0000                                                             
     6  0  0.50        -2.0862   1.0000                                                             
     5  1  1.50       -13.5159   6.0000                                                             
     5  2  2.50        -0.4136   0.0000                                                             
   Description                                                                                      
     l       E           TYP  RCUT    TYP  RCUT                                                     
     0    -26.7287425     23  1.900                                                                 
     0     -2.0862306     23  1.900                                                                 
     1    -13.5158719     23  2.500                                                                 
     1     -2.7211652     23  2.500                                                                 
     2     -0.4136171     23  2.500                                                                 
  local pseudopotential read in
  partial core-charges read in
  partial kinetic energy density read in
  atomic valenz-charges read in
  non local Contribution for L=            0  read in
    real space projection operators read in
  non local Contribution for L=            0  read in
    real space projection operators read in
  non local Contribution for L=            1  read in
    real space projection operators read in
  non local Contribution for L=            1  read in
    real space projection operators read in
  non local Contribution for L=            2  read in
    real space projection operators read in
    PAW grid and wavefunctions read in
 
   number of l-projection  operators is LMAX  =            5
   number of lm-projection operators is LMMAX =           13
 
 POTCAR:    PAW_PBE Cl 06Sep2000                  
   SHA256 =  9f1b6e6ed4247ac726a768b330d26d7667cc3c95a39ff49c1d064c2d9dcce931 Cl/POTCAR             
   COPYR  = (c) Copyright 06Sep2000 Georg Kresse                                                    
   COPYR  = This file is part of the software VASP. Any use, copying, and all other rights are regul
   COPYR  = If you do not have a valid VASP license, you may not use, copy or distribute this file. 
   VRHFIN =Cl: s2p5                                                                                 
   LEXCH  = PE                                                                                      
   EATOM  =   409.7259 eV,   30.1140 Ry                                                             
                                                                                                    
   TITEL  = PAW_PBE Cl 06Sep2000                                                                    
   LULTRA =        F    use ultrasoft PP ?                                                          
   IUNSCR =        1    unscreen: 0-lin 1-nonlin 2-no                                               
   RPACOR =    1.500    partial core radius                                                         
   POMASS =   35.453; ZVAL   =    7.000    mass and valenz                                          
   RCORE  =    1.900    outmost cutoff radius                                                       
   RWIGS  =    2.100; RWIGS  =    1.111    wigner-seitz radius (au A)                               
   ENMAX  =  262.472; ENMIN  =  196.854 eV                                                          
   ICORE  =        2    local potential                                                             
   LCOR   =        T    correct aug charges                                                         
   LPAW   =        T    paw PP                                                                      
   EAUG   =  356.192                                                                                
   DEXC   =    0.000                                                                                
   RMAX   =    1.945    core radius for proj-oper                                                   
   RAUG   =    1.300    factor for augmentation sphere                                              
   RDEP   =    2.020    radius for radial grids                                                     
   RDEPT  =    1.678    core radius for aug-charge                                                  
                                                                                                    
   Atomic configuration                                                                             
    6 entries                                                                                       
     n  l   j            E        occ.                                                              
     1  0  0.50     -2751.1850   2.0000                                                             
     2  0  0.50      -252.6861   2.0000                                                             
     2  1  1.50      -191.6157   6.0000                                                             
     3  0  0.50       -20.6916   2.0000                                                             
     3  1  0.50        -8.5949   5.0000                                                             
     3  2  1.50        -8.1635   0.0000                                                             
   Description                                                                                      
     l       E           TYP  RCUT    TYP  RCUT                                                     
     0    -20.6915656     23  1.900                                                                 
     0    -22.0521482     23  1.900                                                                 
     1     -8.5948577     23  1.900                                                                 
     1     -5.3847331     23  1.900                                                                 
     2     -8.1634956     23  1.900                                                                 
  local pseudopotential read in
  partial core-charges read in
  partial kinetic energy density read in
  atomic valenz-charges read in
  non local Contribution for L=            0  read in
    real space projection operators read in
  non local Contribution for L=            0  read in
    real space projection operators read in
  non local Contribution for L=            1  read in
    real space projection operators read in
  non local Contribution for L=            1  read in
    real space projection operators read in
    PAW grid and wavefunctions read in
 
   number of l-projection  operators is LMAX  =            4
   number of lm-projection operators is LMMAX =            8
 
 Optimization of the real space projectors (new method)

 maximal supplied QI-value         = 15.12
 optimisation between [QCUT,QGAM] = [  8.16, 16.48] = [ 18.66, 76.04] Ry 
 Optimized for a Real-space Cutoff    1.70 Angstroem

   l    n(q)    QCUT    max X(q) W(low)/X(q) W(high)/X(q)  e(spline) 
   0      8     8.164    25.322    0.15E-03    0.18E-03    0.41E-06
   0      8     8.164    99.187    0.15E-03    0.17E-03    0.40E-06
   1      8     8.164    11.761    0.31E-03    0.25E-03    0.22E-06
   1      8     8.164     8.275    0.36E-03    0.24E-03    0.25E-06
   2      7     8.164     3.829    0.38E-03    0.57E-03    0.14E-06
 Optimization of the real space projectors (new method)

 maximal supplied QI-value         = 19.84
 optimisation between [QCUT,QGAM] = [  8.14, 16.47] = [ 18.53, 75.95] Ry 
 Optimized for a Real-space Cutoff    1.51 Angstroem

   l    n(q)    QCUT    max X(q) W(low)/X(q) W(high)/X(q)  e(spline) 
   0      7     8.135   168.010    0.81E-04    0.25E-03    0.15E-06
   0      7     8.135   164.674    0.79E-04    0.25E-03    0.14E-06
   1      7     8.135    69.222    0.47E-03    0.95E-03    0.99E-07
   1      7     8.135    56.786    0.47E-03    0.93E-03    0.97E-07
 -----------------------------------------------------------------------------
|                                                                             |
|               ----> ADVICE to this user running VASP <----                  |
|                                                                             |
|     You enforced a specific xc type in the INCAR file but a different       |
|     type was found in the POTCAR file.                                      |
|     I HOPE YOU KNOW WHAT YOU ARE DOING!                                     |
|                                                                             |
 -----------------------------------------------------------------------------

  PAW_PBE Cs_sv 08Apr2002               :
 energy of atom  1       EATOM= -555.6835
 kinetic energy error for atom=    0.0137 (will be added to EATOM!!)
  PAW_PBE Cl 06Sep2000                  :
 energy of atom  2       EATOM= -409.7259
 kinetic energy error for atom=    0.0483 (will be added to EATOM!!)
 
 
 POSCAR: Cs26 Cl27
  positions in direct lattice
  No initial velocities read in


 exchange-correlation table for PS
   RHO(1)=    0.500       N(1)  =     2000
   RHO(2)=  100.500       N(2)  =     4000
 


--------------------------------------------------------------------------------------------------------


 ion  position               nearest neighbor table
   1  0.995  0.997  0.336-
   2  0.999  0.999  0.665-
   3  0.998  0.338  0.001-
   4  0.000  0.333  0.333-
   5  0.000  0.333  0.667-
   6  0.991  0.656  0.999-
   7  0.000  0.667  0.333-
   8  0.000  0.667  0.667-
   9  0.344  0.001  0.001-
  10  0.333  0.000  0.333-
  11  0.333  0.000  0.667-
  12  0.333  0.333  0.000-
  13  0.333  0.333  0.333-
  14  0.333  0.333  0.667-
  15  0.333  0.667  0.000-
  16  0.333  0.667  0.333-
  17  0.333  0.667  0.667-
  18  0.678  1.000  0.998-
  19  0.667  0.000  0.333-
  20  0.667  0.000  0.667-
  21  0.667  0.333  0.000-
  22  0.667  0.333  0.333-
  23  0.667  0.333  0.667-
  24  0.667  0.667  0.000-
  25  0.667  0.667  0.333-
  26  0.667  0.667  0.667-
  27  0.167  0.166  0.169-
  28  0.167  0.167  0.500-
  29  0.165  0.172  0.834-
  30  0.167  0.500  0.167-
  31  0.167  0.500  0.500-
  32  0.167  0.500  0.833-
  33  0.170  0.834  0.164-
  34  0.167  0.833  0.500-
  35  0.171  0.830  0.832-
  36  0.500  0.167  0.167-
  37  0.500  0.167  0.500-
  38  0.500  0.167  0.833-
  39  0.500  0.500  0.167-
  40  0.500  0.500  0.500-
  41  0.500  0.500  0.833-
  42  0.500  0.833  0.167-
  43  0.500  0.833  0.500-
  44  0.500  0.833  0.833-
  45  0.825  0.159  0.163-
  46  0.833  0.167  0.500-
  47  0.831  0.166  0.835-
  48  0.833  0.500  0.167-
  49  0.833  0.500  0.500-
  50  0.833  0.500  0.833-
  51  0.829  0.828  0.162-
  52  0.833  0.833  0.500-
  53  0.826  0.841  0.845-
 
  LATTYP: Found a simple cubic cell.
 ALAT       =    12.2263459172
  
  Lattice vectors:
  
 A1 = (  12.2263459172,   0.0000000000,   0.0000000000)
 A2 = (   0.0000000000,  12.2263459172,   0.0000000000)
 A3 = (   0.0000000000,   0.0000000000,  12.2263459172)


Analysis of symmetry for initial positions (statically):
=====================================================================
 Subroutine PRICEL returns:
 Original cell was already a primitive cell.
 

 Routine SETGRP: Setting up the symmetry group for a 
 simple cubic supercell.


 Subroutine GETGRP returns: Found  1 space group operations
 (whereof  1 operations were pure point group operations)
 out of a pool of 48 trial point group operations.


The static configuration has the point symmetry C_1 .


Analysis of symmetry for dynamics (positions and initial velocities):
=====================================================================
 Subroutine PRICEL returns:
 Original cell was already a primitive cell.
 

 Routine SETGRP: Setting up the symmetry group for a 
 simple cubic supercell.


 Subroutine GETGRP returns: Found  1 space group operations
 (whereof  1 operations were pure point group operations)
 out of a pool of 48 trial point group operations.


The dynamic configuration has the point symmetry C_1 .


Analysis of structural, dynamic, and magnetic symmetry:
=====================================================================
 Subroutine PRICEL returns:
 Original cell was already a primitive cell.
 

 Routine SETGRP: Setting up the symmetry group for a 
 simple cubic supercell.


 Subroutine GETGRP returns: Found  1 space group operations
 (whereof  1 operations were pure point group operations)
 out of a pool of 48 trial point group operations.


The overall configuration has the point symmetry C_1 .


 Subroutine INISYM returns: Found  1 space group operations
 (whereof  1 operations are pure point group operations),
 and found     1 'primitive' translations


----------------------------------------------------------------------------------------

                                     Primitive cell                                     

  volume of cell :    1827.6374

  direct lattice vectors                    reciprocal lattice vectors
    12.226345917  0.000000000  0.000000000     0.081790586  0.000000000  0.000000000
     0.000000000 12.226345917  0.000000000     0.000000000  0.081790586  0.000000000
     0.000000000  0.000000000 12.226345917     0.000000000  0.000000000  0.081790586

  length of vectors
    12.226345917 12.226345917 12.226345917     0.081790586  0.081790586  0.081790586

  position of ions in fractional coordinates (direct lattice)
     0.995469652  0.996711088  0.335831783
     0.998748126  0.999109919  0.665313174
     0.998156918  0.337962587  0.000672032
     0.000000000  0.333333333  0.333333333
     0.000000000  0.333333333  0.666666667
     0.990674722  0.655881392  0.999215958
     0.000000000  0.666666667  0.333333333
     0.000000000  0.666666667  0.666666667
     0.343786117  0.001092181  0.001435634
     0.333333333  0.000000000  0.333333333
     0.333333333  0.000000000  0.666666667
     0.333333333  0.333333333  0.000000000
     0.333333333  0.333333333  0.333333333
     0.333333333  0.333333333  0.666666667
     0.333333333  0.666666667  0.000000000
     0.333333333  0.666666667  0.333333333
     0.333333333  0.666666667  0.666666667
     0.678308818  0.999663981  0.998032722
     0.666666667  0.000000000  0.333333333
     0.666666667  0.000000000  0.666666667
     0.666666667  0.333333333  0.000000000
     0.666666667  0.333333333  0.333333333
     0.666666667  0.333333333  0.666666667
     0.666666667  0.666666667  0.000000000
     0.666666667  0.666666667  0.333333333
     0.666666667  0.666666667  0.666666667
     0.166674587  0.166108731  0.169311158
     0.166666667  0.166666667  0.500000000
     0.164901329  0.171915759  0.833550266
     0.166666667  0.500000000  0.166666667
     0.166666667  0.500000000  0.500000000
     0.166666667  0.500000000  0.833333333
     0.170274814  0.833912218  0.163796392
     0.166666667  0.833333333  0.500000000
     0.171466453  0.830095837  0.831517070
     0.500000000  0.166666667  0.166666667
     0.500000000  0.166666667  0.500000000
     0.500000000  0.166666667  0.833333333
     0.500000000  0.500000000  0.166666667
     0.500000000  0.500000000  0.500000000
     0.500000000  0.500000000  0.833333333
     0.500000000  0.833333333  0.166666667
     0.500000000  0.833333333  0.500000000
     0.500000000  0.833333333  0.833333333
     0.825420049  0.159251579  0.162702158
     0.833333333  0.166666667  0.500000000
     0.830753839  0.166193087  0.834515214
     0.833333333  0.500000000  0.166666667
     0.833333333  0.500000000  0.500000000
     0.833333333  0.500000000  0.833333333
     0.829272302  0.828417974  0.162153457
     0.833333333  0.833333333  0.500000000
     0.825559417  0.840842457  0.845397509

  ion indices of the primitive-cell ions
   primitive index   ion index
                 1           1
                 2           2
                 3           3
                 4           4
                 5           5
                 6           6
                 7           7
                 8           8
                 9           9
                10          10
                11          11
                12          12
                13          13
                14          14
                15          15
                16          16
                17          17
                18          18
                19          19
                20          20
                21          21
                22          22
                23          23
                24          24
                25          25
                26          26
                27          27
                28          28
                29          29
                30          30
                31          31
                32          32
                33          33
                34          34
                35          35
                36          36
                37          37
                38          38
                39          39
                40          40
                41          41
                42          42
                43          43
                44          44
                45          45
                46          46
                47          47
                48          48
                49          49
                50          50
                51          51
                52          52
                53          53

----------------------------------------------------------------------------------------

 
 
 KPOINTS: Num irrep kpoints: 1                    

Automatic generation of k-mesh.
 Grid dimensions read from file:
 generate k-points for:    1    1    1

 Generating k-lattice:

  Cartesian coordinates                     Fractional coordinates (reciprocal lattice)
     0.081790586  0.000000000  0.000000000     1.000000000  0.000000000  0.000000000
     0.000000000  0.081790586  0.000000000     0.000000000  1.000000000  0.000000000
     0.000000000  0.000000000  0.081790586     0.000000000  0.000000000  1.000000000

  Length of vectors
     0.081790586  0.081790586  0.081790586

  Shift w.r.t. Gamma in fractional coordinates (k-lattice)
     0.000000000  0.000000000  0.000000000

 
 Subroutine IBZKPT returns following result:
 ===========================================
 
 Found      1 irreducible k-points:
 
 Following reciprocal coordinates:
            Coordinates               Weight
  0.000000  0.000000  0.000000      1.000000
 
 Following cartesian coordinates:
            Coordinates               Weight
  0.000000  0.000000  0.000000      1.000000
 


--------------------------------------------------------------------------------------------------------




 Dimension of arrays:
   k-points           NKPTS =      1   k-points in BZ     NKDIM =      1   number of bands    NBANDS=    282
   number of dos      NEDOS =    301   number of ions     NIONS =     53
   non local maximal  LDIM  =      5   non local SUM 2l+1 LMDIM =     13
   total plane-waves  NPLWV = 110592
   max r-space proj   IRMAX =   1304   max aug-charges    IRDMAX=   3224
   dimension x,y,z NGX =    48 NGY =   48 NGZ =   48
   dimension x,y,z NGXF=    96 NGYF=   96 NGZF=   96
   support grid    NGXF=    96 NGYF=   96 NGZF=   96
   ions per type =              26  27
   NGX,Y,Z   is equivalent  to a cutoff of   6.53,  6.53,  6.53 a.u.
   NGXF,Y,Z  is equivalent  to a cutoff of  13.05, 13.05, 13.05 a.u.

 SYSTEM =  unknown system                          
 POSCAR =  Cs26 Cl27                               

 Startparameter for this run:
   NWRITE =      2    write-flag & timer
   PREC   = normal    normal or accurate (medium, high low for compatibility)
   ISTART =      0    job   : 0-new  1-cont  2-samecut
   ICHARG =      2    charge: 1-file 2-atom 10-const
   ISPIN  =      2    spin polarized calculation?
   LNONCOLLINEAR =      F non collinear calculations
   LSORBIT =      F    spin-orbit coupling
   INIWAV =      1    electr: 0-lowe 1-rand  2-diag
   LASPH  =      T    aspherical Exc in radial PAW
 Electronic Relaxation 1
   ENCUT  =  262.5 eV  19.29 Ry    4.39 a.u.  16.15 16.15 16.15*2*pi/ulx,y,z
   ENINI  =  262.5     initial cutoff
   ENAUG  =  407.9 eV  augmentation charge cutoff
   NELM   =    100;   NELMIN=  2; NELMDL= -5     # of ELM steps 
   EDIFF  = 0.1E-04   stopping-criterion for ELM
   LREAL  =      T    real-space projection
   NLSPLINE    = F    spline interpolate recip. space projectors
   LCOMPAT=      F    compatible to vasp.4.4
   GGA_COMPAT  = T    GGA compatible to vasp.4.4-vasp.4.6
   LMAXPAW     = -100 max onsite density
   LMAXMIX     =    2 max onsite mixed and CHGCAR
   VOSKOWN=      0    Vosko Wilk Nusair interpolation
   ROPT   =   -0.00050  -0.00050
 Ionic relaxation
   EDIFFG = -.3E-01   stopping-criterion for IOM
   NSW    =    300    number of steps for IOM
   NBLOCK =      1;   KBLOCK =    300    inner block; outer block 
   IBRION =      2    ionic relax: 0-MD 1-quasi-New 2-CG
   NFREE  =      1    steps in history (QN), initial steepest desc. (CG)
   ISIF   =      2    stress and relaxation
   IWAVPR =     11    prediction:  0-non 1-charg 2-wave 3-comb
   ISYM   =      2    0-nonsym 1-usesym 2-fastsym
   LCORR  =      T    Harris-Foulkes like correction to forces

   POTIM  = 0.5000    time-step for ionic-motion
   TEIN   =    0.0    initial temperature
   TEBEG  =    0.0;   TEEND  =   0.0 temperature during run
   SMASS  =  -3.00    Nose mass-parameter (am)
   estimated Nose-frequenzy (Omega)   =  0.10E-29 period in steps = 0.13E+47 mass=  -0.342E-26a.u.
   SCALEE = 1.0000    scale energy and forces
   NPACO  =    256;   APACO  = 10.0  distance and # of slots for P.C.
   PSTRESS=    0.0 pullay stress

  Mass of Ions in am
   POMASS = 132.90 35.45
  Ionic Valenz
   ZVAL   =   9.00  7.00
  Atomic Wigner-Seitz radii
   RWIGS  =  -1.00 -1.00
  virtual crystal weights 
   VCA    =   1.00  1.00
   NELECT =     424.0000    total number of electrons
   NUPDOWN=      -1.0000    fix difference up-down

 DOS related values:
   EMIN   =  10.00;   EMAX   =-10.00  energy-range for DOS
   EFERMI =   0.00;   METHOD = LEGACY      
   ISMEAR =     0;   SIGMA  =   0.10  broadening in eV -4-tet -1-fermi 0-gaus
   EFERMI_NEDOS =   21; number of points for ismear=-14 and -15

 Electronic relaxation 2 (details)
   IALGO  =     38    algorithm
   LDIAG  =      T    sub-space diagonalisation (order eigenvalues)
   LSUBROT=      F    optimize rotation matrix (better conditioning)
   LROBUST=      F    robust break criterion during scf (extrapolated energy error)
   ISEARCH=      0    line search for conjugate gradient (0, 1=use gradient)
   TURBO    =      0    0=normal 1=particle mesh
   IRESTART =      0    0=no restart 2=restart with 2 vectors
   NREBOOT  =      0    no. of reboots
   NMIN     =      0    reboot dimension
   EREF     =   0.00    reference energy to select bands
   IMIX   =      4    mixing-type and parameters
     AMIX     =   0.40;   BMIX     =  1.00
     AMIX_MAG =   1.60;   BMIX_MAG =  1.00
     AMIN     =   0.10
     WC   =   100.;   INIMIX=   1;  MIXPRE=   1;  MAXMIX= -45

 Intra band minimization:
   WEIMIN = 0.0010     energy-eigenvalue tresh-hold
   EBREAK =  0.89E-08  absolut break condition
   DEPER  =   0.30     relativ break condition  

   TIME   =   0.40     timestep for ELM

  volume/ion in A,a.u.               =      34.48       232.71
  Fermi-wavevector in a.u.,A,eV,Ry     =   1.005928  1.900928 13.767607  1.011891
  Thomas-Fermi vector in A             =   2.138638
 
 Write flags
   LWAVE        =      F    write WAVECAR
   LDOWNSAMPLE  =      F    k-point downsampling of WAVECAR
   LCHARG       =      F    write CHGCAR
   LVTOT        =      F    write LOCPOT, total local potential
   LVHAR        =      F    write LOCPOT, Hartree potential only
   WRT_POTENTIAL= false  ! write potential to hdf5 file
   LELF         =      F    write electronic localiz. function (ELF)
   LORBIT       =     10    0 simple, 1 ext, 2 COOP (PROOUT), +10 PAW based schemes


 Python interface
   PLUGINS active      =      F    recompile with -DPLUGINS to activate
 
 Dipole corrections
   LMONO      =      F    monopole corrections only (constant potential shift)
   LDIPOL     =      F    correct potential (dipole corrections)
   IDIPOL     =      0    1-x, 2-y, 3-z, 4-all directions 
   EPSILON    =  1.0000000 bulk dielectric constant
   LVACPOTAV  =      F  vacuum potentials using an averaging scheme for the charge density
   VACPOTFLAT =  0.1000000 required flatness to determine vacuum potential
 
Coulomb truncation method
  LTRUNCATE          =      F  Coulomb kernel truncation to be used

 
 Exchange correlation treatment:
   GGA     = PS    functional components
   XC_C    = 1    coefficients multiplying the functional components
   LIBXC   =     F    Libxc                    
   VOSKOWN =     0    Vosko Wilk Nusair interpolation
   LHFCALC =     F    Hartree Fock is set to
   LHFONE  =     F    Hartree Fock one center treatment
   AEXX    =    0.0000 exact exchange contribution

 Parameters of functionals:
   PS:
     No parameter
 
 Van der Waals corrections
   IVDW    =     0    specifies the selected vdW correction

 Linear response parameters
   LEPSILON=     F    determine dielectric tensor
   LRPA    =     F    only Hartree local field effects (RPA)
   LNABLA  =     F    use nabla operator in PAW spheres
   LVEL    =     F    velocity operator in full k-point grid
   CSHIFT  =0.1000    complex shift for real part using Kramers Kronig
   OMEGAMAX=  -1.0    maximum frequency
   DEG_THRESHOLD= 0.2000000E-02 threshold for treating states as degnerate
   RTIME   =   -0.100 relaxation time in fs
  (WPLASMAI=    0.000 imaginary part of plasma frequency in eV, 0.658/RTIME)
   DFIELD  = 0.0000000 0.0000000 0.0000000 field for delta impulse in time
 
  Optional k-point grid parameters
   LKPOINTS_OPT  =     F    use optional k-point grid
   KPOINTS_OPT_MODE=     1    mode for optional k-point grid
 
 Orbital magnetization related:
   ORBITALMAG=     F  switch on orbital magnetization
   LCHIMAG   =     F  perturbation theory with respect to B field
   DQ        =  0.001000  dq finite difference perturbation B field
   LLRAUG    =     F  two centre corrections for induced B field
   LBONE     =     F  B-component reconstruction in AE one-centre
   LVGVCALC  =     T  calculate vGv susceptibility
   LVGVAPPL  =     F  apply vGv susceptibility instead of pGv for G=0

 Random number generation:
   RANDOM_GENERATOR = DEFAULT
   PCG_SEED         = not used


--------------------------------------------------------------------------------------------------------


 conjugate gradient relaxation of ions
 charge density and potential will be updated during run
 spin polarized calculation
 Variant of blocked Davidson
 Davidson routine will perform the subspace rotation
 perform sub-space diagonalisation
    after iterative eigenvector-optimisation
 modified Broyden-mixing scheme, WC =      100.0
 initial mixing is a Kerker type mixing with AMIX =  0.4000 and BMIX =      1.0000
 Hartree-type preconditioning will be used
 using additional bands            70
 real space projection scheme for non local part
 use partial core corrections
 calculate Harris-corrections to forces 
   (improved forces if not selfconsistent)
 use gradient corrections 
 use of overlap-Matrix (Vanderbilt PP)
 Gauss-broadening in eV      SIGMA  =   0.10


--------------------------------------------------------------------------------------------------------


  energy-cutoff  :      262.47
  volume of cell :     1827.64
      direct lattice vectors                 reciprocal lattice vectors
    12.226345917  0.000000000  0.000000000     0.081790586  0.000000000  0.000000000
     0.000000000 12.226345917  0.000000000     0.000000000  0.081790586  0.000000000
     0.000000000  0.000000000 12.226345917     0.000000000  0.000000000  0.081790586

  length of vectors
    12.226345917 12.226345917 12.226345917     0.081790586  0.081790586  0.081790586


 
 k-points in units of 2pi/SCALE and weight: Num irrep kpoints: 1                    
   0.00000000  0.00000000  0.00000000       1.000
 
 k-points in reciprocal lattice and weights: Num irrep kpoints: 1                    
   0.00000000  0.00000000  0.00000000       1.000
 
 position of ions in fractional coordinates (direct lattice) 
   0.99546965  0.99671109  0.33583178
   0.99874813  0.99910992  0.66531317
   0.99815692  0.33796259  0.00067203
   0.00000000  0.33333333  0.33333333
   0.00000000  0.33333333  0.66666667
   0.99067472  0.65588139  0.99921596
   0.00000000  0.66666667  0.33333333
   0.00000000  0.66666667  0.66666667
   0.34378612  0.00109218  0.00143563
   0.33333333  0.00000000  0.33333333
   0.33333333  0.00000000  0.66666667
   0.33333333  0.33333333  0.00000000
   0.33333333  0.33333333  0.33333333
   0.33333333  0.33333333  0.66666667
   0.33333333  0.66666667  0.00000000
   0.33333333  0.66666667  0.33333333
   0.33333333  0.66666667  0.66666667
   0.67830882  0.99966398  0.99803272
   0.66666667  0.00000000  0.33333333
   0.66666667  0.00000000  0.66666667
   0.66666667  0.33333333  0.00000000
   0.66666667  0.33333333  0.33333333
   0.66666667  0.33333333  0.66666667
   0.66666667  0.66666667  0.00000000
   0.66666667  0.66666667  0.33333333
   0.66666667  0.66666667  0.66666667
   0.16667459  0.16610873  0.16931116
   0.16666667  0.16666667  0.50000000
   0.16490133  0.17191576  0.83355027
   0.16666667  0.50000000  0.16666667
   0.16666667  0.50000000  0.50000000
   0.16666667  0.50000000  0.83333333
   0.17027481  0.83391222  0.16379639
   0.16666667  0.83333333  0.50000000
   0.17146645  0.83009584  0.83151707
   0.50000000  0.16666667  0.16666667
   0.50000000  0.16666667  0.50000000
   0.50000000  0.16666667  0.83333333
   0.50000000  0.50000000  0.16666667
   0.50000000  0.50000000  0.50000000
   0.50000000  0.50000000  0.83333333
   0.50000000  0.83333333  0.16666667
   0.50000000  0.83333333  0.50000000
   0.50000000  0.83333333  0.83333333
   0.82542005  0.15925158  0.16270216
   0.83333333  0.16666667  0.50000000
   0.83075384  0.16619309  0.83451521
   0.83333333  0.50000000  0.16666667
   0.83333333  0.50000000  0.50000000
   0.83333333  0.50000000  0.83333333
   0.82927230  0.82841797  0.16215346
   0.83333333  0.83333333  0.50000000
   0.82555942  0.84084246  0.84539751
 
 position of ions in cartesian coordinates  (Angst):
  12.17095632 12.18613455  4.10599555
  12.21104007 12.21546348  8.13434901
  12.20381176  4.13204749  0.00821650
   0.00000000  4.07544864  4.07544864
   0.00000000  4.07544864  8.15089728
  12.11233184  8.01903278 12.21675995
   0.00000000  8.15089728  4.07544864
   0.00000000  8.15089728  8.15089728
   4.20324799  0.01335339  0.01755256
   4.07544864  0.00000000  4.07544864
   4.07544864  0.00000000  8.15089728
   4.07544864  4.07544864  0.00000000
   4.07544864  4.07544864  4.07544864
   4.07544864  4.07544864  8.15089728
   4.07544864  8.15089728  0.00000000
   4.07544864  8.15089728  4.07544864
   4.07544864  8.15089728  8.15089728
   8.29323825 12.22223763 12.20229329
   8.15089728  0.00000000  4.07544864
   8.15089728  0.00000000  8.15089728
   8.15089728  4.07544864  0.00000000
   8.15089728  4.07544864  4.07544864
   8.15089728  4.07544864  8.15089728
   8.15089728  8.15089728  0.00000000
   8.15089728  8.15089728  4.07544864
   8.15089728  8.15089728  8.15089728
   2.03782115  2.03090280  2.07005678
   2.03772432  2.03772432  6.11317296
   2.01614069  2.10190153 10.19127389
   2.03772432  6.11317296  2.03772432
   2.03772432  6.11317296  6.11317296
   2.03772432  6.11317296 10.18862160
   2.08183878 10.19569924  2.00263135
   2.03772432 10.18862160  6.11317296
   2.09640817 10.14903885 10.16641534
   6.11317296  2.03772432  2.03772432
   6.11317296  2.03772432  6.11317296
   6.11317296  2.03772432 10.18862160
   6.11317296  6.11317296  2.03772432
   6.11317296  6.11317296  6.11317296
   6.11317296  6.11317296 10.18862160
   6.11317296 10.18862160  2.03772432
   6.11317296 10.18862160  6.11317296
   6.11317296 10.18862160 10.18862160
  10.09187105  1.94706489  1.98925287
  10.18862160  2.03772432  6.11317296
  10.15708381  2.03193417 10.20307168
  10.18862160  6.11317296  2.03772432
  10.18862160  6.11317296  6.11317296
  10.18862160  6.11317296 10.18862160
  10.13897002 10.12852471  1.98254425
  10.18862160 10.18862160  6.11317296
  10.09357500 10.28043075 10.33612238
 


--------------------------------------------------------------------------------------------------------


 k-point     1 :   0.0000 0.0000 0.0000  plane waves:   17557

 maximum and minimum number of plane-waves per node :     17557    17557

 maximum number of plane-waves:     17557
 maximum index in each direction: 
   IXMAX=   16   IYMAX=   16   IZMAX=   16
   IXMIN=  -16   IYMIN=  -16   IZMIN=  -16


 serial   3D FFT for wavefunctions
 parallel 3D FFT for charge:
    minimum data exchange during FFTs selected (reduces bandwidth)


 total amount of memory used by VASP MPI-rank0   179455. kBytes
=======================================================================

   base                                    :      30000. kBytes
   nonlr-proj                              :       6377. kBytes
   fftplans                                :      15598. kBytes
   grid                                    :      44900. kBytes
   one-center                              :        859. kBytes
   wavefun                                 :      81721. kBytes
 
     INWAV:  cpu time      0.0001: real time      0.0002
 Broyden mixing: mesh for mixing (old mesh)
   NGX = 33   NGY = 33   NGZ = 33
  (NGX  = 96   NGY  = 96   NGZ  = 96)
  gives a total of  35937 points

 initial charge density was supplied:
 charge density of overlapping atoms calculated
 number of electron     423.0000000 magnetization      53.0000000
 keeping initial charge density in first step


--------------------------------------------------------------------------------------------------------


 Maximum index for non-local projection operator          1234
 Maximum index for augmentation-charges          1473 (set IRDMAX)


--------------------------------------------------------------------------------------------------------


 First call to EWALD:  gamma=   0.145
 Maximum number of real-space cells   3x   3x   3
 Maximum number of reciprocal cells   3x   3x   3

    FEWALD:  cpu time      0.0425: real time      0.0426


--------------------------------------- Ionic step        1  -------------------------------------------




--------------------------------------- Iteration      1(   1)  ---------------------------------------


    POTLOK:  cpu time      0.4378: real time      0.4705
    SETDIJ:  cpu time      2.3341: real time      2.3399
     EDDAV:  cpu time      0.5763: real time      0.5782
       DOS:  cpu time      0.0005: real time      0.0005
    --------------------------------------------
      LOOP:  cpu time      3.3487: real time      3.3892

 eigenvalue-minimisations  :  1144
 total energy-change (2. order) : 0.2338881E+04  (-0.1226201E+05)
 number of electron     423.0000000 magnetization      53.0000000
 augmentation part      423.0000000 magnetization      53.0000000

 Free energy of the ion-electron system (eV)
  ---------------------------------------------------
  alpha Z        PSCENC =      1390.48224925
  Ewald energy   TEWEN  =    -21532.55444335
  -Hartree energ DENC   =     -3628.34317722
  -exchange      EXHF   =         0.00000000
  -V(xc)+E(xc)   XCENC  =       840.77292165
  PAW double counting   =     19806.45903776   -19618.38849467
  entropy T*S    EENTRO =        -0.06752121
  eigenvalues    EBANDS =      -402.47225569
  atomic energy  EATOM  =     25482.99243790
  Solvation  Ediel_sol  =         0.00000000
  ---------------------------------------------------
  free energy    TOTEN  =      2338.88075443 eV

  energy without entropy =     2338.94827564  energy(sigma->0) =     2338.91451504


--------------------------------------------------------------------------------------------------------




--------------------------------------- Iteration      1(   2)  ---------------------------------------


     EDDAV:  cpu time      0.5435: real time      0.5451
       DOS:  cpu time      0.0003: real time      0.0003
    --------------------------------------------
      LOOP:  cpu time      0.5438: real time      0.5454

 eigenvalue-minimisations  :  1404
 total energy-change (2. order) :-0.2305389E+04  (-0.2230199E+04)
 number of electron     423.0000000 magnetization      53.0000000
 augmentation part      423.0000000 magnetization      53.0000000

 Free energy of the ion-electron system (eV)
  ---------------------------------------------------
  alpha Z        PSCENC =      1390.48224925
  Ewald energy   TEWEN  =    -21532.55444335
  -Hartree energ DENC   =     -3628.34317722
  -exchange      EXHF   =         0.00000000
  -V(xc)+E(xc)   XCENC  =       840.77292165
  PAW double counting   =     19806.45903776   -19618.38849467
  entropy T*S    EENTRO =        -0.00000000
  eigenvalues    EBANDS =     -2707.92890883
  atomic energy  EATOM  =     25482.99243790
  Solvation  Ediel_sol  =         0.00000000
  ---------------------------------------------------
  free energy    TOTEN  =        33.49162249 eV

  energy without entropy =       33.49162249  energy(sigma->0) =       33.49162249


--------------------------------------------------------------------------------------------------------




--------------------------------------- Iteration      1(   3)  ---------------------------------------


     EDDAV:  cpu time      0.5348: real time      0.5362
       DOS:  cpu time      0.0003: real time      0.0003
    --------------------------------------------
      LOOP:  cpu time      0.5351: real time      0.5365

 eigenvalue-minimisations  :  1360
 total energy-change (2. order) :-0.2088662E+03  (-0.2079745E+03)
 number of electron     423.0000000 magnetization      53.0000000
 augmentation part      423.0000000 magnetization      53.0000000

 Free energy of the ion-electron system (eV)
  ---------------------------------------------------
  alpha Z        PSCENC =      1390.48224925
  Ewald energy   TEWEN  =    -21532.55444335
  -Hartree energ DENC   =     -3628.34317722
  -exchange      EXHF   =         0.00000000
  -V(xc)+E(xc)   XCENC  =       840.77292165
  PAW double counting   =     19806.45903776   -19618.38849467
  entropy T*S    EENTRO =        -0.00000000
  eigenvalues    EBANDS =     -2916.79507603
  atomic energy  EATOM  =     25482.99243790
  Solvation  Ediel_sol  =         0.00000000
  ---------------------------------------------------
  free energy    TOTEN  =      -175.37454470 eV

  energy without entropy =     -175.37454470  energy(sigma->0) =     -175.37454470


--------------------------------------------------------------------------------------------------------




--------------------------------------- Iteration      1(   4)  ---------------------------------------


     EDDAV:  cpu time      0.5288: real time      0.5305
       DOS:  cpu time      0.0003: real time      0.0003
    --------------------------------------------
      LOOP:  cpu time      0.5291: real time      0.5308

 eigenvalue-minimisations  :  1344
 total energy-change (2. order) :-0.3428334E+01  (-0.3420413E+01)
 number of electron     423.0000000 magnetization      53.0000000
 augmentation part      423.0000000 magnetization      53.0000000

 Free energy of the ion-electron system (eV)
  ---------------------------------------------------
  alpha Z        PSCENC =      1390.48224925
  Ewald energy   TEWEN  =    -21532.55444335
  -Hartree energ DENC   =     -3628.34317722
  -exchange      EXHF   =         0.00000000
  -V(xc)+E(xc)   XCENC  =       840.77292165
  PAW double counting   =     19806.45903776   -19618.38849467
  entropy T*S    EENTRO =        -0.00000000
  eigenvalues    EBANDS =     -2920.22340978
  atomic energy  EATOM  =     25482.99243790
  Solvation  Ediel_sol  =         0.00000000
  ---------------------------------------------------
  free energy    TOTEN  =      -178.80287846 eV

  energy without entropy =     -178.80287846  energy(sigma->0) =     -178.80287846


--------------------------------------------------------------------------------------------------------




--------------------------------------- Iteration      1(   5)  ---------------------------------------


     EDDAV:  cpu time      0.5213: real time      0.5230
       DOS:  cpu time      0.0003: real time      0.0003
    CHARGE:  cpu time      0.0531: real time      0.0533
    MIXING:  cpu time      0.0107: real time      0.0107
    --------------------------------------------
      LOOP:  cpu time      0.5854: real time      0.5873

 eigenvalue-minimisations  :  1320
 total energy-change (2. order) :-0.7602634E-01  (-0.7597223E-01)
 number of electron     424.0000281 magnetization      35.2833654
 augmentation part      -77.6900707 magnetization      35.1458396

 Broyden mixing:
  rms(total) = 0.25672E+01    rms(broyden)= 0.25665E+01
  rms(prec ) = 0.28308E+01
  weight for this iteration     100.00

 Free energy of the ion-electron system (eV)
  ---------------------------------------------------
  alpha Z        PSCENC =      1390.48224925
  Ewald energy   TEWEN  =    -21532.55444335
  -Hartree energ DENC   =     -3628.34317722
  -exchange      EXHF   =         0.00000000
  -V(xc)+E(xc)   XCENC  =       840.77292165
  PAW double counting   =     19806.45903776   -19618.38849467
  entropy T*S    EENTRO =        -0.00000000
  eigenvalues    EBANDS =     -2920.29943612
  atomic energy  EATOM  =     25482.99243790
  Solvation  Ediel_sol  =         0.00000000
  ---------------------------------------------------
  free energy    TOTEN  =      -178.87890480 eV

  energy without entropy =     -178.87890480  energy(sigma->0) =     -178.87890480


--------------------------------------------------------------------------------------------------------




--------------------------------------- Iteration      1(   6)  ---------------------------------------


    POTLOK:  cpu time      0.0094: real time      0.0095
    SETDIJ:  cpu time      2.1411: real time      2.1458
     EDDAV:  cpu time      0.5041: real time      0.5054
       DOS:  cpu time      0.0003: real time      0.0003
    CHARGE:  cpu time      0.0484: real time      0.0486
    MIXING:  cpu time      0.0108: real time      0.0108
    --------------------------------------------
      LOOP:  cpu time      2.7141: real time      2.7204

 eigenvalue-minimisations  :  1256
 total energy-change (2. order) : 0.7542139E+01  (-0.3415311E+01)
 number of electron     424.0000323 magnetization      23.5723610
 augmentation part      -77.4968961 magnetization      24.1955419

 Broyden mixing:
  rms(total) = 0.14171E+01    rms(broyden)= 0.14167E+01
  rms(prec ) = 0.15071E+01
  weight for this iteration     100.00

 eigenvalues of (default mixing * dielectric matrix)
  average eigenvalue GAMMA=   0.8532
  0.8532

 Free energy of the ion-electron system (eV)
  ---------------------------------------------------
  alpha Z        PSCENC =      1390.48224925
  Ewald energy   TEWEN  =    -21532.55444335
  -Hartree energ DENC   =     -3720.63305119
  -exchange      EXHF   =         0.00000000
  -V(xc)+E(xc)   XCENC  =       853.94763137
  PAW double counting   =     21260.78319157   -21075.54695189
  entropy T*S    EENTRO =        -0.00000000
  eigenvalues    EBANDS =     -2830.80782940
  atomic energy  EATOM  =     25482.99243790
  Solvation  Ediel_sol  =         0.00000000
  ---------------------------------------------------
  free energy    TOTEN  =      -171.33676574 eV

  energy without entropy =     -171.33676574  energy(sigma->0) =     -171.33676574


--------------------------------------------------------------------------------------------------------




--------------------------------------- Iteration      1(   7)  ---------------------------------------


    POTLOK:  cpu time      0.0091: real time      0.0107
    SETDIJ:  cpu time      2.0254: real time      2.0303
     EDDAV:  cpu time      0.5327: real time      0.5341
       DOS:  cpu time      0.0003: real time      0.0003
    CHARGE:  cpu time      0.0476: real time      0.0478
    MIXING:  cpu time      0.0110: real time      0.0111
    --------------------------------------------
      LOOP:  cpu time      2.6262: real time      2.6342

 eigenvalue-minimisations  :  1360
 total energy-change (2. order) :-0.3108548E+01  (-0.6425196E+00)
 number of electron     424.0000346 magnetization      12.6445969
 augmentation part      -77.6702413 magnetization      13.0983564

 Broyden mixing:
  rms(total) = 0.96990E+00    rms(broyden)= 0.96985E+00
  rms(prec ) = 0.10077E+01
  weight for this iteration     100.00

 eigenvalues of (default mixing * dielectric matrix)
  average eigenvalue GAMMA=   0.8843
  1.0182  0.7505

 Free energy of the ion-electron system (eV)
  ---------------------------------------------------
  alpha Z        PSCENC =      1390.48224925
  Ewald energy   TEWEN  =    -21532.55444335
  -Hartree energ DENC   =     -3743.77456767
  -exchange      EXHF   =         0.00000000
  -V(xc)+E(xc)   XCENC  =       852.70093530
  PAW double counting   =     22478.59391875   -22294.58271750
  entropy T*S    EENTRO =        -0.00000000
  eigenvalues    EBANDS =     -2808.30312661
  atomic energy  EATOM  =     25482.99243790
  Solvation  Ediel_sol  =         0.00000000
  ---------------------------------------------------
  free energy    TOTEN  =      -174.44531392 eV

  energy without entropy =     -174.44531392  energy(sigma->0) =     -174.44531392


--------------------------------------------------------------------------------------------------------




--------------------------------------- Iteration      1(   8)  ---------------------------------------


    POTLOK:  cpu time      0.0090: real time      0.0094
    SETDIJ:  cpu time      2.0161: real time      2.0206
     EDDAV:  cpu time      0.5223: real time      0.5237
       DOS:  cpu time      0.0003: real time      0.0003
    CHARGE:  cpu time      0.0479: real time      0.0481
    MIXING:  cpu time      0.0114: real time      0.0115
    --------------------------------------------
      LOOP:  cpu time      2.6071: real time      2.6135

 eigenvalue-minimisations  :  1320
 total energy-change (2. order) :-0.2739163E+01  (-0.1542261E+00)
 number of electron     424.0000352 magnetization       3.3735265
 augmentation part      -77.7065988 magnetization       3.6234881

 Broyden mixing:
  rms(total) = 0.51024E+00    rms(broyden)= 0.51022E+00
  rms(prec ) = 0.52790E+00
  weight for this iteration     100.00

 eigenvalues of (default mixing * dielectric matrix)
  average eigenvalue GAMMA=   1.3657
  2.5277  0.9515  0.6178

 Free energy of the ion-electron system (eV)
  ---------------------------------------------------
  alpha Z        PSCENC =      1390.48224925
  Ewald energy   TEWEN  =    -21532.55444335
  -Hartree energ DENC   =     -3754.79787476
  -exchange      EXHF   =         0.00000000
  -V(xc)+E(xc)   XCENC  =       852.78814229
  PAW double counting   =     23597.67849593   -23415.60993627
  entropy T*S    EENTRO =        -0.00000000
  eigenvalues    EBANDS =     -2798.16354777
  atomic energy  EATOM  =     25482.99243790
  Solvation  Ediel_sol  =         0.00000000
  ---------------------------------------------------
  free energy    TOTEN  =      -177.18447679 eV

  energy without entropy =     -177.18447679  energy(sigma->0) =     -177.18447679


--------------------------------------------------------------------------------------------------------




--------------------------------------- Iteration      1(   9)  ---------------------------------------


    POTLOK:  cpu time      0.0091: real time      0.0095
    SETDIJ:  cpu time      1.9757: real time      1.9805
     EDDAV:  cpu time      0.5181: real time      0.5196
       DOS:  cpu time      0.0003: real time      0.0003
    CHARGE:  cpu time      0.0471: real time      0.0472
    MIXING:  cpu time      0.0116: real time      0.0116
    --------------------------------------------
      LOOP:  cpu time      2.5619: real time      2.5687

 eigenvalue-minimisations  :  1304
 total energy-change (2. order) :-0.1460126E+01  (-0.1286545E+00)
 number of electron     424.0000353 magnetization       2.1139591
 augmentation part      -77.7561613 magnetization       2.2109391

 Broyden mixing:
  rms(total) = 0.12071E+00    rms(broyden)= 0.12068E+00
  rms(prec ) = 0.12910E+00
  weight for this iteration     100.00

 eigenvalues of (default mixing * dielectric matrix)
  average eigenvalue GAMMA=   1.2639
  2.4711  1.1338  0.8122  0.6387

 Free energy of the ion-electron system (eV)
  ---------------------------------------------------
  alpha Z        PSCENC =      1390.48224925
  Ewald energy   TEWEN  =    -21532.55444335
  -Hartree energ DENC   =     -3756.36922226
  -exchange      EXHF   =         0.00000000
  -V(xc)+E(xc)   XCENC  =       852.72970481
  PAW double counting   =     24432.82918176   -24252.15861714
  entropy T*S    EENTRO =        -0.00000000
  eigenvalues    EBANDS =     -2796.59589381
  atomic energy  EATOM  =     25482.99243790
  Solvation  Ediel_sol  =         0.00000000
  ---------------------------------------------------
  free energy    TOTEN  =      -178.64460285 eV

  energy without entropy =     -178.64460285  energy(sigma->0) =     -178.64460285


--------------------------------------------------------------------------------------------------------




--------------------------------------- Iteration      1(  10)  ---------------------------------------


    POTLOK:  cpu time      0.0090: real time      0.0094
    SETDIJ:  cpu time      1.9749: real time      1.9839
     EDDAV:  cpu time      0.5183: real time      0.5198
       DOS:  cpu time      0.0003: real time      0.0003
    CHARGE:  cpu time      0.0481: real time      0.0482
    MIXING:  cpu time      0.0127: real time      0.0128
    --------------------------------------------
      LOOP:  cpu time      2.5634: real time      2.5744

 eigenvalue-minimisations  :  1304
 total energy-change (2. order) :-0.9967180E-01  (-0.1021650E-01)
 number of electron     424.0000352 magnetization       1.1162646
 augmentation part      -77.7749009 magnetization       1.1627315

 Broyden mixing:
  rms(total) = 0.73382E-01    rms(broyden)= 0.73367E-01
  rms(prec ) = 0.76901E-01
  weight for this iteration     100.00

 eigenvalues of (default mixing * dielectric matrix)
  average eigenvalue GAMMA=   1.2153
  2.3514  1.4548  0.6474  0.7626  0.8605

 Free energy of the ion-electron system (eV)
  ---------------------------------------------------
  alpha Z        PSCENC =      1390.48224925
  Ewald energy   TEWEN  =    -21532.55444335
  -Hartree energ DENC   =     -3753.43660448
  -exchange      EXHF   =         0.00000000
  -V(xc)+E(xc)   XCENC  =       852.50200107
  PAW double counting   =     24383.81146002   -24203.25346234
  entropy T*S    EENTRO =        -0.00000000
  eigenvalues    EBANDS =     -2799.28791272
  atomic energy  EATOM  =     25482.99243790
  Solvation  Ediel_sol  =         0.00000000
  ---------------------------------------------------
  free energy    TOTEN  =      -178.74427464 eV

  energy without entropy =     -178.74427464  energy(sigma->0) =     -178.74427464


--------------------------------------------------------------------------------------------------------




--------------------------------------- Iteration      1(  11)  ---------------------------------------


    POTLOK:  cpu time      0.0091: real time      0.0094
    SETDIJ:  cpu time      1.9418: real time      1.9467
     EDDAV:  cpu time      0.5111: real time      0.5126
       DOS:  cpu time      0.0003: real time      0.0003
    CHARGE:  cpu time      0.0479: real time      0.0480
    MIXING:  cpu time      0.0128: real time      0.0129
    --------------------------------------------
      LOOP:  cpu time      2.5230: real time      2.5298

 eigenvalue-minimisations  :  1280
 total energy-change (2. order) :-0.3220041E-01  (-0.2035756E-02)
 number of electron     424.0000352 magnetization       0.1233445
 augmentation part      -77.7707228 magnetization       0.1465257

 Broyden mixing:
  rms(total) = 0.43731E-01    rms(broyden)= 0.43724E-01
  rms(prec ) = 0.45515E-01
  weight for this iteration     100.00

 eigenvalues of (default mixing * dielectric matrix)
  average eigenvalue GAMMA=   1.3685
  2.4048  2.4048  1.2321  0.8717  0.6546  0.6427

 Free energy of the ion-electron system (eV)
  ---------------------------------------------------
  alpha Z        PSCENC =      1390.48224925
  Ewald energy   TEWEN  =    -21532.55444335
  -Hartree energ DENC   =     -3753.32292649
  -exchange      EXHF   =         0.00000000
  -V(xc)+E(xc)   XCENC  =       852.50931763
  PAW double counting   =     24338.60228002   -24158.16633169
  entropy T*S    EENTRO =        -0.00000000
  eigenvalues    EBANDS =     -2799.31905832
  atomic energy  EATOM  =     25482.99243790
  Solvation  Ediel_sol  =         0.00000000
  ---------------------------------------------------
  free energy    TOTEN  =      -178.77647506 eV

  energy without entropy =     -178.77647506  energy(sigma->0) =     -178.77647506


--------------------------------------------------------------------------------------------------------




--------------------------------------- Iteration      1(  12)  ---------------------------------------


    POTLOK:  cpu time      0.0095: real time      0.0098
    SETDIJ:  cpu time      1.9482: real time      1.9530
     EDDAV:  cpu time      0.5324: real time      0.5339
       DOS:  cpu time      0.0003: real time      0.0003
    CHARGE:  cpu time      0.0481: real time      0.0483
    MIXING:  cpu time      0.0134: real time      0.0135
    --------------------------------------------
      LOOP:  cpu time      2.5520: real time      2.5589

 eigenvalue-minimisations  :  1352
 total energy-change (2. order) :-0.1127156E-01  (-0.1091188E-02)
 number of electron     424.0000352 magnetization       0.0135385
 augmentation part      -77.7686455 magnetization       0.0171261

 Broyden mixing:
  rms(total) = 0.11487E-01    rms(broyden)= 0.11480E-01
  rms(prec ) = 0.12243E-01
  weight for this iteration     100.00

 eigenvalues of (default mixing * dielectric matrix)
  average eigenvalue GAMMA=   1.3719
  2.9224  2.3265  1.3743  0.8848  0.7405  0.7405  0.6142

 Free energy of the ion-electron system (eV)
  ---------------------------------------------------
  alpha Z        PSCENC =      1390.48224925
  Ewald energy   TEWEN  =    -21532.55444335
  -Hartree energ DENC   =     -3753.80383703
  -exchange      EXHF   =         0.00000000
  -V(xc)+E(xc)   XCENC  =       852.56449586
  PAW double counting   =     24291.66767882   -24111.33112565
  entropy T*S    EENTRO =        -0.00000000
  eigenvalues    EBANDS =     -2798.80520242
  atomic energy  EATOM  =     25482.99243790
  Solvation  Ediel_sol  =         0.00000000
  ---------------------------------------------------
  free energy    TOTEN  =      -178.78774661 eV

  energy without entropy =     -178.78774661  energy(sigma->0) =     -178.78774661


--------------------------------------------------------------------------------------------------------




--------------------------------------- Iteration      1(  13)  ---------------------------------------


    POTLOK:  cpu time      0.0094: real time      0.0096
    SETDIJ:  cpu time      1.9452: real time      1.9500
     EDDAV:  cpu time      0.5533: real time      0.5548
       DOS:  cpu time      0.0003: real time      0.0003
    CHARGE:  cpu time      0.0480: real time      0.0481
    MIXING:  cpu time      0.0140: real time      0.0141
    --------------------------------------------
      LOOP:  cpu time      2.5703: real time      2.5770

 eigenvalue-minimisations  :  1432
 total energy-change (2. order) :-0.2968928E-03  (-0.8281647E-04)
 number of electron     424.0000352 magnetization      -0.0008588
 augmentation part      -77.7696480 magnetization      -0.0002803

 Broyden mixing:
  rms(total) = 0.38884E-02    rms(broyden)= 0.38858E-02
  rms(prec ) = 0.46654E-02
  weight for this iteration     100.00

 eigenvalues of (default mixing * dielectric matrix)
  average eigenvalue GAMMA=   1.3278
  2.9819  2.3009  1.4602  0.9937  0.8037  0.8037  0.6601  0.6179

 Free energy of the ion-electron system (eV)
  ---------------------------------------------------
  alpha Z        PSCENC =      1390.48224925
  Ewald energy   TEWEN  =    -21532.55444335
  -Hartree energ DENC   =     -3753.81436890
  -exchange      EXHF   =         0.00000000
  -V(xc)+E(xc)   XCENC  =       852.56831383
  PAW double counting   =     24284.08894075   -24103.74405866
  entropy T*S    EENTRO =        -0.00000000
  eigenvalues    EBANDS =     -2798.80711433
  atomic energy  EATOM  =     25482.99243790
  Solvation  Ediel_sol  =         0.00000000
  ---------------------------------------------------
  free energy    TOTEN  =      -178.78804351 eV

  energy without entropy =     -178.78804351  energy(sigma->0) =     -178.78804351


--------------------------------------------------------------------------------------------------------




--------------------------------------- Iteration      1(  14)  ---------------------------------------


    POTLOK:  cpu time      0.0097: real time      0.0100
    SETDIJ:  cpu time      1.9454: real time      1.9501
     EDDAV:  cpu time      0.4811: real time      0.4825
       DOS:  cpu time      0.0003: real time      0.0003
    --------------------------------------------
      LOOP:  cpu time      2.4365: real time      2.4429

 eigenvalue-minimisations  :  1160
 total energy-change (2. order) :-0.4346120E-05  (-0.4517302E-05)
 number of electron     424.0000352 magnetization      -0.0008588
 augmentation part      -77.7696480 magnetization      -0.0002803

 Free energy of the ion-electron system (eV)
  ---------------------------------------------------
  alpha Z        PSCENC =      1390.48224925
  Ewald energy   TEWEN  =    -21532.55444335
  -Hartree energ DENC   =     -3753.73510240
  -exchange      EXHF   =         0.00000000
  -V(xc)+E(xc)   XCENC  =       852.56374918
  PAW double counting   =     24282.99842993   -24102.64220106
  entropy T*S    EENTRO =        -0.00000000
  eigenvalues    EBANDS =     -2798.89316731
  atomic energy  EATOM  =     25482.99243790
  Solvation  Ediel_sol  =         0.00000000
  ---------------------------------------------------
  free energy    TOTEN  =      -178.78804785 eV

  energy without entropy =     -178.78804785  energy(sigma->0) =     -178.78804785


--------------------------------------------------------------------------------------------------------




 average (electrostatic) potential at core
  the test charge radii are     1.1312  0.9406
  (the norm of the test charge is              1.0000)
       1 -49.0190       2 -49.0669       3 -49.0168       4 -49.2978       5 -49.2391
       6 -49.0238       7 -49.2972       8 -49.3470       9 -48.8860      10 -49.1612
      11 -49.1997      12 -49.1880      13 -49.2769      14 -49.2735      15 -49.1106
      16 -49.2764      17 -49.2477      18 -48.7010      19 -49.2084      20 -49.2218
      21 -49.2094      22 -49.3312      23 -49.3170      24 -49.1581      25 -49.3054
      26 -49.3669      27 -92.6199      28 -93.1521      29 -92.6373      30 -93.1767
      31 -93.2847      32 -93.1552      33 -92.5671      34 -93.1844      35 -92.6191
      36 -93.0905      37 -93.2479      38 -93.1141      39 -93.2338      40 -93.2923
      41 -93.2361      42 -93.0744      43 -93.2480      44 -93.0730      45 -92.7029
      46 -93.2215      47 -92.6964      48 -93.2656      49 -93.3127      50 -93.2827
      51 -92.6973      52 -93.2779      53 -92.6983
 
 
 
 E-fermi :   0.6164     XC(G=0):  -8.3780     alpha+bet : -8.6884

 val. band max:        0.0679728512   @ k =   0.0000   0.0000   0.0000
 cond. band min:       4.9309004897   @ k =   0.0000   0.0000   0.0000
 fundamental gap:      4.8629276385
 Fermi energy:         0.6163766466

 spin component 1

 k-point     1 :       0.0000    0.0000    0.0000
  band No.  band energies     occupation 
      1     -19.7283      1.00000
      2     -19.6842      1.00000
      3     -19.6675      1.00000
      4     -19.6529      1.00000
      5     -19.6335      1.00000
      6     -19.6196      1.00000
      7     -19.6163      1.00000
      8     -19.5900      1.00000
      9     -19.5776      1.00000
     10     -19.5743      1.00000
     11     -19.5643      1.00000
     12     -19.5467      1.00000
     13     -19.5431      1.00000
     14     -19.5254      1.00000
     15     -19.5166      1.00000
     16     -19.5056      1.00000
     17     -19.4918      1.00000
     18     -19.4802      1.00000
     19     -19.4536      1.00000
     20     -19.4108      1.00000
     21     -19.3836      1.00000
     22     -19.3760      1.00000
     23     -19.3281      1.00000
     24     -19.3067      1.00000
     25     -19.1990      1.00000
     26     -19.0318      1.00000
     27     -12.7231      1.00000
     28     -12.7014      1.00000
     29     -12.6899      1.00000
     30     -12.6718      1.00000
     31     -12.6604      1.00000
     32     -12.6454      1.00000
     33     -12.6353      1.00000
     34     -12.6169      1.00000
     35     -12.5942      1.00000
     36     -12.5857      1.00000
     37     -12.5738      1.00000
     38     -12.5604      1.00000
     39     -12.5395      1.00000
     40     -12.5081      1.00000
     41     -12.5027      1.00000
     42     -12.4836      1.00000
     43     -12.4588      1.00000
     44     -12.4496      1.00000
     45     -12.4121      1.00000
     46     -12.0985      1.00000
     47     -12.0655      1.00000
     48     -12.0540      1.00000
     49     -12.0043      1.00000
     50     -11.9875      1.00000
     51     -11.9538      1.00000
     52     -11.9445      1.00000
     53     -11.8814      1.00000
     54      -6.8316      1.00000
     55      -6.8270      1.00000
     56      -6.8232      1.00000
     57      -6.8168      1.00000
     58      -6.8088      1.00000
     59      -6.8023      1.00000
     60      -6.7985      1.00000
     61      -6.7939      1.00000
     62      -6.7876      1.00000
     63      -6.7831      1.00000
     64      -6.7818      1.00000
     65      -6.7775      1.00000
     66      -6.7067      1.00000
     67      -6.7037      1.00000
     68      -6.6979      1.00000
     69      -6.6843      1.00000
     70      -6.6783      1.00000
     71      -6.6734      1.00000
     72      -6.6711      1.00000
     73      -6.6643      1.00000
     74      -6.6538      1.00000
     75      -6.6462      1.00000
     76      -6.6437      1.00000
     77      -6.6423      1.00000
     78      -6.6315      1.00000
     79      -6.6252      1.00000
     80      -6.6235      1.00000
     81      -6.6063      1.00000
     82      -6.6024      1.00000
     83      -6.6004      1.00000
     84      -6.5932      1.00000
     85      -6.5898      1.00000
     86      -6.5767      1.00000
     87      -6.5759      1.00000
     88      -6.5705      1.00000
     89      -6.5642      1.00000
     90      -6.5626      1.00000
     91      -6.5500      1.00000
     92      -6.5478      1.00000
     93      -6.5458      1.00000
     94      -6.5234      1.00000
     95      -6.5072      1.00000
     96      -6.4873      1.00000
     97      -6.4853      1.00000
     98      -6.4428      1.00000
     99      -6.4232      1.00000
    100      -6.4163      1.00000
    101      -6.3983      1.00000
    102      -6.3865      1.00000
    103      -6.3638      1.00000
    104      -6.1818      1.00000
    105      -6.1380      1.00000
    106      -6.1115      1.00000
    107      -6.1045      1.00000
    108      -6.0538      1.00000
    109      -6.0322      1.00000
    110      -6.0249      1.00000
    111      -6.0125      1.00000
    112      -6.0043      1.00000
    113      -5.9974      1.00000
    114      -5.9745      1.00000
    115      -5.9686      1.00000
    116      -5.9622      1.00000
    117      -5.9363      1.00000
    118      -5.9214      1.00000
    119      -5.9192      1.00000
    120      -5.9176      1.00000
    121      -5.9073      1.00000
    122      -5.8891      1.00000
    123      -5.8793      1.00000
    124      -5.8681      1.00000
    125      -5.8441      1.00000
    126      -5.8142      1.00000
    127      -5.8026      1.00000
    128      -5.7848      1.00000
    129      -5.7185      1.00000
    130      -5.7095      1.00000
    131      -5.7051      1.00000
    132      -1.3946      1.00000
    133      -1.3915      1.00000
    134      -1.3808      1.00000
    135      -1.3253      1.00000
    136      -1.2955      1.00000
    137      -1.2802      1.00000
    138      -1.2521      1.00000
    139      -1.2461      1.00000
    140      -1.2455      1.00000
    141      -1.2393      1.00000
    142      -1.2365      1.00000
    143      -1.2323      1.00000
    144      -1.2270      1.00000
    145      -1.2099      1.00000
    146      -1.1929      1.00000
    147      -1.1739      1.00000
    148      -1.1656      1.00000
    149      -1.1448      1.00000
    150      -1.1399      1.00000
    151      -1.1287      1.00000
    152      -1.0992      1.00000
    153      -1.0910      1.00000
    154      -1.0547      1.00000
    155      -1.0472      1.00000
    156      -1.0363      1.00000
    157      -1.0197      1.00000
    158      -1.0087      1.00000
    159      -0.9976      1.00000
    160      -0.9823      1.00000
    161      -0.9779      1.00000
    162      -0.9688      1.00000
    163      -0.9563      1.00000
    164      -0.9314      1.00000
    165      -0.9302      1.00000
    166      -0.8327      1.00000
    167      -0.8297      1.00000
    168      -0.8094      1.00000
    169      -0.8040      1.00000
    170      -0.7243      1.00000
    171      -0.7122      1.00000
    172      -0.6748      1.00000
    173      -0.6736      1.00000
    174      -0.6588      1.00000
    175      -0.6496      1.00000
    176      -0.6324      1.00000
    177      -0.6202      1.00000
    178      -0.6154      1.00000
    179      -0.6086      1.00000
    180      -0.5944      1.00000
    181      -0.5809      1.00000
    182      -0.5728      1.00000
    183      -0.5702      1.00000
    184      -0.5440      1.00000
    185      -0.5263      1.00000
    186      -0.5168      1.00000
    187      -0.5120      1.00000
    188      -0.5094      1.00000
    189      -0.5028      1.00000
    190      -0.4953      1.00000
    191      -0.4788      1.00000
    192      -0.4562      1.00000
    193      -0.4542      1.00000
    194      -0.4440      1.00000
    195      -0.4242      1.00000
    196      -0.4098      1.00000
    197      -0.4072      1.00000
    198      -0.4034      1.00000
    199      -0.3964      1.00000
    200      -0.3856      1.00000
    201      -0.1686      1.00000
    202      -0.1398      1.00000
    203      -0.1364      1.00000
    204      -0.1158      1.00000
    205      -0.0812      1.00000
    206      -0.0578      1.00000
    207      -0.0522      1.00000
    208      -0.0364      1.00000
    209      -0.0223      1.00000
    210       0.0072      1.00000
    211       0.0172      1.00000
    212       0.0680      1.00000
    213       4.9309      0.00000
    214       4.9489      0.00000
    215       4.9528      0.00000
    216       5.5844      0.00000
    217       5.5875      0.00000
    218       5.6005      0.00000
    219       5.6267      0.00000
    220       5.6981      0.00000
    221       5.7463      0.00000
    222       5.7872      0.00000
    223       5.8070      0.00000
    224       5.8242      0.00000
    225       5.8354      0.00000
    226       5.8454      0.00000
    227       5.8607      0.00000
    228       5.8761      0.00000
    229       5.9120      0.00000
    230       5.9281      0.00000
    231       6.0200      0.00000
    232       6.1713      0.00000
    233       6.1939      0.00000
    234       6.2820      0.00000
    235       6.3443      0.00000
    236       6.3524      0.00000
    237       6.3590      0.00000
    238       6.3789      0.00000
    239       6.4002      0.00000
    240       6.4044      0.00000
    241       6.5112      0.00000
    242       6.5398      0.00000
    243       6.5648      0.00000
    244       6.5863      0.00000
    245       6.6456      0.00000
    246       6.6707      0.00000
    247       6.6944      0.00000
    248       6.7343      0.00000
    249       6.8848      0.00000
    250       6.9625      0.00000
    251       7.0085      0.00000
    252       7.0332      0.00000
    253       7.0528      0.00000
    254       7.0616      0.00000
    255       7.0769      0.00000
    256       7.1308      0.00000
    257       7.1635      0.00000
    258       7.1738      0.00000
    259       7.1996      0.00000
    260       7.4692      0.00000
    261       7.4978      0.00000
    262       7.5089      0.00000
    263       7.5157      0.00000
    264       7.5499      0.00000
    265       7.5921      0.00000
    266       7.9170      0.00000
    267       7.9351      0.00000
    268       7.9486      0.00000
    269       7.9588      0.00000
    270       7.9674      0.00000
    271       7.9694      0.00000
    272       7.9777      0.00000
    273       7.9819      0.00000
    274       7.9971      0.00000
    275       8.0016      0.00000
    276       8.0081      0.00000
    277       8.0112      0.00000
    278       8.0254      0.00000
    279       8.0365      0.00000
    280       8.0476      0.00000
    281       8.0640      0.00000
    282       8.0985      0.00000
 Fermi energy:         0.6163766466

 spin component 2

 k-point     1 :       0.0000    0.0000    0.0000
  band No.  band energies     occupation 
      1     -19.7282      1.00000
      2     -19.6842      1.00000
      3     -19.6675      1.00000
      4     -19.6529      1.00000
      5     -19.6335      1.00000
      6     -19.6196      1.00000
      7     -19.6162      1.00000
      8     -19.5900      1.00000
      9     -19.5776      1.00000
     10     -19.5743      1.00000
     11     -19.5643      1.00000
     12     -19.5467      1.00000
     13     -19.5431      1.00000
     14     -19.5254      1.00000
     15     -19.5165      1.00000
     16     -19.5056      1.00000
     17     -19.4917      1.00000
     18     -19.4801      1.00000
     19     -19.4535      1.00000
     20     -19.4108      1.00000
     21     -19.3836      1.00000
     22     -19.3759      1.00000
     23     -19.3281      1.00000
     24     -19.3067      1.00000
     25     -19.1990      1.00000
     26     -19.0318      1.00000
     27     -12.7231      1.00000
     28     -12.7015      1.00000
     29     -12.6899      1.00000
     30     -12.6718      1.00000
     31     -12.6604      1.00000
     32     -12.6455      1.00000
     33     -12.6354      1.00000
     34     -12.6170      1.00000
     35     -12.5942      1.00000
     36     -12.5858      1.00000
     37     -12.5738      1.00000
     38     -12.5604      1.00000
     39     -12.5395      1.00000
     40     -12.5081      1.00000
     41     -12.5027      1.00000
     42     -12.4837      1.00000
     43     -12.4589      1.00000
     44     -12.4496      1.00000
     45     -12.4122      1.00000
     46     -12.0986      1.00000
     47     -12.0655      1.00000
     48     -12.0541      1.00000
     49     -12.0044      1.00000
     50     -11.9875      1.00000
     51     -11.9538      1.00000
     52     -11.9445      1.00000
     53     -11.8815      1.00000
     54      -6.8316      1.00000
     55      -6.8270      1.00000
     56      -6.8233      1.00000
     57      -6.8169      1.00000
     58      -6.8088      1.00000
     59      -6.8023      1.00000
     60      -6.7986      1.00000
     61      -6.7939      1.00000
     62      -6.7876      1.00000
     63      -6.7831      1.00000
     64      -6.7818      1.00000
     65      -6.7776      1.00000
     66      -6.7067      1.00000
     67      -6.7037      1.00000
     68      -6.6979      1.00000
     69      -6.6844      1.00000
     70      -6.6783      1.00000
     71      -6.6735      1.00000
     72      -6.6711      1.00000
     73      -6.6644      1.00000
     74      -6.6538      1.00000
     75      -6.6462      1.00000
     76      -6.6437      1.00000
     77      -6.6423      1.00000
     78      -6.6315      1.00000
     79      -6.6252      1.00000
     80      -6.6236      1.00000
     81      -6.6064      1.00000
     82      -6.6024      1.00000
     83      -6.6004      1.00000
     84      -6.5932      1.00000
     85      -6.5899      1.00000
     86      -6.5767      1.00000
     87      -6.5759      1.00000
     88      -6.5705      1.00000
     89      -6.5642      1.00000
     90      -6.5627      1.00000
     91      -6.5501      1.00000
     92      -6.5478      1.00000
     93      -6.5458      1.00000
     94      -6.5234      1.00000
     95      -6.5072      1.00000
     96      -6.4874      1.00000
     97      -6.4854      1.00000
     98      -6.4429      1.00000
     99      -6.4232      1.00000
    100      -6.4164      1.00000
    101      -6.3984      1.00000
[...]


 VOLUME and BASIS-vectors are now :
 -----------------------------------------------------------------------------
  energy-cutoff  :      262.47
  volume of cell :     1827.64
      direct lattice vectors                 reciprocal lattice vectors
    12.226345917  0.000000000  0.000000000     0.081790586  0.000000000  0.000000000
     0.000000000 12.226345917  0.000000000     0.000000000  0.081790586  0.000000000
     0.000000000  0.000000000 12.226345917     0.000000000  0.000000000  0.081790586

  length of vectors
    12.226345917 12.226345917 12.226345917     0.081790586  0.081790586  0.081790586


 FORCES acting on ions
    electron-ion (+dipol)            ewald-force                    non-local-force                 convergence-correction
 -----------------------------------------------------------------------------------------------
   0.287E+00 0.286E+00 0.405E+02   -.294E+00 -.289E+00 -.409E+02   0.163E-03 0.383E-02 0.391E+00   0.550E-02 0.442E-03 -.784E-02
   0.328E+00 0.184E+00 -.402E+02   -.333E+00 -.182E+00 0.406E+02   -.535E-02 -.278E-02 -.404E+00   0.641E-02 -.196E-03 0.107E-01
   0.168E+00 0.407E+02 0.449E+00   -.173E+00 -.411E+02 -.445E+00   -.514E-05 0.409E+00 -.812E-02   0.504E-02 -.122E-01 0.147E-02
   0.171E+00 0.148E+02 0.142E+02   -.184E+00 -.148E+02 -.143E+02   0.199E-02 0.785E-01 0.787E-01   0.746E-02 0.180E-02 -.306E-02
   0.422E+00 0.149E+02 -.146E+02   -.429E+00 -.150E+02 0.146E+02   -.321E-02 0.677E-01 -.743E-01   0.679E-02 -.415E-03 0.216E-02
   0.326E+00 -.415E+02 -.394E+00   -.329E+00 0.418E+02 0.386E+00   0.176E-02 -.369E+00 0.774E-02   0.266E-02 0.145E-01 0.134E-02
   0.399E+00 -.150E+02 0.149E+02   -.394E+00 0.151E+02 -.150E+02   -.873E-02 -.734E-01 0.707E-01   0.151E-02 -.837E-04 0.163E-02
   0.161E+00 -.148E+02 -.147E+02   -.169E+00 0.149E+02 0.147E+02   -.349E-02 -.862E-01 -.709E-01   0.644E-02 0.274E-03 -.304E-02
   0.416E+02 0.563E+00 -.525E-01   -.419E+02 -.570E+00 0.540E-01   0.345E+00 -.364E-02 -.313E-02   -.352E-01 0.463E-02 0.162E-02
   0.143E+02 0.300E+00 0.148E+02   -.144E+02 -.302E+00 -.149E+02   0.923E-01 -.358E-02 0.744E-01   -.441E-02 0.245E-02 0.420E-03
   0.144E+02 0.454E+00 -.147E+02   -.145E+02 -.451E+00 0.148E+02   0.839E-01 -.646E-02 -.764E-01   -.540E-02 0.477E-03 -.304E-02
   0.142E+02 0.146E+02 0.140E+00   -.143E+02 -.147E+02 -.142E+00   0.862E-01 0.769E-01 -.269E-02   -.437E-02 -.127E-02 0.192E-02
   0.535E+01 0.537E+01 0.495E+01   -.546E+01 -.549E+01 -.508E+01   0.137E+00 0.140E+00 0.150E+00   -.118E-01 -.105E-01 -.124E-01
   0.539E+01 0.508E+01 -.507E+01   -.551E+01 -.521E+01 0.520E+01   0.139E+00 0.149E+00 -.152E+00   -.112E-01 -.121E-01 0.107E-01
   0.137E+02 -.149E+02 -.874E-02   -.138E+02 0.150E+02 0.503E-02   0.106E+00 -.891E-01 0.334E-02   -.324E-02 -.324E-02 0.126E-02
   0.534E+01 -.547E+01 0.532E+01   -.546E+01 0.560E+01 -.545E+01   0.138E+00 -.149E+00 0.151E+00   -.107E-01 0.798E-02 -.964E-02
   0.539E+01 -.538E+01 -.549E+01   -.551E+01 0.551E+01 0.562E+01   0.134E+00 -.146E+00 -.139E+00   -.136E-01 0.115E-01 0.890E-02
   -.402E+02 -.214E+00 -.135E+00   0.406E+02 0.208E+00 0.141E+00   -.435E+00 0.125E-01 -.264E-02   0.216E-01 -.121E-02 -.209E-02
   -.146E+02 0.246E+00 0.149E+02   0.147E+02 -.253E+00 -.150E+02   -.666E-01 0.485E-02 0.663E-01   0.505E-02 0.320E-02 0.575E-02
   -.146E+02 0.137E+00 -.148E+02   0.147E+02 -.135E+00 0.148E+02   -.714E-01 -.555E-02 -.696E-01   0.265E-02 0.880E-03 -.458E-02
   -.143E+02 0.148E+02 0.119E+00   0.143E+02 -.149E+02 -.125E+00   -.740E-01 0.725E-01 0.240E-02   0.238E-02 0.348E-02 0.227E-02
   -.523E+01 0.537E+01 0.510E+01   0.536E+01 -.550E+01 -.524E+01   -.146E+00 0.151E+00 0.153E+00   0.461E-02 -.928E-02 -.101E-01
   -.559E+01 0.559E+01 -.533E+01   0.572E+01 -.572E+01 0.547E+01   -.136E+00 0.135E+00 -.143E+00   0.485E-02 -.798E-02 0.792E-02
   -.143E+02 -.145E+02 -.127E+00   0.143E+02 0.146E+02 0.126E+00   -.682E-01 -.840E-01 -.258E-02   0.116E-01 -.443E-02 0.221E-02
   -.527E+01 -.578E+01 0.578E+01   0.540E+01 0.591E+01 -.591E+01   -.147E+00 -.133E+00 0.134E+00   0.927E-02 0.656E-02 -.780E-02
   -.503E+01 -.544E+01 -.552E+01   0.517E+01 0.558E+01 0.566E+01   -.153E+00 -.148E+00 -.147E+00   0.611E-02 0.590E-02 0.448E-02
   0.371E+02 0.379E+02 0.373E+02   -.372E+02 -.380E+02 -.375E+02   0.110E+00 0.116E+00 0.119E+00   0.384E-02 -.239E-02 -.523E-02
   0.167E+02 0.164E+02 0.161E+00   -.167E+02 -.164E+02 -.157E+00   0.540E-01 0.603E-01 -.677E-02   -.316E-02 0.329E-02 -.567E-03
   0.372E+02 0.375E+02 -.373E+02   -.373E+02 -.376E+02 0.375E+02   0.103E+00 0.114E+00 -.119E+00   0.275E-03 -.696E-02 -.270E-02
   0.161E+02 -.476E-01 0.159E+02   -.161E+02 0.500E-01 -.159E+02   0.518E-01 0.163E-03 0.517E-01   -.441E-02 -.326E-02 0.269E-02
   0.472E+01 -.284E-01 -.440E-01   -.473E+01 0.323E-01 0.417E-01   0.145E-01 -.290E-02 0.266E-02   -.560E-02 -.218E-02 0.564E-03
   0.160E+02 0.192E+00 -.158E+02   -.160E+02 -.188E+00 0.159E+02   0.523E-01 -.328E-02 -.551E-01   -.483E-02 -.328E-02 -.366E-02
   0.378E+02 -.378E+02 0.377E+02   -.379E+02 0.379E+02 -.378E+02   0.106E+00 -.121E+00 0.131E+00   -.521E-02 0.105E-02 0.263E-02
   0.165E+02 -.165E+02 -.291E+00   -.166E+02 0.165E+02 0.283E+00   0.535E-01 -.567E-01 0.877E-02   -.348E-02 -.191E-02 0.297E-02
   0.373E+02 -.376E+02 -.379E+02   -.374E+02 0.377E+02 0.380E+02   0.108E+00 -.116E+00 -.118E+00   -.515E-02 0.300E-02 0.402E-02
   -.676E+00 0.165E+02 0.162E+02   0.669E+00 -.165E+02 -.162E+02   0.744E-02 0.516E-01 0.531E-01   0.216E-02 -.512E-03 0.145E-02
   -.843E-01 0.503E+01 0.645E-01   0.884E-01 -.504E+01 -.654E-01   -.128E-02 0.151E-01 -.893E-04   -.407E-02 -.251E-02 0.596E-03
   -.611E+00 0.163E+02 -.162E+02   0.610E+00 -.164E+02 0.163E+02   0.256E-02 0.518E-01 -.540E-01   -.211E-03 0.173E-02 -.187E-02
   -.342E+00 -.264E+00 0.513E+01   0.345E+00 0.263E+00 -.514E+01   0.743E-02 0.653E-04 0.119E-01   -.581E-02 0.373E-03 -.243E-03
   0.270E+00 -.149E-01 0.300E-01   -.269E+00 0.157E-01 -.299E-01   -.265E-02 -.141E-02 -.667E-03   -.184E-02 -.683E-03 0.147E-03
   -.198E+00 -.367E+00 -.513E+01   0.204E+00 0.365E+00 0.514E+01   0.323E-02 0.569E-02 -.117E-01   -.641E-02 0.145E-03 0.102E-04
   -.267E+00 -.160E+02 0.160E+02   0.277E+00 0.161E+02 -.161E+02   -.496E-02 -.600E-01 0.557E-01   -.611E-02 -.307E-02 0.136E-02
   -.164E+00 -.500E+01 0.153E+00   0.166E+00 0.501E+01 -.152E+00   0.240E-02 -.190E-01 -.262E-02   -.426E-02 0.619E-03 0.550E-03
   -.156E+00 -.159E+02 -.162E+02   0.157E+00 0.160E+02 0.162E+02   -.119E-02 -.603E-01 -.525E-01   -.423E-03 -.220E-02 -.104E-02
   -.368E+02 0.369E+02 0.366E+02   0.369E+02 -.370E+02 -.367E+02   -.110E+00 0.109E+00 0.105E+00   -.284E-02 0.167E-02 -.287E-02
   -.169E+02 0.163E+02 -.324E+00   0.170E+02 -.164E+02 0.317E+00   -.511E-01 0.680E-01 0.796E-02   0.580E-03 -.310E-02 0.268E-02
   -.367E+02 0.366E+02 -.363E+02   0.369E+02 -.366E+02 0.364E+02   -.102E+00 0.965E-01 -.103E+00   -.101E-02 -.105E-01 0.447E-02
   -.165E+02 -.802E+00 0.161E+02   0.165E+02 0.769E+00 -.161E+02   -.394E-01 0.317E-01 0.517E-01   0.566E-02 0.135E-01 -.784E-02
   -.510E+01 0.260E+00 -.169E-01   0.510E+01 -.255E+00 0.171E-01   -.126E-01 -.807E-02 0.290E-03   0.566E-02 -.130E-02 -.371E-03
   -.166E+02 0.295E+00 -.161E+02   0.166E+02 -.290E+00 0.161E+02   -.375E-01 -.555E-02 -.506E-01   0.693E-02 -.251E-02 0.864E-02
   -.374E+02 -.368E+02 0.366E+02   0.375E+02 0.369E+02 -.367E+02   -.101E+00 -.985E-01 0.108E+00   0.248E-03 0.844E-02 -.761E-02
   -.169E+02 -.166E+02 0.358E+00   0.169E+02 0.167E+02 -.341E+00   -.497E-01 -.602E-01 -.121E-01   0.391E-02 0.382E-02 -.854E-02
   -.373E+02 -.368E+02 -.368E+02   0.374E+02 0.369E+02 0.369E+02   -.115E+00 -.104E+00 -.113E+00   -.750E-02 0.425E-02 0.701E-02
 -----------------------------------------------------------------------------------------------
   0.842E-01 0.180E-01 0.541E-02   -.220E-12 -.213E-13 -.142E-13   -.536E-02 0.536E-02 -.788E-02   -.330E-01 -.333E-02 -.156E-02
 
 
 POSITION                                       TOTAL-FORCE (eV/Angst)
 -----------------------------------------------------------------------------------
     12.22488     12.22047      3.86220        -0.002226      0.001300     -0.007839
      0.00048     12.22585      8.37517        -0.004520     -0.001404      0.004394
     12.22374      3.85198      0.00223        -0.001030     -0.010054     -0.001909
     12.22514      4.07051      4.07839        -0.004550     -0.003591     -0.005346
     12.22459      4.07817      8.14948        -0.004568     -0.008949      0.006448
     12.22310      8.33519     12.22579         0.000674      0.018180      0.000731
     12.22512      8.14536      4.07665        -0.002908      0.007762     -0.007238
      0.00071      8.15166      8.14782        -0.005842      0.003415      0.008336
      3.90262      0.00106      0.00032        -0.013267     -0.006224      0.000155
      4.06626     12.22621      4.07878         0.007532     -0.002982     -0.009949
      4.06932     12.22602      8.14949         0.003515     -0.003165      0.007113
      4.06927      4.07765      0.00223         0.001351     -0.007763     -0.002580
      4.07244      4.07519      4.07713         0.008616      0.006243      0.008878
      4.07269      4.07451      8.15151         0.008430      0.008688     -0.008448
      4.06447      8.14881     12.22466         0.012028      0.007475      0.000971
      4.07503      8.15052      4.07412         0.005394     -0.006836      0.007716
      4.07512      8.14988      8.14733         0.006420     -0.007497     -0.003379
      8.38861     12.22141      0.00113        -0.006423      0.004266      0.000565
      8.14509     12.22152      4.08098         0.004319      0.000564     -0.012498
      8.14782      0.00048      8.14987         0.001265     -0.002498      0.007980
      8.14335      4.07618      0.00016         0.004441     -0.008906     -0.000637
      8.14554      4.07118      4.07713        -0.005852      0.007851      0.006169
      8.14479      4.07862      8.14642        -0.003976      0.001273     -0.001324
      8.14276      8.14560      0.00246         0.003518      0.008159     -0.001832
      8.14774      8.14193      4.08254        -0.008745      0.002307     -0.002536
      8.14848      8.14981      8.15003        -0.008580     -0.005655     -0.002007
      2.11436      2.10968      2.11299        -0.006873     -0.002192     -0.000730
      2.03211      2.03513      6.11860        -0.000855      0.001467     -0.003116
      2.11704      2.11151     10.11647        -0.009947     -0.001724      0.003015
      2.02990      6.10899      2.03943        -0.000358     -0.001112      0.000141
      2.03431      6.11201      6.11240         0.004435     -0.001561      0.000969
      2.02929      6.11158     10.18850        -0.000134     -0.002356     -0.001199
      2.11450     10.11029      2.10615        -0.007720      0.003139      0.003017
      2.03270     10.18600      6.10773        -0.001210     -0.001502      0.003779
      2.11551     10.11057     10.11428        -0.007211      0.004520      0.003086
      6.11023      2.03744      2.04020         0.001631      0.000702      0.001955
      6.10677      2.03505      6.11451        -0.002168      0.004432     -0.000277
      6.11278      2.03850     10.18817         0.000483      0.000397     -0.001233
      6.10256      6.11224      2.03978         0.003860     -0.000949      0.002909
      6.11054      6.11176      6.11377        -0.003635     -0.001649     -0.000326
      6.10337      6.11094     10.18745         0.001405      0.002670     -0.002145
      6.11490     10.18864      2.03847        -0.001740     -0.004872      0.003540
      6.10613     10.18840      6.11503         0.000006     -0.006809     -0.001394
      6.11584     10.18934     10.18879        -0.001455     -0.005169     -0.001287
     10.11067      2.10741      2.11583         0.005194     -0.001561     -0.004161
     10.18228      2.03218      6.11167         0.001018      0.007030      0.003456
     10.10936      2.11613     10.11112         0.009075     -0.005313      0.004150
     10.17833      6.09558      2.03906         0.004143      0.011425      0.002766
     10.18777      6.11311      6.11326        -0.005572     -0.004778      0.000161
     10.17718      6.11272     10.18730         0.004421     -0.003592     -0.002031
     10.10862     10.09918      2.11622         0.011739      0.007153     -0.002608
     10.18233     10.18684      6.11894         0.000838     -0.004817     -0.003233
     10.11353     10.10685     10.11746         0.005615      0.005061     -0.001137
 -----------------------------------------------------------------------------------
    total drift:                                0.045832      0.020038     -0.004032


--------------------------------------------------------------------------------------------------------



  FREE ENERGIE OF THE ION-ELECTRON SYSTEM (eV)
  ---------------------------------------------------
  free  energy   TOTEN  =      -179.37838253 eV

  energy  without entropy=     -179.37838253  energy(sigma->0) =     -179.37838253
 d Force = 0.3831754E-02[-0.512E-03, 0.818E-02]  d Energy = 0.4012789E-02-0.181E-03
 d Force = 0.7447562E+00[ 0.552E+00, 0.937E+00]  d Ewald  = 0.7446361E+00 0.120E-03
 


--------------------------------------------------------------------------------------------------------


    POTLOK:  cpu time      1.9373: real time      1.9454


--------------------------------------------------------------------------------------------------------




--------------------------------------------------------------------------------------------------------


  
 reached required accuracy - stopping structural energy minimisation
     LOOP+:  cpu time     20.0885: real time     20.1510
    4ORBIT:  cpu time      0.0000: real time      0.0000



 total charge

# of ion       s       p       d       tot
------------------------------------------
    1        1.970   4.706   0.032   6.709
    2        1.968   4.706   0.032   6.706
    3        1.968   4.706   0.032   6.707
    4        1.966   4.705   0.036   6.707
    5        1.966   4.705   0.036   6.707
    6        1.977   4.707   0.032   6.716
    7        1.966   4.705   0.036   6.707
    8        1.966   4.704   0.036   6.707
    9        1.971   4.706   0.032   6.709
   10        1.966   4.705   0.036   6.707
   11        1.966   4.705   0.036   6.707
   12        1.966   4.704   0.036   6.707
   13        1.966   4.704   0.037   6.708
   14        1.966   4.704   0.037   6.708
   15        1.966   4.705   0.036   6.707
   16        1.966   4.704   0.037   6.708
   17        1.966   4.704   0.037   6.708
   18        1.966   4.706   0.033   6.705
   19        1.966   4.705   0.036   6.707
   20        1.966   4.705   0.036   6.707
   21        1.966   4.705   0.036   6.707
   22        1.966   4.704   0.037   6.708
   23        1.966   4.704   0.037   6.708
   24        1.966   4.705   0.036   6.707
   25        1.967   4.704   0.037   6.708
   26        1.966   4.704   0.037   6.708
   27        1.581   3.563   0.000   5.144
   28        1.581   3.556   0.000   5.137
   29        1.581   3.563   0.000   5.144
   30        1.581   3.556   0.000   5.137
   31        1.581   3.559   0.000   5.140
   32        1.581   3.556   0.000   5.137
   33        1.581   3.563   0.000   5.144
   34        1.581   3.556   0.000   5.137
   35        1.581   3.563   0.000   5.144
   36        1.581   3.556   0.000   5.137
   37        1.581   3.559   0.000   5.140
   38        1.581   3.556   0.000   5.137
   39        1.581   3.559   0.000   5.140
   40        1.581   3.560   0.000   5.141
   41        1.581   3.559   0.000   5.140
   42        1.581   3.556   0.000   5.137
   43        1.581   3.559   0.000   5.140
   44        1.581   3.556   0.000   5.137
   45        1.581   3.564   0.000   5.145
   46        1.581   3.556   0.000   5.137
   47        1.581   3.564   0.000   5.145
   48        1.581   3.556   0.000   5.137
   49        1.581   3.559   0.000   5.140
   50        1.581   3.556   0.000   5.137
   51        1.581   3.563   0.000   5.145
   52        1.581   3.556   0.000   5.137
   53        1.581   3.563   0.000   5.145
--------------------------------------------------
tot         93.834 218.419   0.928 313.182



 magnetization (x)

# of ion       s       p       d       tot
------------------------------------------
    1        0.000  -0.000   0.000   0.000
    2        0.000  -0.000   0.000   0.000
    3       -0.000   0.000   0.000  -0.000
    4       -0.000  -0.000   0.000  -0.000
    5       -0.000  -0.000  -0.000  -0.000
    6       -0.000  -0.000   0.000  -0.000
    7       -0.000  -0.000   0.000  -0.000
    8       -0.000  -0.000  -0.000  -0.000
    9        0.000   0.000   0.000   0.000
   10       -0.000   0.000  -0.000  -0.000
   11       -0.000   0.000  -0.000  -0.000
   12        0.000   0.000  -0.000   0.000
   13       -0.000  -0.000  -0.000  -0.000
   14       -0.000   0.000  -0.000  -0.000
   15        0.000   0.000  -0.000   0.000
   16       -0.000   0.000   0.000  -0.000
   17       -0.000   0.000   0.000  -0.000
   18       -0.000  -0.000   0.000  -0.000
   19       -0.000  -0.000  -0.000  -0.000
   20       -0.000  -0.000  -0.000  -0.000
   21       -0.000  -0.000  -0.000  -0.000
   22        0.000  -0.000   0.000   0.000
   23        0.000   0.000  -0.000   0.000
   24       -0.000  -0.000  -0.000  -0.000
   25       -0.000  -0.000  -0.000  -0.000
   26        0.000   0.000  -0.000   0.000
   27        0.000   0.000   0.000   0.000
   28        0.000  -0.000   0.000  -0.000
   29        0.000   0.000   0.000   0.000
   30       -0.000  -0.000   0.000  -0.000
   31        0.000  -0.000   0.000  -0.000
   32       -0.000  -0.000   0.000  -0.000
   33       -0.000  -0.000   0.000  -0.000
   34        0.000  -0.000   0.000  -0.000
   35        0.000   0.000   0.000   0.000
   36       -0.000  -0.000   0.000  -0.000
   37        0.000   0.000   0.000   0.000
   38        0.000   0.000   0.000   0.000
   39        0.000   0.000   0.000   0.000
   40       -0.000  -0.000   0.000  -0.000
   41        0.000   0.000   0.000   0.000
   42       -0.000   0.000   0.000   0.000
   43        0.000  -0.000   0.000  -0.000
   44       -0.000  -0.000   0.000  -0.000
   45        0.000   0.000   0.000   0.000
   46       -0.000  -0.000   0.000  -0.000
   47       -0.000  -0.000   0.000  -0.000
   48        0.000   0.000   0.000   0.000
   49       -0.000  -0.000   0.000  -0.000
   50        0.000   0.000   0.000   0.000
   51        0.000   0.000   0.000   0.000
   52       -0.000  -0.000   0.000  -0.000
   53       -0.000   0.000   0.000   0.000
--------------------------------------------------
tot         -0.000   0.000  -0.000  -0.000
 

 total amount of memory used by VASP MPI-rank0   179455. kBytes
=======================================================================

   base                                    :      30000. kBytes
   nonlr-proj                              :       6377. kBytes
   fftplans                                :      15598. kBytes
   grid                                    :      44900. kBytes
   one-center                              :        859. kBytes
   wavefun                                 :      81721. kBytes
 
  
  
 General timing and accounting informations for this job:
 ========================================================
  
                  Total CPU time used (sec):      274.858
                            User time (sec):      272.574
                          System time (sec):        2.283
                         Elapsed time (sec):      276.628
  
                   Maximum memory used (kb):     1937552.
                   Average memory used (kb):          N/A
  
                          Minor page faults:       250735
                          Major page faults:          147
                 Voluntary context switches:        23915
