<?xml version="1.0" encoding="ISO-8859-1"?>
<modeling>
 <generator>
  <i name="program" type="string">vasp </i>
  <i name="version" type="string">6.5.1  </i>
  <i name="subversion" type="string">10Mar25 (build May 13 2025 11:33:44) complex                          parallel </i>
  <i name="platform" type="string">LinuxNV </i>
  <i name="date" type="string">2026 05 13 </i>
  <i name="time" type="string">15:20:49 </i>
 </generator>
 <incar>
  <i type="string" name="PREC">Normal</i>
  <i type="string" name="ALGO">Normal</i>
  <i type="int" name="ISPIN">     2</i>
  <i type="int" name="NELM">   100</i>
  <i type="int" name="IBRION">     2</i>
  <i name="EDIFF">      0.00001000</i>
  <i name="EDIFFG">     -0.03000000</i>
  <i type="int" name="NSW">   300</i>
  <i type="int" name="ISIF">     2</i>
  <i name="ENCUT">    262.47200000</i>
  <i name="NELECT">    424.00000000</i>
  <i type="string" name="LREAL">Auto</i>
  <i type="int" name="ISMEAR">     0</i>
  <i name="SIGMA">      0.10000000</i>
  <i type="logical" name="LWAVE"> F  </i>
  <i type="logical" name="LCHARG"> F  </i>
  <i type="int" name="LORBIT">    10</i>
  <i type="logical" name="LASPH"> T  </i>
  <i type="string" name="GGA">Ps</i>
 </incar>
 <primitive_cell>
  <structure name="primitive_cell" >
   <crystal>
    <varray name="basis" >
     <v>      12.22634592       0.00000000       0.00000000 </v>
     <v>       0.00000000      12.22634592       0.00000000 </v>
     <v>       0.00000000       0.00000000      12.22634592 </v>
    </varray>
    <i name="volume">   1827.63740156 </i>
    <varray name="rec_basis" >
     <v>       0.08179059       0.00000000       0.00000000 </v>
     <v>       0.00000000       0.08179059       0.00000000 </v>
     <v>       0.00000000       0.00000000       0.08179059 </v>
    </varray>
   </crystal>
   <varray name="positions" >
    <v>       0.99546965       0.99671109       0.33583178 </v>
    <v>       0.99874813       0.99910992       0.66531317 </v>
    <v>       0.99815692       0.33796259       0.00067203 </v>
    <v>       0.00000000       0.33333333       0.33333333 </v>
    <v>       0.00000000       0.33333333       0.66666667 </v>
    <v>       0.99067472       0.65588139       0.99921596 </v>
    <v>       0.00000000       0.66666667       0.33333333 </v>
    <v>       0.00000000       0.66666667       0.66666667 </v>
    <v>       0.34378612       0.00109218       0.00143563 </v>
    <v>       0.33333333       0.00000000       0.33333333 </v>
    <v>       0.33333333       0.00000000       0.66666667 </v>
    <v>       0.33333333       0.33333333       0.00000000 </v>
    <v>       0.33333333       0.33333333       0.33333333 </v>
    <v>       0.33333333       0.33333333       0.66666667 </v>
    <v>       0.33333333       0.66666667       0.00000000 </v>
    <v>       0.33333333       0.66666667       0.33333333 </v>
    <v>       0.33333333       0.66666667       0.66666667 </v>
    <v>       0.67830882       0.99966398       0.99803272 </v>
    <v>       0.66666667       0.00000000       0.33333333 </v>
    <v>       0.66666667       0.00000000       0.66666667 </v>
    <v>       0.66666667       0.33333333       0.00000000 </v>
    <v>       0.66666667       0.33333333       0.33333333 </v>
    <v>       0.66666667       0.33333333       0.66666667 </v>
    <v>       0.66666667       0.66666667       0.00000000 </v>
    <v>       0.66666667       0.66666667       0.33333333 </v>
    <v>       0.66666667       0.66666667       0.66666667 </v>
    <v>       0.16667459       0.16610873       0.16931116 </v>
    <v>       0.16666667       0.16666667       0.50000000 </v>
    <v>       0.16490133       0.17191576       0.83355027 </v>
    <v>       0.16666667       0.50000000       0.16666667 </v>
    <v>       0.16666667       0.50000000       0.50000000 </v>
    <v>       0.16666667       0.50000000       0.83333333 </v>
    <v>       0.17027481       0.83391222       0.16379639 </v>
    <v>       0.16666667       0.83333333       0.50000000 </v>
    <v>       0.17146645       0.83009584       0.83151707 </v>
    <v>       0.50000000       0.16666667       0.16666667 </v>
    <v>       0.50000000       0.16666667       0.50000000 </v>
    <v>       0.50000000       0.16666667       0.83333333 </v>
    <v>       0.50000000       0.50000000       0.16666667 </v>
    <v>       0.50000000       0.50000000       0.50000000 </v>
    <v>       0.50000000       0.50000000       0.83333333 </v>
    <v>       0.50000000       0.83333333       0.16666667 </v>
    <v>       0.50000000       0.83333333       0.50000000 </v>
    <v>       0.50000000       0.83333333       0.83333333 </v>
    <v>       0.82542005       0.15925158       0.16270216 </v>
    <v>       0.83333333       0.16666667       0.50000000 </v>
    <v>       0.83075384       0.16619309       0.83451521 </v>
    <v>       0.83333333       0.50000000       0.16666667 </v>
    <v>       0.83333333       0.50000000       0.50000000 </v>
    <v>       0.83333333       0.50000000       0.83333333 </v>
    <v>       0.82927230       0.82841797       0.16215346 </v>
    <v>       0.83333333       0.83333333       0.50000000 </v>
    <v>       0.82555942       0.84084246       0.84539751 </v>
   </varray>
  </structure>
  <varray name="primitive_index" >
   <v type="int" >        1 </v>
   <v type="int" >        2 </v>
   <v type="int" >        3 </v>
   <v type="int" >        4 </v>
   <v type="int" >        5 </v>
   <v type="int" >        6 </v>
   <v type="int" >        7 </v>
   <v type="int" >        8 </v>
   <v type="int" >        9 </v>
   <v type="int" >       10 </v>
   <v type="int" >       11 </v>
   <v type="int" >       12 </v>
   <v type="int" >       13 </v>
   <v type="int" >       14 </v>
   <v type="int" >       15 </v>
   <v type="int" >       16 </v>
   <v type="int" >       17 </v>
   <v type="int" >       18 </v>
   <v type="int" >       19 </v>
   <v type="int" >       20 </v>
   <v type="int" >       21 </v>
   <v type="int" >       22 </v>
   <v type="int" >       23 </v>
   <v type="int" >       24 </v>
   <v type="int" >       25 </v>
   <v type="int" >       26 </v>
   <v type="int" >       27 </v>
   <v type="int" >       28 </v>
   <v type="int" >       29 </v>
   <v type="int" >       30 </v>
   <v type="int" >       31 </v>
   <v type="int" >       32 </v>
   <v type="int" >       33 </v>
   <v type="int" >       34 </v>
   <v type="int" >       35 </v>
   <v type="int" >       36 </v>
   <v type="int" >       37 </v>
   <v type="int" >       38 </v>
   <v type="int" >       39 </v>
   <v type="int" >       40 </v>
   <v type="int" >       41 </v>
   <v type="int" >       42 </v>
   <v type="int" >       43 </v>
   <v type="int" >       44 </v>
   <v type="int" >       45 </v>
   <v type="int" >       46 </v>
   <v type="int" >       47 </v>
   <v type="int" >       48 </v>
   <v type="int" >       49 </v>
   <v type="int" >       50 </v>
   <v type="int" >       51 </v>
   <v type="int" >       52 </v>
   <v type="int" >       53 </v>
  </varray>
 </primitive_cell>
 <kpoints>
  <generation param="Gamma">
   <v type="int" name="divisions">       1        1        1 </v>
   <v name="usershift">      0.00000000       0.00000000       0.00000000 </v>
   <v name="genvec1">      1.00000000       0.00000000       0.00000000 </v>
   <v name="genvec2">      0.00000000       1.00000000       0.00000000 </v>
   <v name="genvec3">      0.00000000       0.00000000       1.00000000 </v>
   <v name="shift">      0.00000000       0.00000000       0.00000000 </v>
  </generation>
  <varray name="kpointlist" >
   <v>       0.00000000       0.00000000       0.00000000 </v>
  </varray>
  <varray name="weights" >
   <v>       1.00000000 </v>
  </varray>
 </kpoints>
 <parameters>
  <separator name="general" >
   <i type="string" name="SYSTEM">unknown system</i>
   <i type="logical" name="LCOMPAT"> F  </i>
  </separator>
  <separator name="electronic" >
   <i type="string" name="PREC">normal</i>
   <i name="ENMAX">    262.47200000</i>
   <i name="ENAUG">    407.93300000</i>
   <i name="EDIFF">      0.00001000</i>
   <i type="int" name="IALGO">    38</i>
   <i type="int" name="IWAVPR">    11</i>
   <i type="int" name="NBANDS">   282</i>
   <i type="int" name="NBANDSLOW">    -1</i>
   <i type="int" name="NBANDSHIGH">    -1</i>
   <i name="NELECT">    424.00000000</i>
   <i type="int" name="TURBO">     0</i>
   <i type="int" name="IRESTART">     0</i>
   <i type="int" name="NREBOOT">     0</i>
   <i type="int" name="NMIN">     0</i>
   <i name="EREF">      0.00000000</i>
   <separator name="electronic smearing" >
    <i type="int" name="ISMEAR">     0</i>
    <i name="SIGMA">      0.10000000</i>
    <i name="KSPACING">      0.50000000</i>
    <i type="logical" name="KGAMMA"> T  </i>
    <i type="logical" name="KBLOWUP"> T  </i>
   </separator>
   <separator name="electronic projectors" >
    <i type="logical" name="LREAL"> T  </i>
    <v name="ROPT">     -0.00050000     -0.00050000</v>
    <i type="int" name="LMAXPAW">  -100</i>
    <i type="int" name="LMAXMIX">     2</i>
    <i type="logical" name="NLSPLINE"> F  </i>
   </separator>
   <separator name="electronic startup" >
    <i type="int" name="ISTART">     0</i>
    <i type="int" name="ICHARG">     2</i>
    <i type="int" name="INIWAV">     1</i>
   </separator>
   <separator name="electronic spin" >
    <i type="int" name="ISPIN">     2</i>
    <i type="logical" name="LNONCOLLINEAR"> F  </i>
    <v name="MAGMOM">      1.00000000      1.00000000      1.00000000      1.00000000      1.00000000      1.00000000      1.00000000      1.00000000      1.00000000      1.00000000      1.00000000      1.00000000      1.00000000      1.00000000      1.00000000      1.00000000      1.00000000      1.00000000      1.00000000      1.00000000
      1.00000000      1.00000000      1.00000000      1.00000000      1.00000000      1.00000000      1.00000000      1.00000000      1.00000000      1.00000000      1.00000000      1.00000000      1.00000000      1.00000000      1.00000000      1.00000000      1.00000000      1.00000000      1.00000000      1.00000000
      1.00000000      1.00000000      1.00000000      1.00000000      1.00000000      1.00000000      1.00000000      1.00000000      1.00000000      1.00000000      1.00000000      1.00000000      1.00000000</v>
    <i name="NUPDOWN">     -1.00000000</i>
    <i type="logical" name="LSORBIT"> F  </i>
    <v name="SAXIS">      0.00000000      0.00000000      1.00000000</v>
    <i type="logical" name="LSPIRAL"> F  </i>
    <v name="QSPIRAL">      0.00000000      0.00000000      0.00000000</v>
    <i type="logical" name="LZEROZ"> F  </i>
   </separator>
   <separator name="electronic exchange-correlation" >
    <i type="logical" name="LASPH"> T  </i>
   </separator>
   <separator name="electronic convergence" >
    <i type="int" name="NELM">   100</i>
    <i type="int" name="NELMDL">    -5</i>
    <i type="int" name="NELMIN">     2</i>
    <i name="ENINI">    262.47200000</i>
    <separator name="electronic convergence detail" >
     <i type="logical" name="LDIAG"> T  </i>
     <i type="logical" name="LSUBROT"> F  </i>
     <i type="logical" name="LROBUST"> F  </i>
     <i type="int" name="ISEARCH">     0</i>
     <i name="WEIMIN">      0.00100000</i>
     <i name="EBREAK">      0.00000001</i>
     <i name="DEPER">      0.30000000</i>
     <i type="int" name="NRMM">     4</i>
     <i name="TIME">      0.40000000</i>
    </separator>
   </separator>
   <separator name="electronic mixer" >
    <i name="AMIX">      0.40000000</i>
    <i name="BMIX">      1.00000000</i>
    <i name="AMIN">      0.10000000</i>
    <i name="AMIX_MAG">      1.60000000</i>
    <i name="BMIX_MAG">      1.00000000</i>
    <separator name="electronic mixer details" >
     <i type="int" name="IMIX">     4</i>
     <i type="logical" name="MIXFIRST"> F  </i>
     <i type="int" name="MAXMIX">   -45</i>
     <i name="WC">    100.00000000</i>
     <i type="int" name="INIMIX">     1</i>
     <i type="int" name="MIXPRE">     1</i>
     <i type="int" name="MREMOVE">     5</i>
    </separator>
   </separator>
   <separator name="electronic dipolcorrection" >
    <i type="logical" name="LDIPOL"> F  </i>
    <i type="logical" name="LMONO"> F  </i>
    <i type="int" name="IDIPOL">     0</i>
    <i name="EPSILON">      1.00000000</i>
    <v name="DIPOL">   -100.00000000   -100.00000000   -100.00000000</v>
    <i name="EFIELD">      0.00000000</i>
    <i type="logical" name="LVACPOTAV"> F  </i>
   </separator>
  </separator>
  <separator name="grids" >
   <i type="int" name="NGX">    48</i>
   <i type="int" name="NGY">    48</i>
   <i type="int" name="NGZ">    48</i>
   <i type="int" name="NGXF">    96</i>
   <i type="int" name="NGYF">    96</i>
   <i type="int" name="NGZF">    96</i>
   <i type="logical" name="ADDGRID"> F  </i>
  </separator>
  <separator name="ionic" >
   <i type="int" name="NSW">   300</i>
   <i type="int" name="IBRION">     2</i>
   <i type="int" name="MDALGO">     0</i>
   <i type="int" name="ISIF">     2</i>
   <i name="PSTRESS">      0.00000000</i>
   <i name="EDIFFG">     -0.03000000</i>
   <i type="int" name="NFREE">     1</i>
   <i name="POTIM">      0.50000000</i>
   <i name="SMASS">     -3.00000000</i>
   <i name="SCALEE">      1.00000000</i>
  </separator>
  <separator name="ionic md" >
   <i name="TEBEG">      0.00010000</i>
   <i name="TEEND">      0.00010000</i>
   <i type="int" name="NBLOCK">     1</i>
   <i type="int" name="KBLOCK">   300</i>
   <i type="int" name="NPACO">   256</i>
   <i name="APACO">     10.00000000</i>
  </separator>
  <separator name="symmetry" >
   <i type="int" name="ISYM">     2</i>
   <i name="SYMPREC">      0.00001000</i>
  </separator>
  <separator name="dos" >
   <i type="int" name="LORBIT">    10</i>
   <v name="RWIGS">     -1.00000000     -1.00000000</v>
   <i type="int" name="NEDOS">   301</i>
   <i name="EMIN">     10.00000000</i>
   <i name="EMAX">    -10.00000000</i>
   <i name="EFERMI">      0.00000000</i>
  </separator>
  <separator name="writing" >
   <i type="int" name="NWRITE">     2</i>
   <i type="logical" name="LWAVE"> F  </i>
   <i type="logical" name="LDOWNSAMPLE"> F  </i>
   <i type="logical" name="LCHARG"> F  </i>
   <i type="logical" name="LPARD"> F  </i>
   <i type="logical" name="LVTOT"> F  </i>
   <i type="logical" name="LVHAR"> F  </i>
   <i type="logical" name="LELF"> F  </i>
   <i type="logical" name="LOPTICS"> F  </i>
   <v name="STM">      0.00000000      0.00000000      0.00000000      0.00000000      0.00000000      0.00000000      0.00000000</v>
  </separator>
  <separator name="performance" >
   <i type="int" name="NPAR">     2</i>
   <i type="int" name="NSIM">     4</i>
   <i type="int" name="NBLK">    -1</i>
   <i type="logical" name="LPLANE"> T  </i>
   <i type="logical" name="LSCALAPACK"> T  </i>
   <i type="logical" name="LSCAAWARE"> F  </i>
   <i type="logical" name="LSCALU"> F  </i>
   <i type="logical" name="LASYNC"> F  </i>
   <i type="logical" name="LORBITALREAL"> F  </i>
  </separator>
  <separator name="miscellaneous" >
   <i type="int" name="IDIOT">     3</i>
   <i type="int" name="PHON_NSTRUCT">    -1</i>
   <i type="logical" name="LMUSIC"> F  </i>
   <v name="POMASS">    132.90000000     35.45300000</v>
   <v name="DARWINR">      0.00000000      0.00000000</v>
   <v name="DARWINV">      1.00000000      1.00000000</v>
   <i type="logical" name="LCORR"> T  </i>
  </separator>
  <i type="logical" name="GGA_COMPAT"> T  </i>
  <i type="logical" name="LBERRY"> F  </i>
  <i type="int" name="ICORELEVEL">     0</i>
  <i type="logical" name="LDAU"> F  </i>
  <i type="int" name="I_CONSTRAINED_M">     0</i>
  <separator name="electronic exchange-correlation" >
   <i type="string" name="GGA    ">PS</i>
   <i type="string" name="XC_C">1</i>
   <i type="int" name="VOSKOWN">     0</i>
   <i type="logical" name="LHFCALC"> F  </i>
   <i type="string" name="PRECFOCK"></i>
   <i type="logical" name="LSYMGRAD"> F  </i>
   <i type="logical" name="LHFONE"> F  </i>
   <i type="logical" name="LRHFCALC"> F  </i>
   <i type="logical" name="LTHOMAS"> F  </i>
   <i type="logical" name="LMODELHF"> F  </i>
   <i type="logical" name="LFOCKACE"> F  </i>
   <i name="ENCUT4O">     -1.00000000</i>
   <i type="int" name="EXXOEP">     0</i>
   <i type="int" name="FOURORBIT">     0</i>
   <i name="AEXX">      0.00000000</i>
   <i name="HFALPHA">      0.00000000</i>
   <i name="MCALPHA">      0.00000000</i>
   <i name="ALDAX">      1.00000000</i>
   <i name="AGGAX">      1.00000000</i>
   <i name="AMGGAX">      1.00000000</i>
   <i name="ALDAC">      1.00000000</i>
   <i name="AGGAC">      1.00000000</i>
   <i name="AMGGAC">      1.00000000</i>
   <i type="int" name="NKREDX">     1</i>
   <i type="int" name="NKREDY">     1</i>
   <i type="int" name="NKREDZ">     1</i>
   <i type="logical" name="SHIFTRED"> F  </i>
   <i type="logical" name="ODDONLY"> F  </i>
   <i type="logical" name="EVENONLY"> F  </i>
   <i type="int" name="LMAXFOCK">     0</i>
   <i type="int" name="NMAXFOCKAE">     0</i>
   <i type="logical" name="LFOCKAEDFT"> F  </i>
   <i name="HFSCREEN">      0.00000000</i>
   <i name="HFSCREENC">      0.00000000</i>
   <i type="int" name="NBANDSGWLOW">     0</i>
  </separator>
  <separator name="vdW DFT" >
   <i type="logical" name="LUSE_VDW"> F  </i>
   <i type="int" name="IVDW_NL">    -1</i>
   <i type="logical" name="LSPIN_VDW"> F  </i>
   <i name="ZAB_VDW">     -0.84910000</i>
   <i name="GAMMA_VDW">      1.39626340</i>
   <i name="ALPHA_VDW">      0.00000000</i>
   <i name="PARAM1">      0.12340000</i>
   <i name="PARAM2">      1.00000000</i>
   <i name="BPARAM">      6.30000000</i>
   <i name="CPARAM">      0.00930000</i>
  </separator>
  <separator name="model GW" >
   <i type="int" name="MODEL_GW">     0</i>
   <i name="MODEL_EPS0">     20.69023473</i>
   <i name="MODEL_ALPHA">      1.00000000</i>
  </separator>
  <separator name="linear response parameters" >
   <i type="logical" name="LEPSILON"> F  </i>
   <i type="logical" name="LRPA"> F  </i>
   <i type="logical" name="LNABLA"> F  </i>
   <i type="logical" name="LVEL"> F  </i>
   <i name="CSHIFT">      0.10000000</i>
   <i name="OMEGAMAX">     -1.00000000</i>
   <i name="DEG_THRESHOLD">      0.00200000</i>
   <i name="RTIME">     -0.10000000</i>
   <i name="WPLASMAI">      0.00000000</i>
   <v name="DFIELD">      0.00000000      0.00000000      0.00000000</v>
   <v name="WPLASMA">      0.00000000      0.00000000      0.00000000      0.00000000      0.00000000      0.00000000      0.00000000      0.00000000      0.00000000</v>
  </separator>
  <separator name="orbital magnetization" >
   <i type="logical" name="NUCIND"> F  </i>
   <v name="MAGPOS">      0.00000000      0.00000000      0.00000000</v>
   <i type="logical" name="LNICSALL"> T  </i>
   <i type="logical" name="ORBITALMAG"> F  </i>
   <i type="logical" name="LMAGBLOCH"> F  </i>
   <i type="logical" name="LCHIMAG"> F  </i>
   <i type="logical" name="LGAUGE"> T  </i>
   <i type="int" name="MAGATOM">     0</i>
   <v name="MAGDIPOL">      0.00000000      0.00000000      0.00000000</v>
   <v name="AVECCONST">      0.00000000      0.00000000      0.00000000</v>
  </separator>
  <separator name="response functions" >
   <i type="logical" name="LALL_IN_ONE"> F  </i>
   <i type="int" name="IALL_IN_ONE">    -1</i>
   <i type="int" name="NBANDS_WAVE">    -1</i>
   <i type="logical" name="LFINITE_TEMPERATURE"> F  </i>
   <i type="logical" name="LADDER"> F  </i>
   <i type="logical" name="LRPAFORCE"> F  </i>
   <i type="logical" name="LFXC"> F  </i>
   <i type="logical" name="LHARTREE"> T  </i>
   <i type="int" name="IBSE">     2</i>
   <v type="int" name="KPOINT">    -1     0     0     0</v>
   <i type="logical" name="LTCTC"> F  </i>
   <i type="logical" name="LTCTE"> F  </i>
   <i type="logical" name="LTETE"> F  </i>
   <i type="logical" name="LTRIPLET"> F  </i>
   <i type="logical" name="LFXCEPS"> F  </i>
   <i type="logical" name="LFXHEG"> F  </i>
   <i type="int" name="NATURALO">     2</i>
   <i type="logical" name="LHOLEGF"> F  </i>
   <i type="logical" name="L2ORDER"> F  </i>
   <i type="logical" name="LDMP1"> F  </i>
   <i type="logical" name="LMP2LT"> F  </i>
   <i type="logical" name="LSMP2LT"> F  </i>
   <i type="logical" name="LGWLF"> F  </i>
   <i name="ENCUTGW">     -1.60000002</i>
   <i name="ENCUTGWSOFT">     -1.60000002</i>
   <i name="ENCUTLF">     -1.00000000</i>
   <i type="logical" name="ESF_SPLINES"> F  </i>
   <i name="ESF_CONV">      0.01000000</i>
   <i type="int" name="ESF_NINTER">    15</i>
   <i type="int" name="LMAXMP2">    -1</i>
   <i name="SCISSOR">      0.00000000</i>
   <i type="int" name="NOMEGA">     0</i>
   <i type="int" name="NOMEGAR">     0</i>
   <i type="int" name="NBANDSGW">    -1</i>
   <i type="int" name="NBANDSO">    -1</i>
   <i type="int" name="NBANDSV">    -1</i>
   <i type="int" name="NELMGW">     1</i>
   <i type="int" name="NELMHF">     1</i>
   <i type="int" name="DIM">     3</i>
   <i type="int" name="IESPILON">     4</i>
   <i type="int" name="ANTIRES">     0</i>
   <i name="OMEGAMAX">    -30.00000000</i>
   <i name="OMEGAMIN">    -30.00000000</i>
   <i name="OMEGATL">   -200.00000000</i>
   <i type="int" name="OMEGAGRID">     0</i>
   <i name="CSHIFT">     -0.10000000</i>
   <i type="logical" name="LSELFENERGY"> F  </i>
   <i type="logical" name="LSPECTRAL"> F  </i>
   <i type="logical" name="LSPECTRALGW"> F  </i>
   <i type="logical" name="LSINGLES"> F  </i>
   <i type="logical" name="LFERMIGW"> F  </i>
   <i type="logical" name="ODDONLYGW"> F  </i>
   <i type="logical" name="EVENONLYGW"> F  </i>
   <i type="int" name="NKREDLFX">     1</i>
   <i type="int" name="NKREDLFY">     1</i>
   <i type="int" name="NKREDLFZ">     1</i>
   <i type="int" name="MAXMEM">  2800</i>
   <i type="int" name="TELESCOPE">     0</i>
   <i type="int" name="NTAUPAR">    -1</i>
   <i type="int" name="NOMEGAPAR">    -1</i>
   <i name="DAMP_NEWTON">      0.80000001</i>
   <i name="LAMBDA">      1.00000000</i>
  </separator>
  <separator name="External order field" >
   <i name="OFIELD_KAPPA">      0.00000000</i>
   <v name="OFIELD_K">      0.00000000      0.00000000      0.00000000</v>
   <i name="OFIELD_Q6_NEAR">      0.00000000</i>
   <i name="OFIELD_Q6_FAR">      0.00000000</i>
   <i name="OFIELD_A">      0.00000000</i>
  </separator>
  <separator name="optional k-points parameters" >
   <i type="int" name="KPOINTS_OPT_MODE">     1</i>
   <i type="logical" name="LKPOINTS_OPT"> F  </i>
  </separator>
 </parameters>
 <atominfo>
  <atoms>      53 </atoms>
  <types>       2 </types>
  <array name="atoms" >
   <dimension dim="1">ion</dimension>
   <field type="string">element</field>
   <field type="int">atomtype</field>
   <set>
    <rc><c>Cs</c><c>   1</c></rc>
    <rc><c>Cs</c><c>   1</c></rc>
    <rc><c>Cs</c><c>   1</c></rc>
    <rc><c>Cs</c><c>   1</c></rc>
    <rc><c>Cs</c><c>   1</c></rc>
    <rc><c>Cs</c><c>   1</c></rc>
    <rc><c>Cs</c><c>   1</c></rc>
    <rc><c>Cs</c><c>   1</c></rc>
    <rc><c>Cs</c><c>   1</c></rc>
    <rc><c>Cs</c><c>   1</c></rc>
    <rc><c>Cs</c><c>   1</c></rc>
    <rc><c>Cs</c><c>   1</c></rc>
    <rc><c>Cs</c><c>   1</c></rc>
    <rc><c>Cs</c><c>   1</c></rc>
    <rc><c>Cs</c><c>   1</c></rc>
    <rc><c>Cs</c><c>   1</c></rc>
    <rc><c>Cs</c><c>   1</c></rc>
    <rc><c>Cs</c><c>   1</c></rc>
    <rc><c>Cs</c><c>   1</c></rc>
    <rc><c>Cs</c><c>   1</c></rc>
    <rc><c>Cs</c><c>   1</c></rc>
    <rc><c>Cs</c><c>   1</c></rc>
    <rc><c>Cs</c><c>   1</c></rc>
    <rc><c>Cs</c><c>   1</c></rc>
    <rc><c>Cs</c><c>   1</c></rc>
    <rc><c>Cs</c><c>   1</c></rc>
    <rc><c>Cl</c><c>   2</c></rc>
    <rc><c>Cl</c><c>   2</c></rc>
    <rc><c>Cl</c><c>   2</c></rc>
    <rc><c>Cl</c><c>   2</c></rc>
    <rc><c>Cl</c><c>   2</c></rc>
    <rc><c>Cl</c><c>   2</c></rc>
    <rc><c>Cl</c><c>   2</c></rc>
    <rc><c>Cl</c><c>   2</c></rc>
    <rc><c>Cl</c><c>   2</c></rc>
    <rc><c>Cl</c><c>   2</c></rc>
    <rc><c>Cl</c><c>   2</c></rc>
    <rc><c>Cl</c><c>   2</c></rc>
    <rc><c>Cl</c><c>   2</c></rc>
    <rc><c>Cl</c><c>   2</c></rc>
    <rc><c>Cl</c><c>   2</c></rc>
    <rc><c>Cl</c><c>   2</c></rc>
    <rc><c>Cl</c><c>   2</c></rc>
    <rc><c>Cl</c><c>   2</c></rc>
    <rc><c>Cl</c><c>   2</c></rc>
    <rc><c>Cl</c><c>   2</c></rc>
    <rc><c>Cl</c><c>   2</c></rc>
    <rc><c>Cl</c><c>   2</c></rc>
    <rc><c>Cl</c><c>   2</c></rc>
    <rc><c>Cl</c><c>   2</c></rc>
    <rc><c>Cl</c><c>   2</c></rc>
    <rc><c>Cl</c><c>   2</c></rc>
    <rc><c>Cl</c><c>   2</c></rc>
   </set>
  </array>
  <array name="atomtypes" >
   <dimension dim="1">type</dimension>
   <field type="int">atomspertype</field>
   <field type="string">element</field>
   <field>mass</field>
   <field>valence</field>
   <field type="string">pseudopotential</field>
   <set>
    <rc><c>  26</c><c>Cs</c><c>    132.90000000</c><c>      9.00000000</c><c>  PAW_PBE Cs_sv 08Apr2002               </c></rc>
    <rc><c>  27</c><c>Cl</c><c>     35.45300000</c><c>      7.00000000</c><c>  PAW_PBE Cl 06Sep2000                  </c></rc>
   </set>
  </array>
 </atominfo>
 <structure name="initialpos" >
  <crystal>
   <varray name="basis" >
    <v>      12.22634592       0.00000000       0.00000000 </v>
    <v>       0.00000000      12.22634592       0.00000000 </v>
    <v>       0.00000000       0.00000000      12.22634592 </v>
   </varray>
   <i name="volume">   1827.63740156 </i>
   <varray name="rec_basis" >
    <v>       0.08179059       0.00000000       0.00000000 </v>
    <v>       0.00000000       0.08179059       0.00000000 </v>
    <v>       0.00000000       0.00000000       0.08179059 </v>
   </varray>
  </crystal>
  <varray name="positions" >
   <v>       0.99546965       0.99671109       0.33583178 </v>
   <v>       0.99874813       0.99910992       0.66531317 </v>
   <v>       0.99815692       0.33796259       0.00067203 </v>
   <v>       0.00000000       0.33333333       0.33333333 </v>
   <v>       0.00000000       0.33333333       0.66666667 </v>
   <v>       0.99067472       0.65588139       0.99921596 </v>
   <v>       0.00000000       0.66666667       0.33333333 </v>
   <v>       0.00000000       0.66666667       0.66666667 </v>
   <v>       0.34378612       0.00109218       0.00143563 </v>
   <v>       0.33333333       0.00000000       0.33333333 </v>
   <v>       0.33333333       0.00000000       0.66666667 </v>
   <v>       0.33333333       0.33333333       0.00000000 </v>
   <v>       0.33333333       0.33333333       0.33333333 </v>
   <v>       0.33333333       0.33333333       0.66666667 </v>
   <v>       0.33333333       0.66666667       0.00000000 </v>
   <v>       0.33333333       0.66666667       0.33333333 </v>
   <v>       0.33333333       0.66666667       0.66666667 </v>
   <v>       0.67830882       0.99966398       0.99803272 </v>
   <v>       0.66666667       0.00000000       0.33333333 </v>
   <v>       0.66666667       0.00000000       0.66666667 </v>
   <v>       0.66666667       0.33333333       0.00000000 </v>
   <v>       0.66666667       0.33333333       0.33333333 </v>
   <v>       0.66666667       0.33333333       0.66666667 </v>
   <v>       0.66666667       0.66666667       0.00000000 </v>
   <v>       0.66666667       0.66666667       0.33333333 </v>
   <v>       0.66666667       0.66666667       0.66666667 </v>
   <v>       0.16667459       0.16610873       0.16931116 </v>
   <v>       0.16666667       0.16666667       0.50000000 </v>
   <v>       0.16490133       0.17191576       0.83355027 </v>
   <v>       0.16666667       0.50000000       0.16666667 </v>
   <v>       0.16666667       0.50000000       0.50000000 </v>
   <v>       0.16666667       0.50000000       0.83333333 </v>
   <v>       0.17027481       0.83391222       0.16379639 </v>
   <v>       0.16666667       0.83333333       0.50000000 </v>
   <v>       0.17146645       0.83009584       0.83151707 </v>
   <v>       0.50000000       0.16666667       0.16666667 </v>
   <v>       0.50000000       0.16666667       0.50000000 </v>
   <v>       0.50000000       0.16666667       0.83333333 </v>
   <v>       0.50000000       0.50000000       0.16666667 </v>
   <v>       0.50000000       0.50000000       0.50000000 </v>
   <v>       0.50000000       0.50000000       0.83333333 </v>
   <v>       0.50000000       0.83333333       0.16666667 </v>
   <v>       0.50000000       0.83333333       0.50000000 </v>
   <v>       0.50000000       0.83333333       0.83333333 </v>
   <v>       0.82542005       0.15925158       0.16270216 </v>
   <v>       0.83333333       0.16666667       0.50000000 </v>
   <v>       0.83075384       0.16619309       0.83451521 </v>
   <v>       0.83333333       0.50000000       0.16666667 </v>
   <v>       0.83333333       0.50000000       0.50000000 </v>
   <v>       0.83333333       0.50000000       0.83333333 </v>
   <v>       0.82927230       0.82841797       0.16215346 </v>
   <v>       0.83333333       0.83333333       0.50000000 </v>
   <v>       0.82555942       0.84084246       0.84539751 </v>
  </varray>
 </structure>
 <calculation>
  <scstep>
   <time name="dav">    0.58    0.58</time>
   <time name="total">    3.35    3.39</time>
   <energy>
    <i name="alphaZ">   1390.48224925 </i>
    <i name="ewald"> -21532.55444335 </i>
    <i name="hartreedc">  -3628.34317722 </i>
    <i name="XCdc">    840.77292165 </i>
    <i name="pawpsdc">  19806.45903776 </i>
    <i name="pawaedc"> -19618.38849467 </i>
    <i name="eentropy">     -0.06752121 </i>
    <i name="bandstr">   -402.47225569 </i>
    <i name="atom">  25482.99243790 </i>
    <i name="e_fr_energy">   2338.88075443 </i>
    <i name="e_wo_entrp">   2338.94827564 </i>
    <i name="e_0_energy">   2338.91451504 </i>
   </energy>
  </scstep>
  <scstep>
   <time name="dav">    0.54    0.55</time>
   <time name="total">    0.54    0.55</time>
   <energy>
    <i name="e_fr_energy">     33.49162249 </i>
    <i name="e_wo_entrp">     33.49162249 </i>
    <i name="e_0_energy">     33.49162249 </i>
   </energy>
  </scstep>
  <scstep>
   <time name="dav">    0.53    0.54</time>
   <time name="total">    0.54    0.54</time>
   <energy>
    <i name="e_fr_energy">   -175.37454470 </i>
    <i name="e_wo_entrp">   -175.37454470 </i>
    <i name="e_0_energy">   -175.37454470 </i>
   </energy>
  </scstep>
  <scstep>
   <time name="dav">    0.53    0.53</time>
   <time name="total">    0.53    0.53</time>
   <energy>
    <i name="e_fr_energy">   -178.80287846 </i>
    <i name="e_wo_entrp">   -178.80287846 </i>
    <i name="e_0_energy">   -178.80287846 </i>
   </energy>
  </scstep>
  <scstep>
   <time name="dav">    0.52    0.52</time>
   <time name="total">    0.59    0.59</time>
   <energy>
    <i name="e_fr_energy">   -178.87890480 </i>
    <i name="e_wo_entrp">   -178.87890480 </i>
    <i name="e_0_energy">   -178.87890480 </i>
   </energy>
  </scstep>
  <scstep>
   <time name="dav">    0.50    0.51</time>
   <time name="total">    2.71    2.72</time>
   <energy>
    <i name="e_fr_energy">   -171.33676574 </i>
    <i name="e_wo_entrp">   -171.33676574 </i>
    <i name="e_0_energy">   -171.33676574 </i>
   </energy>
  </scstep>
  <scstep>
   <time name="dav">    0.53    0.53</time>
   <time name="total">    2.63    2.63</time>
   <energy>
    <i name="e_fr_energy">   -174.44531392 </i>
    <i name="e_wo_entrp">   -174.44531392 </i>
    <i name="e_0_energy">   -174.44531392 </i>
   </energy>
  </scstep>
  <scstep>
   <time name="dav">    0.52    0.52</time>
   <time name="total">    2.61    2.61</time>
   <energy>
    <i name="e_fr_energy">   -177.18447679 </i>
    <i name="e_wo_entrp">   -177.18447679 </i>
    <i name="e_0_energy">   -177.18447679 </i>
   </energy>
  </scstep>
  <scstep>
   <time name="dav">    0.52    0.52</time>
   <time name="total">    2.56    2.57</time>
   <energy>
    <i name="e_fr_energy">   -178.64460285 </i>
    <i name="e_wo_entrp">   -178.64460285 </i>
    <i name="e_0_energy">   -178.64460285 </i>
   </energy>
  </scstep>
  <scstep>
   <time name="dav">    0.52    0.52</time>
   <time name="total">    2.56    2.57</time>
   <energy>
    <i name="e_fr_energy">   -178.74427464 </i>
    <i name="e_wo_entrp">   -178.74427464 </i>
    <i name="e_0_energy">   -178.74427464 </i>
   </energy>
  </scstep>
  <scstep>
   <time name="dav">    0.51    0.51</time>
   <time name="total">    2.52    2.53</time>
   <energy>
    <i name="e_fr_energy">   -178.77647506 </i>
    <i name="e_wo_entrp">   -178.77647506 </i>
    <i name="e_0_energy">   -178.77647506 </i>
   </energy>
  </scstep>
  <scstep>
   <time name="dav">    0.53    0.53</time>
   <time name="total">    2.55    2.56</time>
   <energy>
    <i name="e_fr_energy">   -178.78774661 </i>
    <i name="e_wo_entrp">   -178.78774661 </i>
    <i name="e_0_energy">   -178.78774661 </i>
   </energy>
  </scstep>
  <scstep>
   <time name="dav">    0.55    0.55</time>
   <time name="total">    2.57    2.58</time>
   <energy>
    <i name="e_fr_energy">   -178.78804351 </i>
    <i name="e_wo_entrp">   -178.78804351 </i>
    <i name="e_0_energy">   -178.78804351 </i>
   </energy>
  </scstep>
  <scstep>
   <time name="dav">    0.48    0.48</time>
   <time name="total">    2.44    2.44</time>
   <energy>
    <i name="alphaZ">   1390.48224925 </i>
    <i name="ewald"> -21532.55444335 </i>
    <i name="hartreedc">  -3753.73510240 </i>
    <i name="XCdc">    852.56374918 </i>
    <i name="pawpsdc">  24282.99842993 </i>
    <i name="pawaedc"> -24102.64220106 </i>
    <i name="eentropy">     -0.00000000 </i>
    <i name="bandstr">  -2798.89316731 </i>
    <i name="atom">  25482.99243790 </i>
    <i name="e_fr_energy">   -178.78804785 </i>
    <i name="e_wo_entrp">   -178.78804785 </i>
    <i name="e_0_energy">   -178.78804785 </i>
   </energy>
  </scstep>
  <structure>
   <crystal>
    <varray name="basis" >
     <v>      12.22634592       0.00000000       0.00000000 </v>
     <v>       0.00000000      12.22634592       0.00000000 </v>
     <v>       0.00000000       0.00000000      12.22634592 </v>
    </varray>
    <i name="volume">   1827.63740156 </i>
    <varray name="rec_basis" >
     <v>       0.08179059       0.00000000       0.00000000 </v>
     <v>       0.00000000       0.08179059       0.00000000 </v>
     <v>       0.00000000       0.00000000       0.08179059 </v>
    </varray>
   </crystal>
   <varray name="positions" >
    <v>       0.99546965       0.99671109       0.33583178 </v>
    <v>       0.99874813       0.99910992       0.66531317 </v>
    <v>       0.99815692       0.33796259       0.00067203 </v>
    <v>       0.00000000       0.33333333       0.33333333 </v>
    <v>       0.00000000       0.33333333       0.66666667 </v>
    <v>       0.99067472       0.65588139       0.99921596 </v>
    <v>       0.00000000       0.66666667       0.33333333 </v>
    <v>       0.00000000       0.66666667       0.66666667 </v>
    <v>       0.34378612       0.00109218       0.00143563 </v>
    <v>       0.33333333       0.00000000       0.33333333 </v>
    <v>       0.33333333       0.00000000       0.66666667 </v>
    <v>       0.33333333       0.33333333       0.00000000 </v>
    <v>       0.33333333       0.33333333       0.33333333 </v>
    <v>       0.33333333       0.33333333       0.66666667 </v>
    <v>       0.33333333       0.66666667       0.00000000 </v>
    <v>       0.33333333       0.66666667       0.33333333 </v>
    <v>       0.33333333       0.66666667       0.66666667 </v>
    <v>       0.67830882       0.99966398       0.99803272 </v>
    <v>       0.66666667       0.00000000       0.33333333 </v>
    <v>       0.66666667       0.00000000       0.66666667 </v>
    <v>       0.66666667       0.33333333       0.00000000 </v>
    <v>       0.66666667       0.33333333       0.33333333 </v>
    <v>       0.66666667       0.33333333       0.66666667 </v>
    <v>       0.66666667       0.66666667       0.00000000 </v>
    <v>       0.66666667       0.66666667       0.33333333 </v>
    <v>       0.66666667       0.66666667       0.66666667 </v>
    <v>       0.16667459       0.16610873       0.16931116 </v>
    <v>       0.16666667       0.16666667       0.50000000 </v>
    <v>       0.16490133       0.17191576       0.83355027 </v>
    <v>       0.16666667       0.50000000       0.16666667 </v>
    <v>       0.16666667       0.50000000       0.50000000 </v>
    <v>       0.16666667       0.50000000       0.83333333 </v>
    <v>       0.17027481       0.83391222       0.16379639 </v>
    <v>       0.16666667       0.83333333       0.50000000 </v>
    <v>       0.17146645       0.83009584       0.83151707 </v>
    <v>       0.50000000       0.16666667       0.16666667 </v>
    <v>       0.50000000       0.16666667       0.50000000 </v>
    <v>       0.50000000       0.16666667       0.83333333 </v>
    <v>       0.50000000       0.50000000       0.16666667 </v>
    <v>       0.50000000       0.50000000       0.50000000 </v>
    <v>       0.50000000       0.50000000       0.83333333 </v>
    <v>       0.50000000       0.83333333       0.16666667 </v>
    <v>       0.50000000       0.83333333       0.50000000 </v>
    <v>       0.50000000       0.83333333       0.83333333 </v>
    <v>       0.82542005       0.15925158       0.16270216 </v>
    <v>       0.83333333       0.16666667       0.50000000 </v>
    <v>       0.83075384       0.16619309       0.83451521 </v>
    <v>       0.83333333       0.50000000       0.16666667 </v>
    <v>       0.83333333       0.50000000       0.50000000 </v>
    <v>       0.83333333       0.50000000       0.83333333 </v>
    <v>       0.82927230       0.82841797       0.16215346 </v>
    <v>       0.83333333       0.83333333       0.50000000 </v>
    <v>       0.82555942       0.84084246       0.84539751 </v>
   </varray>
  </structure>
  <varray name="forces" >
   <v>       0.11254530       0.06650200      -0.48155793 </v>
   <v>       0.04955095       0.03305521       0.45731713 </v>
   <v>       0.07212598      -0.51457891      -0.01486114 </v>
   <v>       0.01464490      -0.12383870      -0.08864359 </v>
   <v>       0.01166221      -0.10087969       0.09158617 </v>
   <v>       0.19775491       0.57349408       0.02273600 </v>
   <v>       0.03144575       0.09203387      -0.11855619 </v>
   <v>       0.03137100       0.09610089       0.10517070 </v>
   <v>      -0.44726704      -0.03539680      -0.03066096 </v>
   <v>      -0.10324301      -0.00322157      -0.10408929 </v>
   <v>      -0.09079633       0.00280765       0.11240728 </v>
   <v>      -0.09426592      -0.09461962       0.00659750 </v>
   <v>      -0.04301108      -0.06139525      -0.05534989 </v>
   <v>      -0.04652674      -0.05028860       0.05608543 </v>
   <v>      -0.10879873       0.10952015      -0.00074970 </v>
   <v>      -0.04128180       0.06435984      -0.06925991 </v>
   <v>      -0.03056125       0.04702392       0.05806719 </v>
   <v>       0.09732473       0.04289311       0.09198988 </v>
   <v>       0.01360503      -0.01638566      -0.11819376 </v>
   <v>       0.03401559       0.00837330       0.10804092 </v>
   <v>       0.02594547      -0.11422975       0.00094029 </v>
   <v>       0.01809499      -0.06509897      -0.05794054 </v>
   <v>       0.02302254      -0.06042916       0.05324825 </v>
   <v>      -0.03408817       0.09441789       0.00755678 </v>
   <v>       0.01091568       0.05045821      -0.06209572 </v>
   <v>       0.00961459       0.06466760       0.07126921 </v>
   <v>       0.12504584       0.20082397       0.14926121 </v>
   <v>       0.00508503       0.03085037       0.01019475 </v>
   <v>       0.17016094       0.09350450      -0.17444109 </v>
   <v>       0.00710690      -0.00596077       0.05398330 </v>
   <v>      -0.00932457       0.00599632      -0.00131525 </v>
   <v>       0.00573962       0.00301484      -0.05007443 </v>
   <v>       0.08212929      -0.19901383       0.23058857 </v>
   <v>       0.00541572      -0.05050111      -0.00941095 </v>
   <v>       0.05488032      -0.12680343      -0.18167581 </v>
   <v>       0.00143979       0.07759339       0.07439446 </v>
   <v>       0.01339220       0.03081851       0.00206542 </v>
   <v>       0.01185523       0.06738624      -0.07020331 </v>
   <v>       0.01126094      -0.01048040       0.04249453 </v>
   <v>       0.01877649      -0.00096554       0.00183727 </v>
   <v>       0.01543968      -0.01063099      -0.04164823 </v>
   <v>       0.03313054      -0.06036664       0.07242190 </v>
   <v>       0.01287196      -0.03277902       0.00822336 </v>
   <v>       0.01656776      -0.05905046      -0.07667586 </v>
   <v>       0.02457913       0.32978851       0.28833316 </v>
   <v>      -0.03694448       0.04326372      -0.00841055 </v>
   <v>      -0.09005066       0.24233968      -0.24017455 </v>
   <v>      -0.06824869      -0.07061048       0.09067366 </v>
   <v>      -0.01520460       0.01069762       0.00191304 </v>
   <v>      -0.07358092      -0.00529096      -0.09415435 </v>
   <v>      -0.06116661      -0.15684340       0.32034524 </v>
   <v>      -0.04442214      -0.07018904       0.03676888 </v>
   <v>       0.07026577      -0.38193663      -0.47636849 </v>
  </varray>
  <varray name="stress" >
   <v>      -3.67623771      -0.00818536      -0.11232003 </v>
   <v>      -0.00818601      -3.73606166       0.09626221 </v>
   <v>      -0.11231974       0.09626254      -3.99194643 </v>
  </varray>
  <energy>
   <i name="e_fr_energy">   -178.78804785 </i>
   <i name="e_wo_entrp">   -178.78804785 </i>
   <i name="e_0_energy">   -178.78804785 </i>
  </energy>
  <time name="totalsc">   33.52   33.64</time>
 </calculation>
 <calculation>
  <scstep>
   <time name="dav">    0.47    0.47</time>
   <time name="total">    2.48    2.50</time>
   <energy>
    <i name="alphaZ">   1390.48224925 </i>
    <i name="ewald"> -21535.40636979 </i>
    <i name="hartreedc">  -3751.20065821 </i>
    <i name="XCdc">    852.52450254 </i>
    <i name="pawpsdc">  24282.92541926 </i>
    <i name="pawaedc"> -24102.56118746 </i>
    <i name="eentropy">     -0.00000000 </i>
    <i name="bandstr">  -2798.63632114 </i>
    <i name="atom">  25482.99243790 </i>
    <i name="e_fr_energy">   -178.87992765 </i>
    <i name="e_wo_entrp">   -178.87992765 </i>
    <i name="e_0_energy">   -178.87992765 </i>
   </energy>
  </scstep>
  <scstep>
   <time name="dav">    0.50    0.51</time>
   <time name="total">    2.55    2.55</time>
   <energy>
    <i name="e_fr_energy">   -178.91800172 </i>
    <i name="e_wo_entrp">   -178.91800172 </i>
    <i name="e_0_energy">   -178.91800172 </i>
   </energy>
  </scstep>
  <scstep>
   <time name="dav">    0.53    0.53</time>
   <time name="total">    2.57    2.58</time>
   <energy>
    <i name="e_fr_energy">   -178.91622292 </i>
    <i name="e_wo_entrp">   -178.91622292 </i>
    <i name="e_0_energy">   -178.91622292 </i>
   </energy>
  </scstep>
  <scstep>
   <time name="dav">    0.53    0.53</time>
   <time name="total">    2.57    2.58</time>
   <energy>
    <i name="e_fr_energy">   -178.91471807 </i>
    <i name="e_wo_entrp">   -178.91471807 </i>
    <i name="e_0_energy">   -178.91471807 </i>
   </energy>
  </scstep>
  <scstep>
   <time name="dav">    0.54    0.54</time>
   <time name="total">    2.58    2.59</time>
   <energy>
    <i name="e_fr_energy">   -178.91476208 </i>
    <i name="e_wo_entrp">   -178.91476208 </i>
    <i name="e_0_energy">   -178.91476208 </i>
   </energy>
  </scstep>
  <scstep>
   <time name="dav">    0.48    0.48</time>
   <time name="total">    2.53    2.53</time>
   <energy>
    <i name="e_fr_energy">   -178.91468558 </i>
    <i name="e_wo_entrp">   -178.91468558 </i>
    <i name="e_0_energy">   -178.91468558 </i>
   </energy>
  </scstep>
  <scstep>
   <time name="dav">    0.53    0.53</time>
   <time name="total">    2.54    2.55</time>
   <energy>
    <i name="e_fr_energy">   -178.91464617 </i>
    <i name="e_wo_entrp">   -178.91464617 </i>
    <i name="e_0_energy">   -178.91464617 </i>
   </energy>
  </scstep>
  <scstep>
   <time name="dav">    0.49    0.49</time>
   <time name="total">    2.45    2.46</time>
   <energy>
    <i name="alphaZ">   1390.48224925 </i>
    <i name="ewald"> -21535.40636979 </i>
    <i name="hartreedc">  -3751.91244877 </i>
    <i name="XCdc">    852.54165829 </i>
    <i name="pawpsdc">  24279.89650982 </i>
    <i name="pawaedc"> -24099.52979559 </i>
    <i name="eentropy">     -0.00000000 </i>
    <i name="bandstr">  -2797.97889379 </i>
    <i name="atom">  25482.99243790 </i>
    <i name="e_fr_energy">   -178.91465269 </i>
    <i name="e_wo_entrp">   -178.91465269 </i>
    <i name="e_0_energy">   -178.91465269 </i>
   </energy>
  </scstep>
  <structure>
   <crystal>
    <varray name="basis" >
     <v>      12.22634592       0.00000000       0.00000000 </v>
     <v>       0.00000000      12.22634592       0.00000000 </v>
     <v>       0.00000000       0.00000000      12.22634592 </v>
    </varray>
    <i name="volume">   1827.63740156 </i>
    <varray name="rec_basis" >
     <v>       0.08179059       0.00000000       0.00000000 </v>
     <v>       0.00000000       0.08179059       0.00000000 </v>
     <v>       0.00000000       0.00000000       0.08179059 </v>
    </varray>
   </crystal>
   <varray name="positions" >
    <v>       0.99591373       0.99697349       0.33393165 </v>
    <v>       0.99894364       0.99924035       0.66711765 </v>
    <v>       0.99844151       0.33593216       0.00061339 </v>
    <v>       0.00005779       0.33284469       0.33298356 </v>
    <v>       0.00004602       0.33293528       0.66702805 </v>
    <v>       0.99145502       0.65814428       0.99930567 </v>
    <v>       0.00012408       0.66702981       0.33286553 </v>
    <v>       0.00012378       0.66704586       0.66708165 </v>
    <v>       0.34202129       0.00095251       0.00131465 </v>
    <v>       0.33292596       0.99998729       0.33292262 </v>
    <v>       0.33297507       0.00001108       0.66711020 </v>
    <v>       0.33296138       0.33295998       0.00002603 </v>
    <v>       0.33316362       0.33309108       0.33311493 </v>
    <v>       0.33314975       0.33313490       0.66688797 </v>
    <v>       0.33290404       0.66709881       0.99999704 </v>
    <v>       0.33317044       0.66692062       0.33306005 </v>
    <v>       0.33321274       0.66685221       0.66689579 </v>
    <v>       0.67869284       0.99983323       0.99839569 </v>
    <v>       0.66672035       0.99993535       0.33286696 </v>
    <v>       0.66680089       0.00003304       0.66709297 </v>
    <v>       0.66676904       0.33288261       0.00000371 </v>
    <v>       0.66673807       0.33307647       0.33310471 </v>
    <v>       0.66675751       0.33309489       0.66687677 </v>
    <v>       0.66653216       0.66703922       0.00002982 </v>
    <v>       0.66670974       0.66686576       0.33308832 </v>
    <v>       0.66670460       0.66692183       0.66694788 </v>
    <v>       0.16716799       0.16690114       0.16990011 </v>
    <v>       0.16668673       0.16678840       0.50004023 </v>
    <v>       0.16557275       0.17228471       0.83286196 </v>
    <v>       0.16669471       0.49997648       0.16687967 </v>
    <v>       0.16662987       0.50002366       0.49999481 </v>
    <v>       0.16668931       0.50001190       0.83313575 </v>
    <v>       0.17059888       0.83312695       0.16470625 </v>
    <v>       0.16668804       0.83313407       0.49996287 </v>
    <v>       0.17168300       0.82959550       0.83080021 </v>
    <v>       0.50000568       0.16697283       0.16696021 </v>
    <v>       0.50005284       0.16678827       0.50000815 </v>
    <v>       0.50004678       0.16693256       0.83305633 </v>
    <v>       0.50004443       0.49995865       0.16683434 </v>
    <v>       0.50007409       0.49999619       0.50000725 </v>
    <v>       0.50006092       0.49995805       0.83316900 </v>
    <v>       0.50013073       0.83309514       0.16695243 </v>
    <v>       0.50005079       0.83320399       0.50003245 </v>
    <v>       0.50006537       0.83310033       0.83303079 </v>
    <v>       0.82551703       0.16055286       0.16383986 </v>
    <v>       0.83318756       0.16683738       0.49996681 </v>
    <v>       0.83039852       0.16714931       0.83356753 </v>
    <v>       0.83306404       0.49972139       0.16702445 </v>
    <v>       0.83327334       0.50004221       0.50000755 </v>
    <v>       0.83304300       0.49997912       0.83296182 </v>
    <v>       0.82903095       0.82779910       0.16341747 </v>
    <v>       0.83315805       0.83305638       0.50014508 </v>
    <v>       0.82583667       0.83933541       0.84351786 </v>
   </varray>
  </structure>
  <varray name="forces" >
   <v>       0.09217116       0.05745459      -0.41190470 </v>
   <v>       0.04145265       0.02844490       0.39315345 </v>
   <v>       0.04994516      -0.46836143      -0.00963698 </v>
   <v>       0.00615576      -0.09470840      -0.06401218 </v>
   <v>       0.00554182      -0.07263652       0.06470355 </v>
   <v>       0.16651013       0.49145230       0.01900007 </v>
   <v>       0.02310366       0.06732643      -0.08786313 </v>
   <v>       0.01939790       0.07396539       0.07944797 </v>
   <v>      -0.40047459      -0.02902968      -0.02922930 </v>
   <v>      -0.08141788      -0.00220519      -0.07448438 </v>
   <v>      -0.07078113       0.00361154       0.08293533 </v>
   <v>      -0.07369022      -0.06796284       0.00571901 </v>
   <v>      -0.03038885      -0.04158397      -0.03562126 </v>
   <v>      -0.03305229      -0.03180023       0.03707431 </v>
   <v>      -0.08624380       0.08036986      -0.00162479 </v>
   <v>      -0.02903333       0.04520187      -0.04776434 </v>
   <v>      -0.01854585       0.02957165       0.03660194 </v>
   <v>       0.10162842       0.02861094       0.07432794 </v>
   <v>       0.00839605      -0.01537226      -0.08457634 </v>
   <v>       0.02599571       0.00728128       0.07879853 </v>
   <v>       0.01839767      -0.08244962       0.00007799 </v>
   <v>       0.01340171      -0.04536811      -0.03826830 </v>
   <v>       0.01629433      -0.03988015       0.03368426 </v>
   <v>      -0.03229164       0.06708846       0.00503687 </v>
   <v>       0.00631890       0.03146060      -0.03916734 </v>
   <v>       0.00905810       0.04725249       0.05112720 </v>
   <v>       0.11527535       0.17269688       0.12256975 </v>
   <v>       0.00232085       0.02044997       0.00958478 </v>
   <v>       0.15639277       0.07140471      -0.15050875 </v>
   <v>       0.00301331      -0.00565557       0.03921501 </v>
   <v>      -0.00975679       0.00515926      -0.00175442 </v>
   <v>       0.00176875       0.00258552      -0.03550365 </v>
   <v>       0.07025782      -0.17330925       0.20091394 </v>
   <v>       0.00167260      -0.03583898      -0.00963122 </v>
   <v>       0.04608518      -0.10421738      -0.14942506 </v>
   <v>      -0.00302046       0.05800757       0.05475401 </v>
   <v>       0.00830512       0.02016149       0.00137658 </v>
   <v>       0.00675586       0.05009686      -0.05114963 </v>
   <v>       0.00553304      -0.00860373       0.02976468 </v>
   <v>       0.01354002      -0.00063349       0.00112286 </v>
   <v>       0.00923859      -0.00908803      -0.02871725 </v>
   <v>       0.02506061      -0.04268576       0.05345588 </v>
   <v>       0.00771030      -0.02091227       0.00668237 </v>
   <v>       0.01209310      -0.04173486      -0.05672469 </v>
   <v>       0.02709272       0.29098327       0.25053790 </v>
   <v>      -0.02734174       0.02887849      -0.00868575 </v>
   <v>      -0.07900756       0.20804935      -0.20596235 </v>
   <v>      -0.05013610      -0.06132626       0.06426315 </v>
   <v>      -0.00900674       0.00940951       0.00110461 </v>
   <v>      -0.05463620       0.00005758      -0.06675906 </v>
   <v>      -0.05362089      -0.12359145       0.28245933 </v>
   <v>      -0.03179094      -0.04967224       0.03197082 </v>
   <v>       0.05835189      -0.32840507      -0.42248925 </v>
  </varray>
  <varray name="stress" >
   <v>      -3.69483164      -0.01089307      -0.09319889 </v>
   <v>      -0.01089246      -3.72810812       0.06968437 </v>
   <v>      -0.09319851       0.06968475      -3.94735910 </v>
  </varray>
  <energy>
   <i name="e_fr_energy">   -178.91465269 </i>
   <i name="e_wo_entrp">   -178.91465269 </i>
   <i name="e_0_energy">   -178.91465269 </i>
  </energy>
  <time name="totalsc">   25.10   25.20</time>
 </calculation>
 <calculation>
  <scstep>
   <time name="dav">    0.47    0.47</time>
   <time name="total">    2.48    2.49</time>
   <energy>
    <i name="alphaZ">   1390.48224925 </i>
    <i name="ewald"> -21539.22281970 </i>
    <i name="hartreedc">  -3748.69738240 </i>
    <i name="XCdc">    852.59287229 </i>
    <i name="pawpsdc">  24280.21438000 </i>
    <i name="pawaedc"> -24099.84717721 </i>
    <i name="eentropy">     -0.00000000 </i>
    <i name="bandstr">  -2797.36670332 </i>
    <i name="atom">  25482.99243790 </i>
    <i name="e_fr_energy">   -178.85214318 </i>
    <i name="e_wo_entrp">   -178.85214318 </i>
    <i name="e_0_energy">   -178.85214318 </i>
   </energy>
  </scstep>
  <scstep>
   <time name="dav">    0.51    0.51</time>
   <time name="total">    2.55    2.56</time>
   <energy>
    <i name="e_fr_energy">   -179.20236967 </i>
    <i name="e_wo_entrp">   -179.20236967 </i>
    <i name="e_0_energy">   -179.20236967 </i>
   </energy>
  </scstep>
  <scstep>
   <time name="dav">    0.54    0.54</time>
   <time name="total">    2.59    2.59</time>
   <energy>
    <i name="e_fr_energy">   -179.18635475 </i>
    <i name="e_wo_entrp">   -179.18635475 </i>
    <i name="e_0_energy">   -179.18635475 </i>
   </energy>
  </scstep>
  <scstep>
   <time name="dav">    0.53    0.53</time>
   <time name="total">    2.58    2.58</time>
   <energy>
    <i name="e_fr_energy">   -179.17303893 </i>
    <i name="e_wo_entrp">   -179.17303893 </i>
    <i name="e_0_energy">   -179.17303893 </i>
   </energy>
  </scstep>
  <scstep>
   <time name="dav">    0.54    0.54</time>
   <time name="total">    2.59    2.60</time>
   <energy>
    <i name="e_fr_energy">   -179.17271651 </i>
    <i name="e_wo_entrp">   -179.17271651 </i>
    <i name="e_0_energy">   -179.17271651 </i>
   </energy>
  </scstep>
  <scstep>
   <time name="dav">    0.55    0.55</time>
   <time name="total">    2.60    2.60</time>
   <energy>
    <i name="e_fr_energy">   -179.17202197 </i>
    <i name="e_wo_entrp">   -179.17202197 </i>
    <i name="e_0_energy">   -179.17202197 </i>
   </energy>
  </scstep>
  <scstep>
   <time name="dav">    0.57    0.57</time>
   <time name="total">    2.58    2.59</time>
   <energy>
    <i name="e_fr_energy">   -179.17167063 </i>
    <i name="e_wo_entrp">   -179.17167063 </i>
    <i name="e_0_energy">   -179.17167063 </i>
   </energy>
  </scstep>
  <scstep>
   <time name="dav">    0.52    0.52</time>
   <time name="total">    2.53    2.53</time>
   <energy>
    <i name="e_fr_energy">   -179.17178887 </i>
    <i name="e_wo_entrp">   -179.17178887 </i>
    <i name="e_0_energy">   -179.17178887 </i>
   </energy>
  </scstep>
  <scstep>
   <time name="dav">    0.51    0.51</time>
   <time name="total">    2.53    2.53</time>
   <energy>
    <i name="e_fr_energy">   -179.17180542 </i>
    <i name="e_wo_entrp">   -179.17180542 </i>
    <i name="e_0_energy">   -179.17180542 </i>
   </energy>
  </scstep>
  <scstep>
   <time name="dav">    0.46    0.46</time>
   <time name="total">    2.41    2.42</time>
   <energy>
    <i name="alphaZ">   1390.48224925 </i>
    <i name="ewald"> -21539.22281970 </i>
    <i name="hartreedc">  -3751.49685167 </i>
    <i name="XCdc">    852.73834218 </i>
    <i name="pawpsdc">  24299.55822940 </i>
    <i name="pawaedc"> -24119.23007343 </i>
    <i name="eentropy">     -0.00000000 </i>
    <i name="bandstr">  -2794.99332195 </i>
    <i name="atom">  25482.99243790 </i>
    <i name="e_fr_energy">   -179.17180801 </i>
    <i name="e_wo_entrp">   -179.17180801 </i>
    <i name="e_0_energy">   -179.17180801 </i>
   </energy>
  </scstep>
  <structure>
   <crystal>
    <varray name="basis" >
     <v>      12.22634592       0.00000000       0.00000000 </v>
     <v>       0.00000000      12.22634592       0.00000000 </v>
     <v>       0.00000000       0.00000000      12.22634592 </v>
    </varray>
    <i name="volume">   1827.63740156 </i>
    <varray name="rec_basis" >
     <v>       0.08179059       0.00000000       0.00000000 </v>
     <v>       0.00000000       0.08179059       0.00000000 </v>
     <v>       0.00000000       0.00000000       0.08179059 </v>
    </varray>
   </crystal>
   <varray name="positions" >
    <v>       0.99724597       0.99776070       0.32823127 </v>
    <v>       0.99953020       0.99963164       0.67253109 </v>
    <v>       0.99929530       0.32984090       0.00043748 </v>
    <v>       0.00023114       0.33137876       0.33193426 </v>
    <v>       0.00018407       0.33174113       0.66811219 </v>
    <v>       0.99379592       0.66493295       0.99957480 </v>
    <v>       0.00049631       0.66811925       0.33146214 </v>
    <v>       0.00049513       0.66818344       0.66832659 </v>
    <v>       0.33672682       0.00053351       0.00095171 </v>
    <v>       0.33170383       0.99994915       0.33169047 </v>
    <v>       0.33190028       0.00004431       0.66844081 </v>
    <v>       0.33184552       0.33183993       0.00010413 </v>
    <v>       0.33265448       0.33236432       0.33245974 </v>
    <v>       0.33259899       0.33253962       0.66755187 </v>
    <v>       0.33161614       0.66839524       0.99998817 </v>
    <v>       0.33268178       0.66768247       0.33224019 </v>
    <v>       0.33285098       0.66740885       0.66758315 </v>
    <v>       0.67984491       0.00034097       0.99948461 </v>
    <v>       0.66688140       0.99974138       0.33146786 </v>
    <v>       0.66720354       0.00013216       0.66837190 </v>
    <v>       0.66707617       0.33153042       0.00001484 </v>
    <v>       0.66695226       0.33230586       0.33241885 </v>
    <v>       0.66703004       0.33237957       0.66750709 </v>
    <v>       0.66612865       0.66815688       0.00011927 </v>
    <v>       0.66683895       0.66746306       0.33235327 </v>
    <v>       0.66681842       0.66768733       0.66779152 </v>
    <v>       0.16864821       0.16927837       0.17166697 </v>
    <v>       0.16674692       0.16715358       0.50016091 </v>
    <v>       0.16758701       0.17339156       0.83079703 </v>
    <v>       0.16677884       0.49990592       0.16751869 </v>
    <v>       0.16651950       0.50009464       0.49997924 </v>
    <v>       0.16675726       0.50004758       0.83254300 </v>
    <v>       0.17157108       0.83077115       0.16743581 </v>
    <v>       0.16675214       0.83253627       0.49985147 </v>
    <v>       0.17233264       0.82809448       0.82864965 </v>
    <v>       0.50002272       0.16789134       0.16784085 </v>
    <v>       0.50021137       0.16715308       0.50003260 </v>
    <v>       0.50018711       0.16773024       0.83222530 </v>
    <v>       0.50017773       0.49983459       0.16733737 </v>
    <v>       0.50029635       0.49998476       0.50002900 </v>
    <v>       0.50024369       0.49983221       0.83267599 </v>
    <v>       0.50052291       0.83238056       0.16780971 </v>
    <v>       0.50020316       0.83281598       0.50012979 </v>
    <v>       0.50026149       0.83240133       0.83212314 </v>
    <v>       0.82580799       0.16445669       0.16725297 </v>
    <v>       0.83275023       0.16734951       0.49986725 </v>
    <v>       0.82933255       0.17001798       0.83072450 </v>
    <v>       0.83225615       0.49888554       0.16809779 </v>
    <v>       0.83309336       0.50016884       0.50003019 </v>
    <v>       0.83217199       0.49991649       0.83184728 </v>
    <v>       0.82830690       0.82594249       0.16720952 </v>
    <v>       0.83263221       0.83222553       0.50058033 </v>
    <v>       0.82666843       0.83481428       0.83787890 </v>
   </varray>
  </structure>
  <varray name="forces" >
   <v>       0.06556806       0.04162062      -0.24377764 </v>
   <v>       0.01322289       0.01173390       0.24196052 </v>
   <v>       0.00844903      -0.27483553      -0.00296319 </v>
   <v>      -0.01762845      -0.00529348       0.01316297 </v>
   <v>      -0.01449181       0.01331898      -0.01827287 </v>
   <v>       0.11156093       0.33314995       0.00999566 </v>
   <v>      -0.00219585      -0.01261961       0.00802539 </v>
   <v>      -0.01504031       0.00009304      -0.00402370 </v>
   <v>      -0.30691062      -0.01566858      -0.02364014 </v>
   <v>      -0.01469001      -0.00197923       0.01676157 </v>
   <v>      -0.01201427       0.00291175      -0.00881262 </v>
   <v>      -0.01023961       0.01190726       0.00319224 </v>
   <v>       0.01048004       0.02314234       0.03004514 </v>
   <v>       0.01122116       0.02547732      -0.02828705 </v>
   <v>      -0.01865286      -0.01126014      -0.00465807 </v>
   <v>       0.01124906      -0.02311121       0.02465869 </v>
   <v>       0.01995260      -0.03291070      -0.03475972 </v>
   <v>       0.10189163      -0.00690659       0.02219099 </v>
   <v>      -0.01054886      -0.01255459       0.01884570 </v>
   <v>      -0.00168176      -0.00088748      -0.01324113 </v>
   <v>      -0.00742620       0.01312545      -0.00247170 </v>
   <v>      -0.00633839       0.01845213       0.02931243 </v>
   <v>      -0.00948472       0.02649251      -0.03340928 </v>
   <v>      -0.02568580      -0.02219430      -0.00231159 </v>
   <v>      -0.01143248      -0.03634961       0.03729093 </v>
   <v>       0.00017578      -0.01695214      -0.01828835 </v>
   <v>       0.08146723       0.07987289       0.03672327 </v>
   <v>      -0.00694533      -0.01711502       0.00698201 </v>
   <v>       0.11314559      -0.00217309      -0.07202811 </v>
   <v>      -0.00992940      -0.00617083      -0.01149511 </v>
   <v>      -0.01127158      -0.00058287      -0.00306650 </v>
   <v>      -0.01083668      -0.00168872       0.01383191 </v>
   <v>       0.03134520      -0.08936096       0.10267828 </v>
   <v>      -0.00917837       0.00943118      -0.00966013 </v>
   <v>       0.01832448      -0.03450206      -0.04641536 </v>
   <v>      -0.01548564      -0.01073971      -0.01075900 </v>
   <v>      -0.00854188      -0.01794233      -0.00079625 </v>
   <v>      -0.00950643      -0.01144423       0.01314725 </v>
   <v>      -0.01322817      -0.00465024      -0.01294655 </v>
   <v>      -0.00428983      -0.00257265      -0.00107622 </v>
   <v>      -0.01157459      -0.00648463       0.01504202 </v>
   <v>      -0.00176493       0.01319649      -0.01055589 </v>
   <v>      -0.00953510       0.01465711       0.00130052 </v>
   <v>      -0.00370997       0.01349556       0.01179892 </v>
   <v>       0.03771283       0.16610991       0.13608317 </v>
   <v>       0.00194375      -0.02015228      -0.00775470 </v>
   <v>      -0.04319826       0.09237973      -0.09623245 </v>
   <v>       0.00041198      -0.03259656      -0.01446435 </v>
   <v>       0.00920759       0.00185370      -0.00158543 </v>
   <v>      -0.00099787       0.00743831       0.01594081 </v>
   <v>      -0.02695170      -0.02095500       0.15262357 </v>
   <v>       0.00460186       0.01148475       0.01256466 </v>
   <v>       0.02947603      -0.17869051      -0.23640550 </v>
  </varray>
  <varray name="stress" >
   <v>      -3.61565338      -0.02852975      -0.04789675 </v>
   <v>      -0.02852954      -3.60097790       0.01218066 </v>
   <v>      -0.04789636       0.01218034      -3.74249520 </v>
  </varray>
  <energy>
   <i name="e_fr_energy">   -179.17180801 </i>
   <i name="e_wo_entrp">   -179.17180801 </i>
   <i name="e_0_energy">   -179.17180801 </i>
  </energy>
  <time name="totalsc">   30.27   30.35</time>
 </calculation>
 <calculation>
  <scstep>
   <time name="dav">    0.48    0.48</time>
   <time name="total">    2.49    2.50</time>
   <energy>
    <i name="alphaZ">   1390.48224925 </i>
    <i name="ewald"> -21527.15796601 </i>
    <i name="hartreedc">  -3762.75761124 </i>
    <i name="XCdc">    852.99273649 </i>
    <i name="pawpsdc">  24300.10883101 </i>
    <i name="pawaedc"> -24119.78115461 </i>
    <i name="eentropy">     -0.00000000 </i>
    <i name="bandstr">  -2794.51353956 </i>
    <i name="atom">  25482.99243790 </i>
    <i name="e_fr_energy">   -177.63401677 </i>
    <i name="e_wo_entrp">   -177.63401677 </i>
    <i name="e_0_energy">   -177.63401677 </i>
   </energy>
  </scstep>
  <scstep>
   <time name="dav">    0.51    0.51</time>
   <time name="total">    2.55    2.56</time>
   <energy>
    <i name="e_fr_energy">   -179.30682784 </i>
    <i name="e_wo_entrp">   -179.30682784 </i>
    <i name="e_0_energy">   -179.30682784 </i>
   </energy>
  </scstep>
  <scstep>
   <time name="dav">    0.56    0.67</time>
   <time name="total">    2.61    2.77</time>
   <energy>
    <i name="e_fr_energy">   -179.23589174 </i>
    <i name="e_wo_entrp">   -179.23589174 </i>
    <i name="e_0_energy">   -179.23589174 </i>
   </energy>
  </scstep>
  <scstep>
   <time name="dav">    0.54    0.54</time>
   <time name="total">    2.59    2.60</time>
   <energy>
    <i name="e_fr_energy">   -179.19139330 </i>
    <i name="e_wo_entrp">   -179.19139330 </i>
    <i name="e_0_energy">   -179.19139330 </i>
   </energy>
  </scstep>
  <scstep>
   <time name="dav">    0.54    0.54</time>
   <time name="total">    2.60    2.67</time>
   <energy>
    <i name="e_fr_energy">   -179.17590839 </i>
    <i name="e_wo_entrp">   -179.17590839 </i>
    <i name="e_0_energy">   -179.17590839 </i>
   </energy>
  </scstep>
  <scstep>
   <time name="dav">    0.57    0.57</time>
   <time name="total">    2.63    2.63</time>
   <energy>
    <i name="e_fr_energy">   -179.17175944 </i>
    <i name="e_wo_entrp">   -179.17175944 </i>
    <i name="e_0_energy">   -179.17175944 </i>
   </energy>
  </scstep>
  <scstep>
   <time name="dav">    0.56    0.57</time>
   <time name="total">    2.57    2.58</time>
   <energy>
    <i name="e_fr_energy">   -179.17188729 </i>
    <i name="e_wo_entrp">   -179.17188729 </i>
    <i name="e_0_energy">   -179.17188729 </i>
   </energy>
  </scstep>
  <scstep>
   <time name="dav">    0.53    0.53</time>
   <time name="total">    2.55    2.55</time>
   <energy>
    <i name="e_fr_energy">   -179.17202510 </i>
    <i name="e_wo_entrp">   -179.17202510 </i>
    <i name="e_0_energy">   -179.17202510 </i>
   </energy>
  </scstep>
  <scstep>
   <time name="dav">    0.51    0.51</time>
   <time name="total">    2.52    2.53</time>
   <energy>
    <i name="e_fr_energy">   -179.17198912 </i>
    <i name="e_wo_entrp">   -179.17198912 </i>
    <i name="e_0_energy">   -179.17198912 </i>
   </energy>
  </scstep>
  <scstep>
   <time name="dav">    0.52    0.52</time>
   <time name="total">    2.54    2.55</time>
   <energy>
    <i name="e_fr_energy">   -179.17207444 </i>
    <i name="e_wo_entrp">   -179.17207444 </i>
    <i name="e_0_energy">   -179.17207444 </i>
   </energy>
  </scstep>
  <scstep>
   <time name="dav">    0.53    0.53</time>
   <time name="total">    2.56    2.56</time>
   <energy>
    <i name="e_fr_energy">   -179.17209789 </i>
    <i name="e_wo_entrp">   -179.17209789 </i>
    <i name="e_0_energy">   -179.17209789 </i>
   </energy>
  </scstep>
  <scstep>
   <time name="dav">    0.51    0.51</time>
   <time name="total">    2.75    2.76</time>
   <energy>
    <i name="e_fr_energy">   -179.17208283 </i>
    <i name="e_wo_entrp">   -179.17208283 </i>
    <i name="e_0_energy">   -179.17208283 </i>
   </energy>
  </scstep>
  <scstep>
   <time name="dav">    0.44    0.45</time>
   <time name="total">    2.62    2.63</time>
   <energy>
    <i name="alphaZ">   1390.48224925 </i>
    <i name="ewald"> -21527.15796601 </i>
    <i name="hartreedc">  -3769.39263515 </i>
    <i name="XCdc">    853.35694390 </i>
    <i name="pawpsdc">  24370.46888721 </i>
    <i name="pawaedc"> -24190.25517208 </i>
    <i name="eentropy">     -0.00000000 </i>
    <i name="bandstr">  -2789.66682787 </i>
    <i name="atom">  25482.99243790 </i>
    <i name="e_fr_energy">   -179.17208285 </i>
    <i name="e_wo_entrp">   -179.17208285 </i>
    <i name="e_0_energy">   -179.17208285 </i>
   </energy>
  </scstep>
  <structure>
   <crystal>
    <varray name="basis" >
     <v>      12.22634592       0.00000000       0.00000000 </v>
     <v>       0.00000000      12.22634592       0.00000000 </v>
     <v>       0.00000000       0.00000000      12.22634592 </v>
    </varray>
    <i name="volume">   1827.63740156 </i>
    <varray name="rec_basis" >
     <v>       0.08179059       0.00000000       0.00000000 </v>
     <v>       0.00000000       0.08179059       0.00000000 </v>
     <v>       0.00000000       0.00000000       0.08179059 </v>
    </varray>
   </crystal>
   <varray name="positions" >
    <v>       0.99991046       0.99933512       0.31683049 </v>
    <v>       0.00070330       0.00041421       0.68335797 </v>
    <v>       0.00100286       0.31765836       0.00008564 </v>
    <v>       0.00057786       0.32844691       0.32983564 </v>
    <v>       0.00046017       0.32935283       0.67028047 </v>
    <v>       0.99847773       0.67851029       0.00011307 </v>
    <v>       0.00124078       0.67029813       0.32865535 </v>
    <v>       0.00123784       0.67045861       0.67081649 </v>
    <v>       0.32613788       0.99969550       0.00022582 </v>
    <v>       0.32925958       0.99987288       0.32922618 </v>
    <v>       0.32975070       0.00011078       0.67110203 </v>
    <v>       0.32961379       0.32959984       0.00026032 </v>
    <v>       0.33163620       0.33091080       0.33114934 </v>
    <v>       0.33149748       0.33134905       0.66887968 </v>
    <v>       0.32904036       0.67098811       0.99997042 </v>
    <v>       0.33170444       0.66920617       0.33060048 </v>
    <v>       0.33212745       0.66852213       0.66895788 </v>
    <v>       0.68214905       0.00135645       0.00166245 </v>
    <v>       0.66720349       0.99935346       0.32866965 </v>
    <v>       0.66800885       0.00033039       0.67092974 </v>
    <v>       0.66769042       0.32882606       0.00003710 </v>
    <v>       0.66738066       0.33076466       0.33104712 </v>
    <v>       0.66757509       0.33094892       0.66876773 </v>
    <v>       0.66532162       0.67039220       0.00029817 </v>
    <v>       0.66709738       0.66865764       0.33088316 </v>
    <v>       0.66704604       0.66921832       0.66947880 </v>
    <v>       0.17160864       0.17403283       0.17520070 </v>
    <v>       0.16686731       0.16788396       0.50040226 </v>
    <v>       0.17161553       0.17560525       0.82666718 </v>
    <v>       0.16694709       0.49976480       0.16879674 </v>
    <v>       0.16629874       0.50023660       0.49994810 </v>
    <v>       0.16689314       0.50011896       0.83135750 </v>
    <v>       0.17351547       0.82605954       0.17289494 </v>
    <v>       0.16688036       0.83134066       0.49962866 </v>
    <v>       0.17363192       0.82509243       0.82434852 </v>
    <v>       0.50005681       0.16972834       0.16960212 </v>
    <v>       0.50052843       0.16788270       0.50008150 </v>
    <v>       0.50046778       0.16932559       0.83056325 </v>
    <v>       0.50044433       0.49958646       0.16834341 </v>
    <v>       0.50074088       0.49996190       0.50007249 </v>
    <v>       0.50060922       0.49958052       0.83168998 </v>
    <v>       0.50130726       0.83095139       0.16952429 </v>
    <v>       0.50050790       0.83203994       0.50032448 </v>
    <v>       0.50065373       0.83100332       0.83030786 </v>
    <v>       0.82638989       0.17226436       0.17407919 </v>
    <v>       0.83187558       0.16837376       0.49966814 </v>
    <v>       0.82720062       0.17575531       0.82503842 </v>
    <v>       0.83064038       0.49721386       0.17024446 </v>
    <v>       0.83273339       0.50042211       0.50007548 </v>
    <v>       0.83042998       0.49979123       0.82961820 </v>
    <v>       0.82685879       0.82222925       0.17479362 </v>
    <v>       0.83158053       0.83056382       0.50145082 </v>
    <v>       0.82833196       0.82577202       0.82660098 </v>
   </varray>
  </structure>
  <varray name="forces" >
   <v>      -0.03234089      -0.00214391       0.04744981 </v>
   <v>      -0.04582125      -0.01536725      -0.04236218 </v>
   <v>      -0.06627323       0.01804407       0.00461360 </v>
   <v>      -0.05446835       0.17149467       0.18886609 </v>
   <v>      -0.04187507       0.18561673      -0.18463297 </v>
   <v>      -0.00165021       0.00137580      -0.01523477 </v>
   <v>      -0.05414474      -0.18458149       0.19826402 </v>
   <v>      -0.06277470      -0.16906317      -0.18633091 </v>
   <v>      -0.11227456       0.01171980      -0.01064079 </v>
   <v>       0.11444436       0.00274013       0.18760706 </v>
   <v>       0.11376399       0.00348775      -0.17597763 </v>
   <v>       0.11360797       0.16754249      -0.00252746 </v>
   <v>       0.10532151       0.16298971       0.17207088 </v>
   <v>       0.10828413       0.15241221      -0.16081260 </v>
   <v>       0.11170118      -0.17747565      -0.01033430 </v>
   <v>       0.11021121      -0.16423603       0.17778538 </v>
   <v>       0.10725256      -0.15719185      -0.17646245 </v>
   <v>       0.07554758      -0.04983601      -0.05566357 </v>
   <v>      -0.04609076       0.00504758       0.18208038 </v>
   <v>      -0.05484531      -0.01285293      -0.14685459 </v>
   <v>      -0.05902510       0.16015478      -0.00499785 </v>
   <v>      -0.06499988       0.15701829       0.17671708 </v>
   <v>      -0.07799726       0.17249750      -0.17800831 </v>
   <v>      -0.00837417      -0.16018696      -0.01753445 </v>
   <v>      -0.06164531      -0.17682520       0.19789566 </v>
   <v>      -0.04500370      -0.15787368      -0.17146566 </v>
   <v>       0.00808548      -0.11854293      -0.14412578 </v>
   <v>      -0.02164697      -0.09044136       0.00034259 </v>
   <v>       0.01371096      -0.14343413       0.10909057 </v>
   <v>      -0.02789971       0.00025546      -0.10676341 </v>
   <v>      -0.00914490      -0.00779707      -0.00470920 </v>
   <v>      -0.02607491      -0.00368365       0.11115868 </v>
   <v>      -0.03870506       0.10684527      -0.10617212 </v>
   <v>      -0.02031602       0.10015298      -0.00919780 </v>
   <v>      -0.03656711       0.12711692       0.16471728 </v>
   <v>      -0.03000857      -0.13077926      -0.12675957 </v>
   <v>      -0.03937838      -0.09051409      -0.00394122 </v>
   <v>      -0.03409126      -0.11862992       0.12994861 </v>
   <v>      -0.04618034       0.00857805      -0.09831343 </v>
   <v>      -0.03743711      -0.00145804      -0.00462585 </v>
   <v>      -0.04872228       0.00374751       0.10296459 </v>
   <v>      -0.04612905       0.11914918      -0.12921384 </v>
   <v>      -0.04139184       0.09162650      -0.01026340 </v>
   <v>      -0.02985012       0.11780644       0.13947645 </v>
   <v>       0.05709662      -0.07773987      -0.10814246 </v>
   <v>       0.05183410      -0.10109597      -0.00207298 </v>
   <v>       0.03874209      -0.14270708       0.13987279 </v>
   <v>       0.07219723       0.02073275      -0.13472204 </v>
   <v>       0.04430461      -0.01070360      -0.00584934 </v>
   <v>       0.07325794       0.00605781       0.14200182 </v>
   <v>       0.04234651       0.16972574      -0.13228827 </v>
   <v>       0.05516729       0.11452578      -0.02545159 </v>
   <v>       0.00627078       0.10669921       0.11952947 </v>
  </varray>
  <varray name="stress" >
   <v>      -2.43088018      -0.03416198      -0.00650265 </v>
   <v>      -0.03416181      -2.59909848      -0.02906259 </v>
   <v>      -0.00650287      -0.02906211      -2.70811406 </v>
  </varray>
  <energy>
   <i name="e_fr_energy">   -179.17208285 </i>
   <i name="e_wo_entrp">   -179.17208285 </i>
   <i name="e_0_energy">   -179.17208285 </i>
  </energy>
  <time name="totalsc">   38.87   39.33</time>
 </calculation>
 <calculation>
  <scstep>
   <time name="dav">    0.47    0.47</time>
   <time name="total">    2.68    2.69</time>
   <energy>
    <i name="alphaZ">   1390.48224925 </i>
    <i name="ewald"> -21536.28113401 </i>
    <i name="hartreedc">  -3760.48268708 </i>
    <i name="XCdc">    853.02617403 </i>
    <i name="pawpsdc">  24370.70693792 </i>
    <i name="pawaedc"> -24190.49355491 </i>
    <i name="eentropy">     -0.00000000 </i>
    <i name="bandstr">  -2788.88270711 </i>
    <i name="atom">  25482.99243790 </i>
    <i name="e_fr_energy">   -178.93228400 </i>
    <i name="e_wo_entrp">   -178.93228400 </i>
    <i name="e_0_energy">   -178.93228400 </i>
   </energy>
  </scstep>
  <scstep>
   <time name="dav">    0.51    0.51</time>
   <time name="total">    2.56    2.57</time>
   <energy>
    <i name="e_fr_energy">   -179.28852365 </i>
    <i name="e_wo_entrp">   -179.28852365 </i>
    <i name="e_0_energy">   -179.28852365 </i>
   </energy>
  </scstep>
  <scstep>
   <time name="dav">    0.54    0.54</time>
   <time name="total">    2.59    2.60</time>
   <energy>
    <i name="e_fr_energy">   -179.27258430 </i>
    <i name="e_wo_entrp">   -179.27258430 </i>
    <i name="e_0_energy">   -179.27258430 </i>
   </energy>
  </scstep>
  <scstep>
   <time name="dav">    0.54    0.54</time>
   <time name="total">    2.58    2.59</time>
   <energy>
    <i name="e_fr_energy">   -179.26023925 </i>
    <i name="e_wo_entrp">   -179.26023925 </i>
    <i name="e_0_energy">   -179.26023925 </i>
   </energy>
  </scstep>
  <scstep>
   <time name="dav">    0.53    0.54</time>
   <time name="total">    2.58    2.59</time>
   <energy>
    <i name="e_fr_energy">   -179.25845961 </i>
    <i name="e_wo_entrp">   -179.25845961 </i>
    <i name="e_0_energy">   -179.25845961 </i>
   </energy>
  </scstep>
  <scstep>
   <time name="dav">    0.58    0.58</time>
   <time name="total">    2.63    2.63</time>
   <energy>
    <i name="e_fr_energy">   -179.25760360 </i>
    <i name="e_wo_entrp">   -179.25760360 </i>
    <i name="e_0_energy">   -179.25760360 </i>
   </energy>
  </scstep>
  <scstep>
   <time name="dav">    0.59    0.59</time>
   <time name="total">    2.58    2.58</time>
   <energy>
    <i name="e_fr_energy">   -179.25724775 </i>
    <i name="e_wo_entrp">   -179.25724775 </i>
    <i name="e_0_energy">   -179.25724775 </i>
   </energy>
  </scstep>
  <scstep>
   <time name="dav">    0.52    0.52</time>
   <time name="total">    2.51    2.51</time>
   <energy>
    <i name="e_fr_energy">   -179.25725845 </i>
    <i name="e_wo_entrp">   -179.25725845 </i>
    <i name="e_0_energy">   -179.25725845 </i>
   </energy>
  </scstep>
  <scstep>
   <time name="dav">    0.48    0.48</time>
   <time name="total">    2.46    2.47</time>
   <energy>
    <i name="e_fr_energy">   -179.25723742 </i>
    <i name="e_wo_entrp">   -179.25723742 </i>
    <i name="e_0_energy">   -179.25723742 </i>
   </energy>
  </scstep>
  <scstep>
   <time name="dav">    0.48    0.48</time>
   <time name="total">    2.47    2.48</time>
   <energy>
    <i name="e_fr_energy">   -179.25722667 </i>
    <i name="e_wo_entrp">   -179.25722667 </i>
    <i name="e_0_energy">   -179.25722667 </i>
   </energy>
  </scstep>
  <scstep>
   <time name="dav">    0.41    0.41</time>
   <time name="total">    2.35    2.36</time>
   <energy>
    <i name="alphaZ">   1390.48224925 </i>
    <i name="ewald"> -21536.28113401 </i>
    <i name="hartreedc">  -3757.50874562 </i>
    <i name="XCdc">    852.90008013 </i>
    <i name="pawpsdc">  24316.85934563 </i>
    <i name="pawaedc"> -24136.56499995 </i>
    <i name="eentropy">     -0.00000000 </i>
    <i name="bandstr">  -2792.13645882 </i>
    <i name="atom">  25482.99243790 </i>
[...]
        <r>  0.0000  0.0005  0.0000 </r>
        <r>  0.0000  0.0035  0.0000 </r>
        <r>  0.0000  0.0010  0.0000 </r>
        <r>  0.0000  0.0019  0.0000 </r>
        <r>  0.0000  0.0000  0.0000 </r>
        <r>  0.0000  0.0020  0.0000 </r>
        <r>  0.0000  0.0027  0.0000 </r>
        <r>  0.0000  0.0035  0.0000 </r>
        <r>  0.0000  0.0030  0.0000 </r>
       </set>
       <set comment="band 276">
        <r>  0.0000  0.0000  0.0003 </r>
        <r>  0.0000  0.0000  0.0002 </r>
        <r>  0.0000  0.0000  0.0008 </r>
        <r>  0.0000  0.0002  0.0095 </r>
        <r>  0.0000  0.0002  0.0221 </r>
        <r>  0.0000  0.0000  0.0004 </r>
        <r>  0.0000  0.0002  0.0208 </r>
        <r>  0.0000  0.0002  0.0090 </r>
        <r>  0.0000  0.0000  0.0003 </r>
        <r>  0.0000  0.0001  0.0079 </r>
        <r>  0.0000  0.0001  0.0158 </r>
        <r>  0.0000  0.0003  0.0042 </r>
        <r>  0.0000  0.0001  0.0029 </r>
        <r>  0.0000  0.0002  0.0101 </r>
        <r>  0.0000  0.0002  0.0354 </r>
        <r>  0.0000  0.0005  0.0182 </r>
        <r>  0.0000  0.0004  0.0154 </r>
        <r>  0.0000  0.0000  0.0010 </r>
        <r>  0.0000  0.0001  0.0124 </r>
        <r>  0.0000  0.0001  0.0054 </r>
        <r>  0.0000  0.0005  0.0370 </r>
        <r>  0.0000  0.0003  0.0139 </r>
        <r>  0.0000  0.0003  0.0138 </r>
        <r>  0.0000  0.0003  0.0055 </r>
        <r>  0.0000  0.0003  0.0078 </r>
        <r>  0.0000  0.0001  0.0026 </r>
        <r>  0.0000  0.0004  0.0000 </r>
        <r>  0.0000  0.0043  0.0000 </r>
        <r>  0.0000  0.0019  0.0000 </r>
        <r>  0.0000  0.0015  0.0000 </r>
        <r>  0.0000  0.0000  0.0000 </r>
        <r>  0.0000  0.0016  0.0000 </r>
        <r>  0.0000  0.0025  0.0000 </r>
        <r>  0.0000  0.0042  0.0000 </r>
        <r>  0.0000  0.0023  0.0000 </r>
        <r>  0.0000  0.0028  0.0000 </r>
        <r>  0.0000  0.0002  0.0000 </r>
        <r>  0.0000  0.0024  0.0000 </r>
        <r>  0.0000  0.0001  0.0000 </r>
        <r>  0.0000  0.0000  0.0000 </r>
        <r>  0.0000  0.0001  0.0000 </r>
        <r>  0.0000  0.0030  0.0000 </r>
        <r>  0.0000  0.0001  0.0000 </r>
        <r>  0.0000  0.0029  0.0000 </r>
        <r>  0.0000  0.0030  0.0000 </r>
        <r>  0.0000  0.0028  0.0000 </r>
        <r>  0.0000  0.0031  0.0000 </r>
        <r>  0.0000  0.0011  0.0000 </r>
        <r>  0.0000  0.0001  0.0000 </r>
        <r>  0.0000  0.0014  0.0000 </r>
        <r>  0.0000  0.0017  0.0000 </r>
        <r>  0.0000  0.0033  0.0000 </r>
        <r>  0.0000  0.0005  0.0000 </r>
       </set>
       <set comment="band 277">
        <r>  0.0000  0.0000  0.0007 </r>
        <r>  0.0000  0.0000  0.0006 </r>
        <r>  0.0000  0.0000  0.0002 </r>
        <r>  0.0000  0.0004  0.0288 </r>
        <r>  0.0000  0.0004  0.0138 </r>
        <r>  0.0000  0.0000  0.0002 </r>
        <r>  0.0000  0.0004  0.0122 </r>
        <r>  0.0000  0.0003  0.0289 </r>
        <r>  0.0000  0.0000  0.0000 </r>
        <r>  0.0000  0.0003  0.0217 </r>
        <r>  0.0000  0.0003  0.0161 </r>
        <r>  0.0000  0.0000  0.0006 </r>
        <r>  0.0000  0.0004  0.0144 </r>
        <r>  0.0000  0.0002  0.0097 </r>
        <r>  0.0000  0.0000  0.0017 </r>
        <r>  0.0000  0.0003  0.0110 </r>
        <r>  0.0000  0.0003  0.0142 </r>
        <r>  0.0000  0.0000  0.0008 </r>
        <r>  0.0000  0.0004  0.0197 </r>
        <r>  0.0000  0.0003  0.0249 </r>
        <r>  0.0000  0.0000  0.0016 </r>
        <r>  0.0000  0.0003  0.0146 </r>
        <r>  0.0000  0.0002  0.0099 </r>
        <r>  0.0000  0.0000  0.0009 </r>
        <r>  0.0000  0.0002  0.0082 </r>
        <r>  0.0000  0.0003  0.0155 </r>
        <r>  0.0000  0.0026  0.0000 </r>
        <r>  0.0000  0.0002  0.0000 </r>
        <r>  0.0000  0.0015  0.0000 </r>
        <r>  0.0000  0.0044  0.0000 </r>
        <r>  0.0000  0.0001  0.0000 </r>
        <r>  0.0000  0.0048  0.0000 </r>
        <r>  0.0000  0.0016  0.0000 </r>
        <r>  0.0000  0.0003  0.0000 </r>
        <r>  0.0000  0.0022  0.0000 </r>
        <r>  0.0000  0.0044  0.0000 </r>
        <r>  0.0000  0.0001  0.0000 </r>
        <r>  0.0000  0.0045  0.0000 </r>
        <r>  0.0000  0.0000  0.0000 </r>
        <r>  0.0000  0.0000  0.0000 </r>
        <r>  0.0000  0.0001  0.0000 </r>
        <r>  0.0000  0.0048  0.0000 </r>
        <r>  0.0000  0.0000  0.0000 </r>
        <r>  0.0000  0.0047  0.0000 </r>
        <r>  0.0000  0.0026  0.0000 </r>
        <r>  0.0000  0.0001  0.0000 </r>
        <r>  0.0000  0.0022  0.0000 </r>
        <r>  0.0000  0.0036  0.0000 </r>
        <r>  0.0000  0.0001  0.0000 </r>
        <r>  0.0000  0.0037  0.0000 </r>
        <r>  0.0000  0.0018  0.0000 </r>
        <r>  0.0000  0.0002  0.0000 </r>
        <r>  0.0000  0.0029  0.0000 </r>
       </set>
       <set comment="band 278">
        <r>  0.0000  0.0000  0.0092 </r>
        <r>  0.0000  0.0000  0.0092 </r>
        <r>  0.0000  0.0000  0.0060 </r>
        <r>  0.0000  0.0001  0.0127 </r>
        <r>  0.0000  0.0001  0.0135 </r>
        <r>  0.0000  0.0000  0.0060 </r>
        <r>  0.0000  0.0001  0.0131 </r>
        <r>  0.0000  0.0001  0.0121 </r>
        <r>  0.0000  0.0000  0.0005 </r>
        <r>  0.0000  0.0014  0.0114 </r>
        <r>  0.0000  0.0014  0.0111 </r>
        <r>  0.0000  0.0023  0.0095 </r>
        <r>  0.0000  0.0006  0.0127 </r>
        <r>  0.0000  0.0007  0.0107 </r>
        <r>  0.0000  0.0023  0.0098 </r>
        <r>  0.0000  0.0007  0.0106 </r>
        <r>  0.0000  0.0006  0.0125 </r>
        <r>  0.0000  0.0000  0.0004 </r>
        <r>  0.0000  0.0015  0.0078 </r>
        <r>  0.0000  0.0015  0.0078 </r>
        <r>  0.0000  0.0022  0.0058 </r>
        <r>  0.0000  0.0008  0.0126 </r>
        <r>  0.0000  0.0007  0.0139 </r>
        <r>  0.0000  0.0023  0.0053 </r>
        <r>  0.0000  0.0007  0.0139 </r>
        <r>  0.0000  0.0008  0.0129 </r>
        <r>  0.0000  0.0037  0.0000 </r>
        <r>  0.0000  0.0089  0.0000 </r>
        <r>  0.0000  0.0032  0.0000 </r>
        <r>  0.0000  0.0059  0.0000 </r>
        <r>  0.0000  0.0000  0.0000 </r>
        <r>  0.0000  0.0057  0.0000 </r>
        <r>  0.0000  0.0034  0.0000 </r>
        <r>  0.0000  0.0085  0.0000 </r>
        <r>  0.0000  0.0038  0.0000 </r>
        <r>  0.0000  0.0004  0.0000 </r>
        <r>  0.0000  0.0000  0.0000 </r>
        <r>  0.0000  0.0004  0.0000 </r>
        <r>  0.0000  0.0000  0.0000 </r>
        <r>  0.0000  0.0000  0.0000 </r>
        <r>  0.0000  0.0000  0.0000 </r>
        <r>  0.0000  0.0004  0.0000 </r>
        <r>  0.0000  0.0000  0.0000 </r>
        <r>  0.0000  0.0004  0.0000 </r>
        <r>  0.0000  0.0028  0.0000 </r>
        <r>  0.0000  0.0084  0.0000 </r>
        <r>  0.0000  0.0032  0.0000 </r>
        <r>  0.0000  0.0050  0.0000 </r>
        <r>  0.0000  0.0000  0.0000 </r>
        <r>  0.0000  0.0049  0.0000 </r>
        <r>  0.0000  0.0031  0.0000 </r>
        <r>  0.0000  0.0081  0.0000 </r>
        <r>  0.0000  0.0028  0.0000 </r>
       </set>
       <set comment="band 279">
        <r>  0.0000  0.0000  0.0014 </r>
        <r>  0.0000  0.0000  0.0014 </r>
        <r>  0.0000  0.0000  0.0058 </r>
        <r>  0.0000  0.0026  0.0068 </r>
        <r>  0.0000  0.0026  0.0062 </r>
        <r>  0.0000  0.0000  0.0054 </r>
        <r>  0.0000  0.0025  0.0068 </r>
        <r>  0.0000  0.0025  0.0058 </r>
        <r>  0.0000  0.0000  0.0125 </r>
        <r>  0.0000  0.0011  0.0113 </r>
        <r>  0.0000  0.0012  0.0112 </r>
        <r>  0.0000  0.0003  0.0115 </r>
        <r>  0.0000  0.0006  0.0124 </r>
        <r>  0.0000  0.0007  0.0114 </r>
        <r>  0.0000  0.0003  0.0111 </r>
        <r>  0.0000  0.0008  0.0112 </r>
        <r>  0.0000  0.0007  0.0122 </r>
        <r>  0.0000  0.0000  0.0130 </r>
        <r>  0.0000  0.0011  0.0117 </r>
        <r>  0.0000  0.0011  0.0105 </r>
        <r>  0.0000  0.0003  0.0116 </r>
        <r>  0.0000  0.0008  0.0116 </r>
        <r>  0.0000  0.0008  0.0123 </r>
        <r>  0.0000  0.0003  0.0118 </r>
        <r>  0.0000  0.0008  0.0116 </r>
        <r>  0.0000  0.0008  0.0113 </r>
        <r>  0.0000  0.0036  0.0000 </r>
        <r>  0.0000  0.0010  0.0000 </r>
        <r>  0.0000  0.0033  0.0000 </r>
        <r>  0.0000  0.0043  0.0000 </r>
        <r>  0.0000  0.0000  0.0000 </r>
        <r>  0.0000  0.0041  0.0000 </r>
        <r>  0.0000  0.0033  0.0000 </r>
        <r>  0.0000  0.0009  0.0000 </r>
        <r>  0.0000  0.0034  0.0000 </r>
        <r>  0.0000  0.0096  0.0000 </r>
        <r>  0.0000  0.0000  0.0000 </r>
        <r>  0.0000  0.0092  0.0000 </r>
        <r>  0.0000  0.0000  0.0000 </r>
        <r>  0.0000  0.0000  0.0000 </r>
        <r>  0.0000  0.0000  0.0000 </r>
        <r>  0.0000  0.0096  0.0000 </r>
        <r>  0.0000  0.0000  0.0000 </r>
        <r>  0.0000  0.0095  0.0000 </r>
        <r>  0.0000  0.0033  0.0000 </r>
        <r>  0.0000  0.0011  0.0000 </r>
        <r>  0.0000  0.0035  0.0000 </r>
        <r>  0.0000  0.0043  0.0000 </r>
        <r>  0.0000  0.0000  0.0000 </r>
        <r>  0.0000  0.0042  0.0000 </r>
        <r>  0.0000  0.0035  0.0000 </r>
        <r>  0.0000  0.0010  0.0000 </r>
        <r>  0.0000  0.0030  0.0000 </r>
       </set>
       <set comment="band 280">
        <r>  0.0001  0.0003  0.0027 </r>
        <r>  0.0001  0.0002  0.0025 </r>
        <r>  0.0001  0.0002  0.0022 </r>
        <r>  0.0000  0.0001  0.0149 </r>
        <r>  0.0000  0.0000  0.0118 </r>
        <r>  0.0000  0.0002  0.0069 </r>
        <r>  0.0000  0.0001  0.0129 </r>
        <r>  0.0000  0.0001  0.0140 </r>
        <r>  0.0000  0.0004  0.0034 </r>
        <r>  0.0000  0.0001  0.0119 </r>
        <r>  0.0000  0.0002  0.0116 </r>
        <r>  0.0000  0.0001  0.0203 </r>
        <r>  0.0000  0.0007  0.0062 </r>
        <r>  0.0000  0.0004  0.0063 </r>
        <r>  0.0000  0.0001  0.0180 </r>
        <r>  0.0000  0.0005  0.0070 </r>
        <r>  0.0000  0.0003  0.0049 </r>
        <r>  0.0000  0.0001  0.0037 </r>
        <r>  0.0001  0.0004  0.0160 </r>
        <r>  0.0000  0.0002  0.0178 </r>
        <r>  0.0000  0.0002  0.0166 </r>
        <r>  0.0000  0.0004  0.0063 </r>
        <r>  0.0000  0.0007  0.0066 </r>
        <r>  0.0000  0.0001  0.0113 </r>
        <r>  0.0000  0.0007  0.0067 </r>
        <r>  0.0000  0.0007  0.0101 </r>
        <r>  0.0000  0.0028  0.0000 </r>
        <r>  0.0000  0.0062  0.0000 </r>
        <r>  0.0000  0.0023  0.0000 </r>
        <r>  0.0000  0.0099  0.0000 </r>
        <r>  0.0000  0.0039  0.0000 </r>
        <r>  0.0000  0.0056  0.0000 </r>
        <r>  0.0000  0.0024  0.0000 </r>
        <r>  0.0000  0.0040  0.0000 </r>
        <r>  0.0000  0.0007  0.0000 </r>
        <r>  0.0000  0.0048  0.0000 </r>
        <r>  0.0000  0.0065  0.0000 </r>
        <r>  0.0000  0.0064  0.0000 </r>
        <r>  0.0001  0.0085  0.0000 </r>
        <r>  0.0000  0.0011  0.0000 </r>
        <r>  0.0001  0.0091  0.0000 </r>
        <r>  0.0000  0.0034  0.0000 </r>
        <r>  0.0000  0.0059  0.0000 </r>
        <r>  0.0000  0.0045  0.0000 </r>
        <r>  0.0000  0.0006  0.0000 </r>
        <r>  0.0000  0.0030  0.0000 </r>
        <r>  0.0000  0.0017  0.0000 </r>
        <r>  0.0000  0.0012  0.0000 </r>
        <r>  0.0000  0.0059  0.0000 </r>
        <r>  0.0000  0.0049  0.0000 </r>
        <r>  0.0000  0.0011  0.0000 </r>
        <r>  0.0000  0.0066  0.0000 </r>
        <r>  0.0000  0.0029  0.0000 </r>
       </set>
       <set comment="band 281">
        <r>  0.0000  0.0004  0.0072 </r>
        <r>  0.0000  0.0004  0.0032 </r>
        <r>  0.0000  0.0003  0.0098 </r>
        <r>  0.0000  0.0003  0.0094 </r>
        <r>  0.0000  0.0004  0.0078 </r>
        <r>  0.0000  0.0004  0.0033 </r>
        <r>  0.0000  0.0003  0.0074 </r>
        <r>  0.0000  0.0002  0.0088 </r>
        <r>  0.0000  0.0001  0.0030 </r>
        <r>  0.0000  0.0001  0.0187 </r>
        <r>  0.0000  0.0003  0.0229 </r>
        <r>  0.0000  0.0002  0.0232 </r>
        <r>  0.0000  0.0003  0.0025 </r>
        <r>  0.0000  0.0004  0.0026 </r>
        <r>  0.0000  0.0001  0.0201 </r>
        <r>  0.0000  0.0003  0.0023 </r>
        <r>  0.0000  0.0002  0.0023 </r>
        <r>  0.0000  0.0001  0.0029 </r>
        <r>  0.0000  0.0001  0.0214 </r>
        <r>  0.0000  0.0001  0.0252 </r>
        <r>  0.0000  0.0000  0.0162 </r>
        <r>  0.0000  0.0002  0.0029 </r>
        <r>  0.0000  0.0003  0.0041 </r>
        <r>  0.0000  0.0001  0.0269 </r>
        <r>  0.0000  0.0002  0.0028 </r>
        <r>  0.0000  0.0003  0.0040 </r>
        <r>  0.0000  0.0022  0.0000 </r>
        <r>  0.0000  0.0029  0.0000 </r>
        <r>  0.0000  0.0014  0.0000 </r>
        <r>  0.0000  0.0048  0.0000 </r>
        <r>  0.0000  0.0032  0.0000 </r>
        <r>  0.0000  0.0023  0.0000 </r>
        <r>  0.0000  0.0016  0.0000 </r>
        <r>  0.0000  0.0024  0.0000 </r>
        <r>  0.0000  0.0015  0.0000 </r>
        <r>  0.0000  0.0039  0.0000 </r>
        <r>  0.0000  0.0073  0.0000 </r>
        <r>  0.0000  0.0046  0.0000 </r>
        <r>  0.0000  0.0068  0.0000 </r>
        <r>  0.0000  0.0006  0.0000 </r>
        <r>  0.0000  0.0076  0.0000 </r>
        <r>  0.0000  0.0062  0.0000 </r>
        <r>  0.0000  0.0076  0.0000 </r>
        <r>  0.0000  0.0066  0.0000 </r>
        <r>  0.0000  0.0013  0.0000 </r>
        <r>  0.0000  0.0030  0.0000 </r>
        <r>  0.0000  0.0019  0.0000 </r>
        <r>  0.0000  0.0038  0.0000 </r>
        <r>  0.0000  0.0045  0.0000 </r>
        <r>  0.0000  0.0035  0.0000 </r>
        <r>  0.0000  0.0025  0.0000 </r>
        <r>  0.0000  0.0052  0.0000 </r>
        <r>  0.0000  0.0024  0.0000 </r>
       </set>
       <set comment="band 282">
        <r>  0.0000  0.0007  0.0036 </r>
        <r>  0.0000  0.0002  0.0063 </r>
        <r>  0.0000  0.0002  0.0160 </r>
        <r>  0.0000  0.0004  0.0159 </r>
        <r>  0.0000  0.0004  0.0077 </r>
        <r>  0.0000  0.0006  0.0135 </r>
        <r>  0.0000  0.0003  0.0153 </r>
        <r>  0.0000  0.0004  0.0097 </r>
        <r>  0.0000  0.0004  0.0156 </r>
        <r>  0.0000  0.0011  0.0114 </r>
        <r>  0.0000  0.0004  0.0097 </r>
        <r>  0.0000  0.0003  0.0089 </r>
        <r>  0.0000  0.0001  0.0035 </r>
        <r>  0.0000  0.0002  0.0069 </r>
        <r>  0.0000  0.0002  0.0179 </r>
        <r>  0.0000  0.0001  0.0029 </r>
        <r>  0.0000  0.0001  0.0044 </r>
        <r>  0.0000  0.0005  0.0100 </r>
        <r>  0.0000  0.0001  0.0140 </r>
        <r>  0.0001  0.0011  0.0144 </r>
        <r>  0.0000  0.0002  0.0159 </r>
        <r>  0.0000  0.0001  0.0026 </r>
        <r>  0.0000  0.0002  0.0036 </r>
        <r>  0.0000  0.0003  0.0178 </r>
        <r>  0.0000  0.0000  0.0049 </r>
        <r>  0.0000  0.0002  0.0080 </r>
        <r>  0.0000  0.0014  0.0000 </r>
        <r>  0.0000  0.0026  0.0000 </r>
        <r>  0.0000  0.0004  0.0000 </r>
        <r>  0.0000  0.0075  0.0000 </r>
        <r>  0.0000  0.0046  0.0000 </r>
        <r>  0.0000  0.0020  0.0000 </r>
        <r>  0.0000  0.0015  0.0000 </r>
        <r>  0.0000  0.0021  0.0000 </r>
        <r>  0.0000  0.0010  0.0000 </r>
        <r>  0.0000  0.0026  0.0000 </r>
        <r>  0.0000  0.0052  0.0000 </r>
        <r>  0.0000  0.0031  0.0000 </r>
        <r>  0.0000  0.0026  0.0000 </r>
        <r>  0.0000  0.0060  0.0000 </r>
        <r>  0.0000  0.0053  0.0000 </r>
        <r>  0.0000  0.0046  0.0000 </r>
        <r>  0.0000  0.0026  0.0000 </r>
        <r>  0.0000  0.0029  0.0000 </r>
        <r>  0.0000  0.0014  0.0000 </r>
        <r>  0.0000  0.0023  0.0000 </r>
        <r>  0.0000  0.0013  0.0000 </r>
        <r>  0.0000  0.0057  0.0000 </r>
        <r>  0.0000  0.0042  0.0000 </r>
        <r>  0.0000  0.0058  0.0000 </r>
        <r>  0.0000  0.0017  0.0000 </r>
        <r>  0.0000  0.0039  0.0000 </r>
        <r>  0.0000  0.0015  0.0000 </r>
       </set>
      </set>
     </set>
    </set>
   </array>
  </projected>
 </calculation>
 <structure name="finalpos" >
  <crystal>
   <varray name="basis" >
    <v>      12.22634592       0.00000000       0.00000000 </v>
    <v>       0.00000000      12.22634592       0.00000000 </v>
    <v>       0.00000000       0.00000000      12.22634592 </v>
   </varray>
   <i name="volume">   1827.63740156 </i>
   <varray name="rec_basis" >
    <v>       0.08179059       0.00000000       0.00000000 </v>
    <v>       0.00000000       0.08179059       0.00000000 </v>
    <v>       0.00000000       0.00000000       0.08179059 </v>
   </varray>
  </crystal>
  <varray name="positions" >
   <v>       0.99988035       0.99951945       0.31589200 </v>
   <v>       0.00003937       0.99995947       0.68501043 </v>
   <v>       0.99978665       0.31505586       0.00018202 </v>
   <v>       0.99990174       0.33292947       0.33357427 </v>
   <v>       0.99985599       0.33355578       0.66655043 </v>
   <v>       0.99973464       0.68174022       0.99995414 </v>
   <v>       0.99989949       0.66621337       0.33343144 </v>
   <v>       0.00005785       0.66672901       0.66641512 </v>
   <v>       0.31919774       0.00008689       0.00002583 </v>
   <v>       0.33258167       0.99998901       0.33360554 </v>
   <v>       0.33283231       0.99997304       0.66655164 </v>
   <v>       0.33282792       0.33351307       0.00018204 </v>
   <v>       0.33308764       0.33331235       0.33347070 </v>
   <v>       0.33310764       0.33325671       0.66671698 </v>
   <v>       0.33243573       0.66649562       0.99986187 </v>
   <v>       0.33329918       0.66663613       0.33322443 </v>
   <v>       0.33330639       0.66658357       0.66637462 </v>
   <v>       0.68610966       0.99959649       0.00009264 </v>
   <v>       0.66619132       0.99960564       0.33378587 </v>
   <v>       0.66641503       0.00003939       0.66658228 </v>
   <v>       0.66604901       0.33339307       0.00001283 </v>
   <v>       0.66622869       0.33298429       0.33347121 </v>
   <v>       0.66616750       0.33359241       0.66630072 </v>
   <v>       0.66600096       0.66623338       0.00020112 </v>
   <v>       0.66640883       0.66593285       0.33391299 </v>
   <v>       0.66646885       0.66657735       0.66659587 </v>
   <v>       0.17293442       0.17255203       0.17282264 </v>
   <v>       0.16620731       0.16645466       0.50044411 </v>
   <v>       0.17315382       0.17270159       0.82743171 </v>
   <v>       0.16602692       0.49965793       0.16680650 </v>
   <v>       0.16638774       0.49990471       0.49993705 </v>
   <v>       0.16597715       0.49986973       0.83332310 </v>
   <v>       0.17294627       0.82692638       0.17226361 </v>
   <v>       0.16625597       0.83311863       0.49955474 </v>
   <v>       0.17302844       0.82694948       0.82725323 </v>
   <v>       0.49975924       0.16664377       0.16686920 </v>
   <v>       0.49947667       0.16644776       0.50010908 </v>
   <v>       0.49996755       0.16673038       0.83329604 </v>
   <v>       0.49913196       0.49992406       0.16683519 </v>
   <v>       0.49978438       0.49988483       0.50004850 </v>
   <v>       0.49919842       0.49981705       0.83323741 </v>
   <v>       0.50014131       0.83333474       0.16672774 </v>
   <v>       0.49942365       0.83331527       0.50015158 </v>
   <v>       0.50021838       0.83339240       0.83334699 </v>
   <v>       0.82695746       0.17236662       0.17305527 </v>
   <v>       0.83281473       0.16621307       0.49987679 </v>
   <v>       0.82685061       0.17307956       0.82699471 </v>
   <v>       0.83249137       0.49856142       0.16677612 </v>
   <v>       0.83326365       0.49999499       0.50000684 </v>
   <v>       0.83239732       0.49996313       0.83322535 </v>
   <v>       0.82679025       0.82601746       0.17308720 </v>
   <v>       0.83281872       0.83318798       0.50047184 </v>
   <v>       0.82719128       0.82664525       0.82751295 </v>
  </varray>
 </structure>
</modeling>
