 vasp.6.5.1 10Mar25 (build May 13 2025 11:33:44) complex                         
 executed on              LinuxNV date 2026.05.13  15:10:30
 running    2 mpi-ranks, on    1 nodes
 distrk:  each k-point on    2 cores,    1 groups
 distr:  one band on NCORE=   1 cores,    2 groups
 Offloading initialized ...    2 GPUs detected


--------------------------------------------------------------------------------------------------------


 INCAR:
   ALGO = Normal
   PREC = Normal
   LREAL = Auto
   EDIFF = 1e-05
   ENCUT = 262.472
   LASPH = True
   NELM = 100
   ISIF = 2
   IBRION = 2
   EDIFFG = -0.03
   NSW = 300
   ISMEAR = 0
   SIGMA = 0.1
   ISPIN = 2
   LWAVE = False
   LCHARG = False
   LORBIT = 10
   GGA = Ps
   NELECT = 424.0
   KPAR = 1

 POTCAR:    PAW_PBE Cs_sv 08Apr2002               
 POTCAR:    PAW_PBE Cl 06Sep2000                  
 -----------------------------------------------------------------------------
|                                                                             |
|           W    W    AA    RRRRR   N    N  II  N    N   GGGG   !!!           |
|           W    W   A  A   R    R  NN   N  II  NN   N  G    G  !!!           |
|           W    W  A    A  R    R  N N  N  II  N N  N  G       !!!           |
|           W WW W  AAAAAA  RRRRR   N  N N  II  N  N N  G  GGG   !            |
|           WW  WW  A    A  R   R   N   NN  II  N   NN  G    G                |
|           W    W  A    A  R    R  N    N  II  N    N   GGGG   !!!           |
|                                                                             |
|     You requested a magnetic or noncollinear calculation, but did not       |
|     specify the initial magnetic moment with the MAGMOM tag. Note that      |
|     a default of 1 will be used for all atoms. This ferromagnetic setup     |
|     may break the symmetry of the crystal, in particular it may rule        |
|     out finding an antiferromagnetic solution. Thence, we recommend         |
|     setting the initial magnetic moment manually or verifying carefully     |
|     that this magnetic setup is desired.                                    |
|                                                                             |
 -----------------------------------------------------------------------------

 POTCAR:    PAW_PBE Cs_sv 08Apr2002               
   SHA256 =  c1463496f0f6037ed62c6012a8013a89ee9ad6ffb38599dcd6c079e7ed31779b Cs_sv/POTCAR          
   COPYR  = (c) Copyright 08Apr2002 Georg Kresse                                                    
   COPYR  = This file is part of the software VASP. Any use, copying, and all other rights are regul
   COPYR  = If you do not have a valid VASP license, you may not use, copy or distribute this file. 
   VRHFIN =Cs: 5s5p6s                                                                               
   LEXCH  = PE                                                                                      
   EATOM  =   555.6835 eV,   40.8416 Ry                                                             
                                                                                                    
   TITEL  = PAW_PBE Cs_sv 08Apr2002                                                                 
   LULTRA =        F    use ultrasoft PP ?                                                          
   IUNSCR =        1    unscreen: 0-lin 1-nonlin 2-no                                               
   RPACOR =    2.200    partial core radius                                                         
   POMASS =  132.900; ZVAL   =    9.000    mass and valenz                                          
   RCORE  =    2.500    outmost cutoff radius                                                       
   RWIGS  =    2.500; RWIGS  =    1.323    wigner-seitz radius (au A)                               
   ENMAX  =  220.318; ENMIN  =  165.238 eV                                                          
   RCLOC  =    2.207    cutoff for local pot                                                        
   LCOR   =        T    correct aug charges                                                         
   LPAW   =        T    paw PP                                                                      
   EAUG   =  407.933                                                                                
   DEXC   =    0.000                                                                                
   RMAX   =    2.554    core radius for proj-oper                                                   
   RAUG   =    1.300    factor for augmentation sphere                                              
   RDEP   =    2.590    radius for radial grids                                                     
   RDEPT  =    2.117    core radius for aug-charge                                                  
                                                                                                    
   Atomic configuration                                                                             
   13 entries                                                                                       
     n  l   j            E        occ.                                                              
     1  0  0.50    -35790.1377   2.0000                                                             
     2  0  0.50     -5613.6201   2.0000                                                             
     2  1  1.50     -5035.0101   6.0000                                                             
     3  0  0.50     -1167.0767   2.0000                                                             
     3  1  1.50      -980.9754   6.0000                                                             
     3  2  2.50      -708.0703  10.0000                                                             
     4  0  0.50      -220.2386   2.0000                                                             
     4  1  1.50      -160.7596   6.0000                                                             
     4  2  2.50       -74.2354  10.0000                                                             
     5  0  0.50       -26.7287   2.0000                                                             
     6  0  0.50        -2.0862   1.0000                                                             
     5  1  1.50       -13.5159   6.0000                                                             
     5  2  2.50        -0.4136   0.0000                                                             
   Description                                                                                      
     l       E           TYP  RCUT    TYP  RCUT                                                     
     0    -26.7287425     23  1.900                                                                 
     0     -2.0862306     23  1.900                                                                 
     1    -13.5158719     23  2.500                                                                 
     1     -2.7211652     23  2.500                                                                 
     2     -0.4136171     23  2.500                                                                 
  local pseudopotential read in
  partial core-charges read in
  partial kinetic energy density read in
  atomic valenz-charges read in
  non local Contribution for L=            0  read in
    real space projection operators read in
  non local Contribution for L=            0  read in
    real space projection operators read in
  non local Contribution for L=            1  read in
    real space projection operators read in
  non local Contribution for L=            1  read in
    real space projection operators read in
  non local Contribution for L=            2  read in
    real space projection operators read in
    PAW grid and wavefunctions read in
 
   number of l-projection  operators is LMAX  =            5
   number of lm-projection operators is LMMAX =           13
 
 POTCAR:    PAW_PBE Cl 06Sep2000                  
   SHA256 =  9f1b6e6ed4247ac726a768b330d26d7667cc3c95a39ff49c1d064c2d9dcce931 Cl/POTCAR             
   COPYR  = (c) Copyright 06Sep2000 Georg Kresse                                                    
   COPYR  = This file is part of the software VASP. Any use, copying, and all other rights are regul
   COPYR  = If you do not have a valid VASP license, you may not use, copy or distribute this file. 
   VRHFIN =Cl: s2p5                                                                                 
   LEXCH  = PE                                                                                      
   EATOM  =   409.7259 eV,   30.1140 Ry                                                             
                                                                                                    
   TITEL  = PAW_PBE Cl 06Sep2000                                                                    
   LULTRA =        F    use ultrasoft PP ?                                                          
   IUNSCR =        1    unscreen: 0-lin 1-nonlin 2-no                                               
   RPACOR =    1.500    partial core radius                                                         
   POMASS =   35.453; ZVAL   =    7.000    mass and valenz                                          
   RCORE  =    1.900    outmost cutoff radius                                                       
   RWIGS  =    2.100; RWIGS  =    1.111    wigner-seitz radius (au A)                               
   ENMAX  =  262.472; ENMIN  =  196.854 eV                                                          
   ICORE  =        2    local potential                                                             
   LCOR   =        T    correct aug charges                                                         
   LPAW   =        T    paw PP                                                                      
   EAUG   =  356.192                                                                                
   DEXC   =    0.000                                                                                
   RMAX   =    1.945    core radius for proj-oper                                                   
   RAUG   =    1.300    factor for augmentation sphere                                              
   RDEP   =    2.020    radius for radial grids                                                     
   RDEPT  =    1.678    core radius for aug-charge                                                  
                                                                                                    
   Atomic configuration                                                                             
    6 entries                                                                                       
     n  l   j            E        occ.                                                              
     1  0  0.50     -2751.1850   2.0000                                                             
     2  0  0.50      -252.6861   2.0000                                                             
     2  1  1.50      -191.6157   6.0000                                                             
     3  0  0.50       -20.6916   2.0000                                                             
     3  1  0.50        -8.5949   5.0000                                                             
     3  2  1.50        -8.1635   0.0000                                                             
   Description                                                                                      
     l       E           TYP  RCUT    TYP  RCUT                                                     
     0    -20.6915656     23  1.900                                                                 
     0    -22.0521482     23  1.900                                                                 
     1     -8.5948577     23  1.900                                                                 
     1     -5.3847331     23  1.900                                                                 
     2     -8.1634956     23  1.900                                                                 
  local pseudopotential read in
  partial core-charges read in
  partial kinetic energy density read in
  atomic valenz-charges read in
  non local Contribution for L=            0  read in
    real space projection operators read in
  non local Contribution for L=            0  read in
    real space projection operators read in
  non local Contribution for L=            1  read in
    real space projection operators read in
  non local Contribution for L=            1  read in
    real space projection operators read in
    PAW grid and wavefunctions read in
 
   number of l-projection  operators is LMAX  =            4
   number of lm-projection operators is LMMAX =            8
 
 Optimization of the real space projectors (new method)

 maximal supplied QI-value         = 15.12
 optimisation between [QCUT,QGAM] = [  8.16, 16.48] = [ 18.66, 76.04] Ry 
 Optimized for a Real-space Cutoff    1.70 Angstroem

   l    n(q)    QCUT    max X(q) W(low)/X(q) W(high)/X(q)  e(spline) 
   0      8     8.164    25.322    0.15E-03    0.18E-03    0.41E-06
   0      8     8.164    99.187    0.15E-03    0.17E-03    0.40E-06
   1      8     8.164    11.761    0.31E-03    0.25E-03    0.22E-06
   1      8     8.164     8.275    0.36E-03    0.24E-03    0.25E-06
   2      7     8.164     3.829    0.38E-03    0.57E-03    0.14E-06
 Optimization of the real space projectors (new method)

 maximal supplied QI-value         = 19.84
 optimisation between [QCUT,QGAM] = [  8.14, 16.47] = [ 18.53, 75.95] Ry 
 Optimized for a Real-space Cutoff    1.51 Angstroem

   l    n(q)    QCUT    max X(q) W(low)/X(q) W(high)/X(q)  e(spline) 
   0      7     8.135   168.010    0.81E-04    0.25E-03    0.15E-06
   0      7     8.135   164.674    0.79E-04    0.25E-03    0.14E-06
   1      7     8.135    69.222    0.47E-03    0.95E-03    0.99E-07
   1      7     8.135    56.786    0.47E-03    0.93E-03    0.97E-07
 -----------------------------------------------------------------------------
|                                                                             |
|               ----> ADVICE to this user running VASP <----                  |
|                                                                             |
|     You enforced a specific xc type in the INCAR file but a different       |
|     type was found in the POTCAR file.                                      |
|     I HOPE YOU KNOW WHAT YOU ARE DOING!                                     |
|                                                                             |
 -----------------------------------------------------------------------------

  PAW_PBE Cs_sv 08Apr2002               :
 energy of atom  1       EATOM= -555.6835
 kinetic energy error for atom=    0.0137 (will be added to EATOM!!)
  PAW_PBE Cl 06Sep2000                  :
 energy of atom  2       EATOM= -409.7259
 kinetic energy error for atom=    0.0483 (will be added to EATOM!!)
 
 
 POSCAR: Cs27 Cl26
  positions in direct lattice
  No initial velocities read in


 exchange-correlation table for PS
   RHO(1)=    0.500       N(1)  =     2000
   RHO(2)=  100.500       N(2)  =     4000
 


--------------------------------------------------------------------------------------------------------


 ion  position               nearest neighbor table
   1  0.994  0.007  0.997-
   2  0.008  0.008  0.335-
   3  0.000  0.000  0.667-
   4  1.000  0.338  0.993-
   5  0.989  0.340  0.328-
   6  0.000  0.333  0.667-
   7  0.000  0.667  0.000-
   8  0.000  0.667  0.333-
   9  0.000  0.667  0.667-
  10  0.331  0.003  0.002-
  11  0.336  0.986  0.341-
  12  0.333  0.000  0.667-
  13  0.322  0.341  0.992-
  14  0.337  0.334  0.322-
  15  0.333  0.333  0.667-
  16  0.333  0.667  0.000-
  17  0.333  0.667  0.333-
  18  0.333  0.667  0.667-
  19  0.667  0.000  0.000-
  20  0.667  0.000  0.333-
  21  0.667  0.000  0.667-
  22  0.667  0.333  0.000-
  23  0.667  0.333  0.333-
  24  0.667  0.333  0.667-
  25  0.667  0.667  0.000-
  26  0.667  0.667  0.333-
  27  0.667  0.667  0.667-
  28  0.167  0.172  0.494-
  29  0.175  0.166  0.834-
  30  0.169  0.501  0.171-
  31  0.167  0.500  0.500-
  32  0.167  0.500  0.833-
  33  0.167  0.843  0.173-
  34  0.167  0.833  0.500-
  35  0.167  0.833  0.833-
  36  0.499  0.168  0.167-
  37  0.500  0.167  0.500-
  38  0.500  0.167  0.833-
  39  0.500  0.500  0.167-
  40  0.500  0.500  0.500-
  41  0.500  0.500  0.833-
  42  0.500  0.833  0.167-
  43  0.500  0.833  0.500-
  44  0.500  0.833  0.833-
  45  0.839  0.161  0.164-
  46  0.833  0.167  0.500-
  47  0.833  0.167  0.833-
  48  0.833  0.500  0.167-
  49  0.833  0.500  0.500-
  50  0.833  0.500  0.833-
  51  0.833  0.833  0.167-
  52  0.833  0.833  0.500-
  53  0.833  0.833  0.833-
 
  LATTYP: Found a simple cubic cell.
 ALAT       =    12.2263459172
  
  Lattice vectors:
  
 A1 = (  12.2263459172,   0.0000000000,   0.0000000000)
 A2 = (   0.0000000000,  12.2263459172,   0.0000000000)
 A3 = (   0.0000000000,   0.0000000000,  12.2263459172)


Analysis of symmetry for initial positions (statically):
=====================================================================
 Subroutine PRICEL returns:
 Original cell was already a primitive cell.
 

 Routine SETGRP: Setting up the symmetry group for a 
 simple cubic supercell.


 Subroutine GETGRP returns: Found  1 space group operations
 (whereof  1 operations were pure point group operations)
 out of a pool of 48 trial point group operations.


The static configuration has the point symmetry C_1 .


Analysis of symmetry for dynamics (positions and initial velocities):
=====================================================================
 Subroutine PRICEL returns:
 Original cell was already a primitive cell.
 

 Routine SETGRP: Setting up the symmetry group for a 
 simple cubic supercell.


 Subroutine GETGRP returns: Found  1 space group operations
 (whereof  1 operations were pure point group operations)
 out of a pool of 48 trial point group operations.


The dynamic configuration has the point symmetry C_1 .


Analysis of structural, dynamic, and magnetic symmetry:
=====================================================================
 Subroutine PRICEL returns:
 Original cell was already a primitive cell.
 

 Routine SETGRP: Setting up the symmetry group for a 
 simple cubic supercell.


 Subroutine GETGRP returns: Found  1 space group operations
 (whereof  1 operations were pure point group operations)
 out of a pool of 48 trial point group operations.


The overall configuration has the point symmetry C_1 .


 Subroutine INISYM returns: Found  1 space group operations
 (whereof  1 operations are pure point group operations),
 and found     1 'primitive' translations


----------------------------------------------------------------------------------------

                                     Primitive cell                                     

  volume of cell :    1827.6374

  direct lattice vectors                    reciprocal lattice vectors
    12.226345917  0.000000000  0.000000000     0.081790586  0.000000000  0.000000000
     0.000000000 12.226345917  0.000000000     0.000000000  0.081790586  0.000000000
     0.000000000  0.000000000 12.226345917     0.000000000  0.000000000  0.081790586

  length of vectors
    12.226345917 12.226345917 12.226345917     0.081790586  0.081790586  0.081790586

  position of ions in fractional coordinates (direct lattice)
     0.994264504  0.007482135  0.997080894
     0.008212435  0.007997287  0.334850198
     0.000000000  0.000000000  0.666666667
     0.999945791  0.338222607  0.993111035
     0.989009108  0.339545254  0.327807440
     0.000000000  0.333333333  0.666666667
     0.000000000  0.666666667  0.000000000
     0.000000000  0.666666667  0.333333333
     0.000000000  0.666666667  0.666666667
     0.331351318  0.002777459  0.002337253
     0.335630415  0.986173693  0.340535481
     0.333333333  0.000000000  0.666666667
     0.321731883  0.341261016  0.992404949
     0.337429437  0.334164973  0.322479831
     0.333333333  0.333333333  0.666666667
     0.333333333  0.666666667  0.000000000
     0.333333333  0.666666667  0.333333333
     0.333333333  0.666666667  0.666666667
     0.666666667  0.000000000  0.000000000
     0.666666667  0.000000000  0.333333333
     0.666666667  0.000000000  0.666666667
     0.666666667  0.333333333  0.000000000
     0.666666667  0.333333333  0.333333333
     0.666666667  0.333333333  0.666666667
     0.666666667  0.666666667  0.000000000
     0.666666667  0.666666667  0.333333333
     0.666666667  0.666666667  0.666666667
     0.167291737  0.171716887  0.494496882
     0.175190180  0.166156411  0.833927188
     0.168527860  0.500646003  0.170764052
     0.166666667  0.500000000  0.500000000
     0.166666667  0.500000000  0.833333333
     0.166776792  0.843492256  0.172998924
     0.166666667  0.833333333  0.500000000
     0.166666667  0.833333333  0.833333333
     0.499317139  0.167553490  0.167069445
     0.500000000  0.166666667  0.500000000
     0.500000000  0.166666667  0.833333333
     0.500000000  0.500000000  0.166666667
     0.500000000  0.500000000  0.500000000
     0.500000000  0.500000000  0.833333333
     0.500000000  0.833333333  0.166666667
     0.500000000  0.833333333  0.500000000
     0.500000000  0.833333333  0.833333333
     0.838566240  0.161233279  0.164011040
     0.833333333  0.166666667  0.500000000
     0.833333333  0.166666667  0.833333333
     0.833333333  0.500000000  0.166666667
     0.833333333  0.500000000  0.500000000
     0.833333333  0.500000000  0.833333333
     0.833333333  0.833333333  0.166666667
     0.833333333  0.833333333  0.500000000
     0.833333333  0.833333333  0.833333333

  ion indices of the primitive-cell ions
   primitive index   ion index
                 1           1
                 2           2
                 3           3
                 4           4
                 5           5
                 6           6
                 7           7
                 8           8
                 9           9
                10          10
                11          11
                12          12
                13          13
                14          14
                15          15
                16          16
                17          17
                18          18
                19          19
                20          20
                21          21
                22          22
                23          23
                24          24
                25          25
                26          26
                27          27
                28          28
                29          29
                30          30
                31          31
                32          32
                33          33
                34          34
                35          35
                36          36
                37          37
                38          38
                39          39
                40          40
                41          41
                42          42
                43          43
                44          44
                45          45
                46          46
                47          47
                48          48
                49          49
                50          50
                51          51
                52          52
                53          53

----------------------------------------------------------------------------------------

 
 
 KPOINTS: Num irrep kpoints: 1                    

Automatic generation of k-mesh.
 Grid dimensions read from file:
 generate k-points for:    1    1    1

 Generating k-lattice:

  Cartesian coordinates                     Fractional coordinates (reciprocal lattice)
     0.081790586  0.000000000  0.000000000     1.000000000  0.000000000  0.000000000
     0.000000000  0.081790586  0.000000000     0.000000000  1.000000000  0.000000000
     0.000000000  0.000000000  0.081790586     0.000000000  0.000000000  1.000000000

  Length of vectors
     0.081790586  0.081790586  0.081790586

  Shift w.r.t. Gamma in fractional coordinates (k-lattice)
     0.000000000  0.000000000  0.000000000

 
 Subroutine IBZKPT returns following result:
 ===========================================
 
 Found      1 irreducible k-points:
 
 Following reciprocal coordinates:
            Coordinates               Weight
  0.000000  0.000000  0.000000      1.000000
 
 Following cartesian coordinates:
            Coordinates               Weight
  0.000000  0.000000  0.000000      1.000000
 


--------------------------------------------------------------------------------------------------------




 Dimension of arrays:
   k-points           NKPTS =      1   k-points in BZ     NKDIM =      1   number of bands    NBANDS=    282
   number of dos      NEDOS =    301   number of ions     NIONS =     53
   non local maximal  LDIM  =      5   non local SUM 2l+1 LMDIM =     13
   total plane-waves  NPLWV = 110592
   max r-space proj   IRMAX =   1304   max aug-charges    IRDMAX=   3224
   dimension x,y,z NGX =    48 NGY =   48 NGZ =   48
   dimension x,y,z NGXF=    96 NGYF=   96 NGZF=   96
   support grid    NGXF=    96 NGYF=   96 NGZF=   96
   ions per type =              27  26
   NGX,Y,Z   is equivalent  to a cutoff of   6.53,  6.53,  6.53 a.u.
   NGXF,Y,Z  is equivalent  to a cutoff of  13.05, 13.05, 13.05 a.u.

 SYSTEM =  unknown system                          
 POSCAR =  Cs27 Cl26                               

 Startparameter for this run:
   NWRITE =      2    write-flag & timer
   PREC   = normal    normal or accurate (medium, high low for compatibility)
   ISTART =      0    job   : 0-new  1-cont  2-samecut
   ICHARG =      2    charge: 1-file 2-atom 10-const
   ISPIN  =      2    spin polarized calculation?
   LNONCOLLINEAR =      F non collinear calculations
   LSORBIT =      F    spin-orbit coupling
   INIWAV =      1    electr: 0-lowe 1-rand  2-diag
   LASPH  =      T    aspherical Exc in radial PAW
 Electronic Relaxation 1
   ENCUT  =  262.5 eV  19.29 Ry    4.39 a.u.  16.15 16.15 16.15*2*pi/ulx,y,z
   ENINI  =  262.5     initial cutoff
   ENAUG  =  407.9 eV  augmentation charge cutoff
   NELM   =    100;   NELMIN=  2; NELMDL= -5     # of ELM steps 
   EDIFF  = 0.1E-04   stopping-criterion for ELM
   LREAL  =      T    real-space projection
   NLSPLINE    = F    spline interpolate recip. space projectors
   LCOMPAT=      F    compatible to vasp.4.4
   GGA_COMPAT  = T    GGA compatible to vasp.4.4-vasp.4.6
   LMAXPAW     = -100 max onsite density
   LMAXMIX     =    2 max onsite mixed and CHGCAR
   VOSKOWN=      0    Vosko Wilk Nusair interpolation
   ROPT   =   -0.00050  -0.00050
 Ionic relaxation
   EDIFFG = -.3E-01   stopping-criterion for IOM
   NSW    =    300    number of steps for IOM
   NBLOCK =      1;   KBLOCK =    300    inner block; outer block 
   IBRION =      2    ionic relax: 0-MD 1-quasi-New 2-CG
   NFREE  =      1    steps in history (QN), initial steepest desc. (CG)
   ISIF   =      2    stress and relaxation
   IWAVPR =     11    prediction:  0-non 1-charg 2-wave 3-comb
   ISYM   =      2    0-nonsym 1-usesym 2-fastsym
   LCORR  =      T    Harris-Foulkes like correction to forces

   POTIM  = 0.5000    time-step for ionic-motion
   TEIN   =    0.0    initial temperature
   TEBEG  =    0.0;   TEEND  =   0.0 temperature during run
   SMASS  =  -3.00    Nose mass-parameter (am)
   estimated Nose-frequenzy (Omega)   =  0.10E-29 period in steps = 0.13E+47 mass=  -0.342E-26a.u.
   SCALEE = 1.0000    scale energy and forces
   NPACO  =    256;   APACO  = 10.0  distance and # of slots for P.C.
   PSTRESS=    0.0 pullay stress

  Mass of Ions in am
   POMASS = 132.90 35.45
  Ionic Valenz
   ZVAL   =   9.00  7.00
  Atomic Wigner-Seitz radii
   RWIGS  =  -1.00 -1.00
  virtual crystal weights 
   VCA    =   1.00  1.00
   NELECT =     424.0000    total number of electrons
   NUPDOWN=      -1.0000    fix difference up-down

 DOS related values:
   EMIN   =  10.00;   EMAX   =-10.00  energy-range for DOS
   EFERMI =   0.00;   METHOD = LEGACY      
   ISMEAR =     0;   SIGMA  =   0.10  broadening in eV -4-tet -1-fermi 0-gaus
   EFERMI_NEDOS =   21; number of points for ismear=-14 and -15

 Electronic relaxation 2 (details)
   IALGO  =     38    algorithm
   LDIAG  =      T    sub-space diagonalisation (order eigenvalues)
   LSUBROT=      F    optimize rotation matrix (better conditioning)
   LROBUST=      F    robust break criterion during scf (extrapolated energy error)
   ISEARCH=      0    line search for conjugate gradient (0, 1=use gradient)
   TURBO    =      0    0=normal 1=particle mesh
   IRESTART =      0    0=no restart 2=restart with 2 vectors
   NREBOOT  =      0    no. of reboots
   NMIN     =      0    reboot dimension
   EREF     =   0.00    reference energy to select bands
   IMIX   =      4    mixing-type and parameters
     AMIX     =   0.40;   BMIX     =  1.00
     AMIX_MAG =   1.60;   BMIX_MAG =  1.00
     AMIN     =   0.10
     WC   =   100.;   INIMIX=   1;  MIXPRE=   1;  MAXMIX= -45

 Intra band minimization:
   WEIMIN = 0.0010     energy-eigenvalue tresh-hold
   EBREAK =  0.89E-08  absolut break condition
   DEPER  =   0.30     relativ break condition  

   TIME   =   0.40     timestep for ELM

  volume/ion in A,a.u.               =      34.48       232.71
  Fermi-wavevector in a.u.,A,eV,Ry     =   1.005928  1.900928 13.767607  1.011891
  Thomas-Fermi vector in A             =   2.138638
 
 Write flags
   LWAVE        =      F    write WAVECAR
   LDOWNSAMPLE  =      F    k-point downsampling of WAVECAR
   LCHARG       =      F    write CHGCAR
   LVTOT        =      F    write LOCPOT, total local potential
   LVHAR        =      F    write LOCPOT, Hartree potential only
   WRT_POTENTIAL= false  ! write potential to hdf5 file
   LELF         =      F    write electronic localiz. function (ELF)
   LORBIT       =     10    0 simple, 1 ext, 2 COOP (PROOUT), +10 PAW based schemes


 Python interface
   PLUGINS active      =      F    recompile with -DPLUGINS to activate
 
 Dipole corrections
   LMONO      =      F    monopole corrections only (constant potential shift)
   LDIPOL     =      F    correct potential (dipole corrections)
   IDIPOL     =      0    1-x, 2-y, 3-z, 4-all directions 
   EPSILON    =  1.0000000 bulk dielectric constant
   LVACPOTAV  =      F  vacuum potentials using an averaging scheme for the charge density
   VACPOTFLAT =  0.1000000 required flatness to determine vacuum potential
 
Coulomb truncation method
  LTRUNCATE          =      F  Coulomb kernel truncation to be used

 
 Exchange correlation treatment:
   GGA     = PS    functional components
   XC_C    = 1    coefficients multiplying the functional components
   LIBXC   =     F    Libxc                    
   VOSKOWN =     0    Vosko Wilk Nusair interpolation
   LHFCALC =     F    Hartree Fock is set to
   LHFONE  =     F    Hartree Fock one center treatment
   AEXX    =    0.0000 exact exchange contribution

 Parameters of functionals:
   PS:
     No parameter
 
 Van der Waals corrections
   IVDW    =     0    specifies the selected vdW correction

 Linear response parameters
   LEPSILON=     F    determine dielectric tensor
   LRPA    =     F    only Hartree local field effects (RPA)
   LNABLA  =     F    use nabla operator in PAW spheres
   LVEL    =     F    velocity operator in full k-point grid
   CSHIFT  =0.1000    complex shift for real part using Kramers Kronig
   OMEGAMAX=  -1.0    maximum frequency
   DEG_THRESHOLD= 0.2000000E-02 threshold for treating states as degnerate
   RTIME   =   -0.100 relaxation time in fs
  (WPLASMAI=    0.000 imaginary part of plasma frequency in eV, 0.658/RTIME)
   DFIELD  = 0.0000000 0.0000000 0.0000000 field for delta impulse in time
 
  Optional k-point grid parameters
   LKPOINTS_OPT  =     F    use optional k-point grid
   KPOINTS_OPT_MODE=     1    mode for optional k-point grid
 
 Orbital magnetization related:
   ORBITALMAG=     F  switch on orbital magnetization
   LCHIMAG   =     F  perturbation theory with respect to B field
   DQ        =  0.001000  dq finite difference perturbation B field
   LLRAUG    =     F  two centre corrections for induced B field
   LBONE     =     F  B-component reconstruction in AE one-centre
   LVGVCALC  =     T  calculate vGv susceptibility
   LVGVAPPL  =     F  apply vGv susceptibility instead of pGv for G=0

 Random number generation:
   RANDOM_GENERATOR = DEFAULT
   PCG_SEED         = not used


--------------------------------------------------------------------------------------------------------


 conjugate gradient relaxation of ions
 charge density and potential will be updated during run
 spin polarized calculation
 Variant of blocked Davidson
 Davidson routine will perform the subspace rotation
 perform sub-space diagonalisation
    after iterative eigenvector-optimisation
 modified Broyden-mixing scheme, WC =      100.0
 initial mixing is a Kerker type mixing with AMIX =  0.4000 and BMIX =      1.0000
 Hartree-type preconditioning will be used
 using additional bands            70
 real space projection scheme for non local part
 use partial core corrections
 calculate Harris-corrections to forces 
   (improved forces if not selfconsistent)
 use gradient corrections 
 use of overlap-Matrix (Vanderbilt PP)
 Gauss-broadening in eV      SIGMA  =   0.10


--------------------------------------------------------------------------------------------------------


  energy-cutoff  :      262.47
  volume of cell :     1827.64
      direct lattice vectors                 reciprocal lattice vectors
    12.226345917  0.000000000  0.000000000     0.081790586  0.000000000  0.000000000
     0.000000000 12.226345917  0.000000000     0.000000000  0.081790586  0.000000000
     0.000000000  0.000000000 12.226345917     0.000000000  0.000000000  0.081790586

  length of vectors
    12.226345917 12.226345917 12.226345917     0.081790586  0.081790586  0.081790586


 
 k-points in units of 2pi/SCALE and weight: Num irrep kpoints: 1                    
   0.00000000  0.00000000  0.00000000       1.000
 
 k-points in reciprocal lattice and weights: Num irrep kpoints: 1                    
   0.00000000  0.00000000  0.00000000       1.000
 
 position of ions in fractional coordinates (direct lattice) 
   0.99426450  0.00748214  0.99708089
   0.00821244  0.00799729  0.33485020
   0.00000000  0.00000000  0.66666667
   0.99994579  0.33822261  0.99311104
   0.98900911  0.33954525  0.32780744
   0.00000000  0.33333333  0.66666667
   0.00000000  0.66666667  0.00000000
   0.00000000  0.66666667  0.33333333
   0.00000000  0.66666667  0.66666667
   0.33135132  0.00277746  0.00233725
   0.33563042  0.98617369  0.34053548
   0.33333333  0.00000000  0.66666667
   0.32173188  0.34126102  0.99240495
   0.33742944  0.33416497  0.32247983
   0.33333333  0.33333333  0.66666667
   0.33333333  0.66666667  0.00000000
   0.33333333  0.66666667  0.33333333
   0.33333333  0.66666667  0.66666667
   0.66666667  0.00000000  0.00000000
   0.66666667  0.00000000  0.33333333
   0.66666667  0.00000000  0.66666667
   0.66666667  0.33333333  0.00000000
   0.66666667  0.33333333  0.33333333
   0.66666667  0.33333333  0.66666667
   0.66666667  0.66666667  0.00000000
   0.66666667  0.66666667  0.33333333
   0.66666667  0.66666667  0.66666667
   0.16729174  0.17171689  0.49449688
   0.17519018  0.16615641  0.83392719
   0.16852786  0.50064600  0.17076405
   0.16666667  0.50000000  0.50000000
   0.16666667  0.50000000  0.83333333
   0.16677679  0.84349226  0.17299892
   0.16666667  0.83333333  0.50000000
   0.16666667  0.83333333  0.83333333
   0.49931714  0.16755349  0.16706944
   0.50000000  0.16666667  0.50000000
   0.50000000  0.16666667  0.83333333
   0.50000000  0.50000000  0.16666667
   0.50000000  0.50000000  0.50000000
   0.50000000  0.50000000  0.83333333
   0.50000000  0.83333333  0.16666667
   0.50000000  0.83333333  0.50000000
   0.50000000  0.83333333  0.83333333
   0.83856624  0.16123328  0.16401104
   0.83333333  0.16666667  0.50000000
   0.83333333  0.16666667  0.83333333
   0.83333333  0.50000000  0.16666667
   0.83333333  0.50000000  0.50000000
   0.83333333  0.50000000  0.83333333
   0.83333333  0.83333333  0.16666667
   0.83333333  0.83333333  0.50000000
   0.83333333  0.83333333  0.83333333
 
 position of ions in cartesian coordinates  (Angst):
  12.15622176  0.09147917 12.19065592
   0.10040807  0.09777760  4.09399435
   0.00000000  0.00000000  8.15089728
  12.22568315  4.13522659 12.14211905
  12.09196748  4.15139773  4.00788716
   0.00000000  4.07544864  8.15089728
   0.00000000  8.15089728  0.00000000
   0.00000000  8.15089728  4.07544864
   0.00000000  8.15089728  8.15089728
   4.05121584  0.03395818  0.02857606
   4.10353356 12.05730070  4.16350459
   4.07544864  0.00000000  8.15089728
   3.93360530  4.17237523 12.13348620
   4.12552903  4.08561656  3.94274996
   4.07544864  4.07544864  8.15089728
   4.07544864  8.15089728  0.00000000
   4.07544864  8.15089728  4.07544864
   4.07544864  8.15089728  8.15089728
   8.15089728  0.00000000  0.00000000
   8.15089728  0.00000000  4.07544864
   8.15089728  0.00000000  8.15089728
   8.15089728  4.07544864  0.00000000
   8.15089728  4.07544864  4.07544864
   8.15089728  4.07544864  8.15089728
   8.15089728  8.15089728  0.00000000
   8.15089728  8.15089728  4.07544864
   8.15089728  8.15089728  8.15089728
   2.04536665  2.09947007  6.04588993
   2.14193575  2.03148575 10.19588227
   2.06047991  6.12107122  2.08782036
   2.03772432  6.11317296  6.11317296
   2.03772432  6.11317296 10.18862160
   2.03907075 10.31282810  2.11514469
   2.03772432 10.18862160  6.11317296
   2.03772432 10.18862160 10.18862160
   6.10482407  2.04856693  2.04264883
   6.11317296  2.03772432  6.11317296
   6.11317296  2.03772432 10.18862160
   6.11317296  6.11317296  2.03772432
   6.11317296  6.11317296  6.11317296
   6.11317296  6.11317296 10.18862160
   6.11317296 10.18862160  2.03772432
   6.11317296 10.18862160  6.11317296
   6.11317296 10.18862160 10.18862160
  10.25260093  1.97129385  2.00525571
  10.18862160  2.03772432  6.11317296
  10.18862160  2.03772432 10.18862160
  10.18862160  6.11317296  2.03772432
  10.18862160  6.11317296  6.11317296
  10.18862160  6.11317296 10.18862160
  10.18862160 10.18862160  2.03772432
  10.18862160 10.18862160  6.11317296
  10.18862160 10.18862160 10.18862160
 


--------------------------------------------------------------------------------------------------------


 k-point     1 :   0.0000 0.0000 0.0000  plane waves:   17557

 maximum and minimum number of plane-waves per node :     17557    17557

 maximum number of plane-waves:     17557
 maximum index in each direction: 
   IXMAX=   16   IYMAX=   16   IZMAX=   16
   IXMIN=  -16   IYMIN=  -16   IZMIN=  -16


 serial   3D FFT for wavefunctions
 parallel 3D FFT for charge:
    minimum data exchange during FFTs selected (reduces bandwidth)


 total amount of memory used by VASP MPI-rank0   179556. kBytes
=======================================================================

   base                                    :      30000. kBytes
   nonlr-proj                              :       6451. kBytes
   fftplans                                :      15598. kBytes
   grid                                    :      44900. kBytes
   one-center                              :        859. kBytes
   wavefun                                 :      81748. kBytes
 
     INWAV:  cpu time      0.0001: real time      0.0002
 Broyden mixing: mesh for mixing (old mesh)
   NGX = 33   NGY = 33   NGZ = 33
  (NGX  = 96   NGY  = 96   NGZ  = 96)
  gives a total of  35937 points

 initial charge density was supplied:
 charge density of overlapping atoms calculated
 number of electron     425.0000000 magnetization      53.0000000
 keeping initial charge density in first step


--------------------------------------------------------------------------------------------------------


 Maximum index for non-local projection operator          1230
 Maximum index for augmentation-charges          1495 (set IRDMAX)


--------------------------------------------------------------------------------------------------------


 First call to EWALD:  gamma=   0.145
 Maximum number of real-space cells   3x   3x   3
 Maximum number of reciprocal cells   3x   3x   3

    FEWALD:  cpu time      0.0421: real time      0.0423


--------------------------------------- Ionic step        1  -------------------------------------------




--------------------------------------- Iteration      1(   1)  ---------------------------------------


    POTLOK:  cpu time      0.4374: real time      0.4700
    SETDIJ:  cpu time      2.4162: real time      2.4231
     EDDAV:  cpu time      0.6030: real time      0.9573
       DOS:  cpu time      0.0005: real time      0.0005
    --------------------------------------------
      LOOP:  cpu time      3.4571: real time      3.8508

 eigenvalue-minimisations  :  1128
 total energy-change (2. order) : 0.2334158E+04  (-0.1223177E+05)
 number of electron     425.0000000 magnetization      53.0000000
 augmentation part      425.0000000 magnetization      53.0000000

 Free energy of the ion-electron system (eV)
  ---------------------------------------------------
  alpha Z        PSCENC =      1436.48757412
  Ewald energy   TEWEN  =    -21813.34278416
  -Hartree energ DENC   =     -3540.62809052
  -exchange      EXHF   =         0.00000000
  -V(xc)+E(xc)   XCENC  =       832.66554279
  PAW double counting   =     19905.73909771   -19710.81889590
  entropy T*S    EENTRO =        -0.08671016
  eigenvalues    EBANDS =      -405.86528534
  atomic energy  EATOM  =     25630.00721240
  Solvation  Ediel_sol  =         0.00000000
  ---------------------------------------------------
  free energy    TOTEN  =      2334.15766094 eV

  energy without entropy =     2334.24437110  energy(sigma->0) =     2334.20101602


--------------------------------------------------------------------------------------------------------




--------------------------------------- Iteration      1(   2)  ---------------------------------------


     EDDAV:  cpu time      0.5472: real time      0.5487
       DOS:  cpu time      0.0003: real time      0.0003
    --------------------------------------------
      LOOP:  cpu time      0.5475: real time      0.5490

 eigenvalue-minimisations  :  1404
 total energy-change (2. order) :-0.2304481E+04  (-0.2228062E+04)
 number of electron     425.0000000 magnetization      53.0000000
 augmentation part      425.0000000 magnetization      53.0000000

 Free energy of the ion-electron system (eV)
  ---------------------------------------------------
  alpha Z        PSCENC =      1436.48757412
  Ewald energy   TEWEN  =    -21813.34278416
  -Hartree energ DENC   =     -3540.62809052
  -exchange      EXHF   =         0.00000000
  -V(xc)+E(xc)   XCENC  =       832.66554279
  PAW double counting   =     19905.73909771   -19710.81889590
  entropy T*S    EENTRO =        -0.00000000
  eigenvalues    EBANDS =     -2710.43255576
  atomic energy  EATOM  =     25630.00721240
  Solvation  Ediel_sol  =         0.00000000
  ---------------------------------------------------
  free energy    TOTEN  =        29.67710069 eV

  energy without entropy =       29.67710069  energy(sigma->0) =       29.67710069


--------------------------------------------------------------------------------------------------------




--------------------------------------- Iteration      1(   3)  ---------------------------------------


     EDDAV:  cpu time      0.5383: real time      0.5400
       DOS:  cpu time      0.0003: real time      0.0003
    --------------------------------------------
      LOOP:  cpu time      0.5386: real time      0.5403

 eigenvalue-minimisations  :  1360
 total energy-change (2. order) :-0.2088354E+03  (-0.2079540E+03)
 number of electron     425.0000000 magnetization      53.0000000
 augmentation part      425.0000000 magnetization      53.0000000

 Free energy of the ion-electron system (eV)
  ---------------------------------------------------
  alpha Z        PSCENC =      1436.48757412
  Ewald energy   TEWEN  =    -21813.34278416
  -Hartree energ DENC   =     -3540.62809052
  -exchange      EXHF   =         0.00000000
  -V(xc)+E(xc)   XCENC  =       832.66554279
  PAW double counting   =     19905.73909771   -19710.81889590
  entropy T*S    EENTRO =        -0.00000000
  eigenvalues    EBANDS =     -2919.26793078
  atomic energy  EATOM  =     25630.00721240
  Solvation  Ediel_sol  =         0.00000000
  ---------------------------------------------------
  free energy    TOTEN  =      -179.15827433 eV

  energy without entropy =     -179.15827433  energy(sigma->0) =     -179.15827433


--------------------------------------------------------------------------------------------------------




--------------------------------------- Iteration      1(   4)  ---------------------------------------


     EDDAV:  cpu time      0.5304: real time      0.5321
       DOS:  cpu time      0.0003: real time      0.0003
    --------------------------------------------
      LOOP:  cpu time      0.5307: real time      0.5324

 eigenvalue-minimisations  :  1336
 total energy-change (2. order) :-0.3151875E+01  (-0.3145782E+01)
 number of electron     425.0000000 magnetization      53.0000000
 augmentation part      425.0000000 magnetization      53.0000000

 Free energy of the ion-electron system (eV)
  ---------------------------------------------------
  alpha Z        PSCENC =      1436.48757412
  Ewald energy   TEWEN  =    -21813.34278416
  -Hartree energ DENC   =     -3540.62809052
  -exchange      EXHF   =         0.00000000
  -V(xc)+E(xc)   XCENC  =       832.66554279
  PAW double counting   =     19905.73909771   -19710.81889590
  entropy T*S    EENTRO =        -0.00000000
  eigenvalues    EBANDS =     -2922.41980561
  atomic energy  EATOM  =     25630.00721240
  Solvation  Ediel_sol  =         0.00000000
  ---------------------------------------------------
  free energy    TOTEN  =      -182.31014916 eV

  energy without entropy =     -182.31014916  energy(sigma->0) =     -182.31014916


--------------------------------------------------------------------------------------------------------




--------------------------------------- Iteration      1(   5)  ---------------------------------------


     EDDAV:  cpu time      0.5265: real time      0.5282
       DOS:  cpu time      0.0003: real time      0.0003
    CHARGE:  cpu time      0.0542: real time      0.0551
    MIXING:  cpu time      0.0107: real time      0.0107
    --------------------------------------------
      LOOP:  cpu time      0.5917: real time      0.5942

 eigenvalue-minimisations  :  1328
 total energy-change (2. order) :-0.6033545E-01  (-0.6029792E-01)
 number of electron     423.9999849 magnetization      35.2833653
 augmentation part      -78.6033368 magnetization      35.1505481

 Broyden mixing:
  rms(total) = 0.25458E+01    rms(broyden)= 0.25452E+01
  rms(prec ) = 0.28144E+01
  weight for this iteration     100.00

 Free energy of the ion-electron system (eV)
  ---------------------------------------------------
  alpha Z        PSCENC =      1436.48757412
  Ewald energy   TEWEN  =    -21813.34278416
  -Hartree energ DENC   =     -3540.62809052
  -exchange      EXHF   =         0.00000000
  -V(xc)+E(xc)   XCENC  =       832.66554279
  PAW double counting   =     19905.73909771   -19710.81889590
  entropy T*S    EENTRO =        -0.00000000
  eigenvalues    EBANDS =     -2922.48014106
  atomic energy  EATOM  =     25630.00721240
  Solvation  Ediel_sol  =         0.00000000
  ---------------------------------------------------
  free energy    TOTEN  =      -182.37048461 eV

  energy without entropy =     -182.37048461  energy(sigma->0) =     -182.37048461


--------------------------------------------------------------------------------------------------------




--------------------------------------- Iteration      1(   6)  ---------------------------------------


    POTLOK:  cpu time      0.0093: real time      0.0095
    SETDIJ:  cpu time      2.3988: real time      2.4040
     EDDAV:  cpu time      0.5147: real time      0.5160
       DOS:  cpu time      0.0003: real time      0.0003
    CHARGE:  cpu time      0.0485: real time      0.0486
    MIXING:  cpu time      0.0108: real time      0.0108
    --------------------------------------------
      LOOP:  cpu time      2.9825: real time      2.9893

 eigenvalue-minimisations  :  1280
 total energy-change (2. order) : 0.5868563E+01  (-0.3081207E+01)
 number of electron     423.9999893 magnetization      23.6084545
 augmentation part      -78.4800756 magnetization      24.2285033

 Broyden mixing:
  rms(total) = 0.13970E+01    rms(broyden)= 0.13966E+01
  rms(prec ) = 0.14975E+01
  weight for this iteration     100.00

 eigenvalues of (default mixing * dielectric matrix)
  average eigenvalue GAMMA=   0.8475
  0.8475

 Free energy of the ion-electron system (eV)
  ---------------------------------------------------
  alpha Z        PSCENC =      1436.48757412
  Ewald energy   TEWEN  =    -21813.34278416
  -Hartree energ DENC   =     -3629.26187216
  -exchange      EXHF   =         0.00000000
  -V(xc)+E(xc)   XCENC  =       839.81607029
  PAW double counting   =     21298.32168869   -21105.81731217
  entropy T*S    EENTRO =        -0.00000000
  eigenvalues    EBANDS =     -2832.71249824
  atomic energy  EATOM  =     25630.00721240
  Solvation  Ediel_sol  =         0.00000000
  ---------------------------------------------------
  free energy    TOTEN  =      -176.50192123 eV

  energy without entropy =     -176.50192123  energy(sigma->0) =     -176.50192123


--------------------------------------------------------------------------------------------------------




--------------------------------------- Iteration      1(   7)  ---------------------------------------


    POTLOK:  cpu time      0.0096: real time      0.0098
    SETDIJ:  cpu time      2.2830: real time      2.2881
     EDDAV:  cpu time      0.5422: real time      0.7298
       DOS:  cpu time      0.0003: real time      0.0003
    CHARGE:  cpu time      0.0483: real time      0.0484
    MIXING:  cpu time      0.0262: real time      0.1992
    --------------------------------------------
      LOOP:  cpu time      2.9096: real time      3.2756

 eigenvalue-minimisations  :  1320
 total energy-change (2. order) :-0.2602987E+01  (-0.5793509E+00)
 number of electron     423.9999914 magnetization      12.4612394
 augmentation part      -78.6619823 magnetization      12.9073224

 Broyden mixing:
  rms(total) = 0.95836E+00    rms(broyden)= 0.95831E+00
  rms(prec ) = 0.10090E+01
  weight for this iteration     100.00

 eigenvalues of (default mixing * dielectric matrix)
  average eigenvalue GAMMA=   0.8773
  1.0218  0.7328

 Free energy of the ion-electron system (eV)
  ---------------------------------------------------
  alpha Z        PSCENC =      1436.48757412
  Ewald energy   TEWEN  =    -21813.34278416
  -Hartree energ DENC   =     -3652.15566374
  -exchange      EXHF   =         0.00000000
  -V(xc)+E(xc)   XCENC  =       837.97866030
  PAW double counting   =     22444.15302615   -22252.75779584
  entropy T*S    EENTRO =        -0.00000000
  eigenvalues    EBANDS =     -2809.47513769
  atomic energy  EATOM  =     25630.00721240
  Solvation  Ediel_sol  =         0.00000000
  ---------------------------------------------------
  free energy    TOTEN  =      -179.10490844 eV

  energy without entropy =     -179.10490844  energy(sigma->0) =     -179.10490844


--------------------------------------------------------------------------------------------------------




--------------------------------------- Iteration      1(   8)  ---------------------------------------


    POTLOK:  cpu time      0.0113: real time      0.0117
    SETDIJ:  cpu time      2.2707: real time      2.2755
     EDDAV:  cpu time      0.5349: real time      0.5361
       DOS:  cpu time      0.0003: real time      0.0003
    CHARGE:  cpu time      0.0477: real time      0.0479
    MIXING:  cpu time      0.0113: real time      0.0128
    --------------------------------------------
      LOOP:  cpu time      2.8762: real time      2.8843

 eigenvalue-minimisations  :  1360
 total energy-change (2. order) :-0.2032144E+01  (-0.1305833E+00)
 number of electron     423.9999921 magnetization       3.0557779
 augmentation part      -78.6931526 magnetization       3.2966236

 Broyden mixing:
  rms(total) = 0.51051E+00    rms(broyden)= 0.51049E+00
  rms(prec ) = 0.53789E+00
  weight for this iteration     100.00

 eigenvalues of (default mixing * dielectric matrix)
  average eigenvalue GAMMA=   1.3743
  2.5722  0.9382  0.6125

 Free energy of the ion-electron system (eV)
  ---------------------------------------------------
  alpha Z        PSCENC =      1436.48757412
  Ewald energy   TEWEN  =    -21813.34278416
  -Hartree energ DENC   =     -3666.91048460
  -exchange      EXHF   =         0.00000000
  -V(xc)+E(xc)   XCENC  =       838.42489626
  PAW double counting   =     23530.10514199   -23340.63574466
  entropy T*S    EENTRO =        -0.00000000
  eigenvalues    EBANDS =     -2795.27286337
  atomic energy  EATOM  =     25630.00721240
  Solvation  Ediel_sol  =         0.00000000
  ---------------------------------------------------
  free energy    TOTEN  =      -181.13705201 eV

  energy without entropy =     -181.13705201  energy(sigma->0) =     -181.13705201


--------------------------------------------------------------------------------------------------------




--------------------------------------- Iteration      1(   9)  ---------------------------------------


    POTLOK:  cpu time      0.0093: real time      0.0097
    SETDIJ:  cpu time      2.2230: real time      2.2317
     EDDAV:  cpu time      0.5473: real time      0.5486
       DOS:  cpu time      0.0003: real time      0.0003
    CHARGE:  cpu time      0.0482: real time      0.0484
    MIXING:  cpu time      0.0185: real time      0.0535
    --------------------------------------------
      LOOP:  cpu time      2.8466: real time      2.8921

 eigenvalue-minimisations  :  1400
 total energy-change (2. order) :-0.9994832E+00  (-0.6904347E-01)
 number of electron     423.9999922 magnetization       1.8760687
 augmentation part      -78.7490817 magnetization       1.9687164

 Broyden mixing:
  rms(total) = 0.12076E+00    rms(broyden)= 0.12074E+00
  rms(prec ) = 0.14093E+00
  weight for this iteration     100.00

 eigenvalues of (default mixing * dielectric matrix)
  average eigenvalue GAMMA=   1.2741
  2.5132  1.1434  0.8080  0.6316

 Free energy of the ion-electron system (eV)
  ---------------------------------------------------
  alpha Z        PSCENC =      1436.48757412
  Ewald energy   TEWEN  =    -21813.34278416
  -Hartree energ DENC   =     -3671.43380508
  -exchange      EXHF   =         0.00000000
  -V(xc)+E(xc)   XCENC  =       838.65783344
  PAW double counting   =     24354.76682109   -24166.69219960
  entropy T*S    EENTRO =        -0.00000000
  eigenvalues    EBANDS =     -2790.58718738
  atomic energy  EATOM  =     25630.00721240
  Solvation  Ediel_sol  =         0.00000000
  ---------------------------------------------------
  free energy    TOTEN  =      -182.13653517 eV

  energy without entropy =     -182.13653517  energy(sigma->0) =     -182.13653517


--------------------------------------------------------------------------------------------------------




--------------------------------------- Iteration      1(  10)  ---------------------------------------


    POTLOK:  cpu time      0.0104: real time      0.0108
    SETDIJ:  cpu time      2.2208: real time      2.2256
     EDDAV:  cpu time      0.5261: real time      0.5274
       DOS:  cpu time      0.0003: real time      0.0003
    CHARGE:  cpu time      0.0482: real time      0.0483
    MIXING:  cpu time      0.0124: real time      0.0125
    --------------------------------------------
      LOOP:  cpu time      2.8181: real time      2.8248

 eigenvalue-minimisations  :  1320
 total energy-change (2. order) :-0.9103316E-01  (-0.1003478E-01)
 number of electron     423.9999919 magnetization       1.0402035
 augmentation part      -78.7661020 magnetization       1.0814937

 Broyden mixing:
  rms(total) = 0.79667E-01    rms(broyden)= 0.79652E-01
  rms(prec ) = 0.92965E-01
  weight for this iteration     100.00

 eigenvalues of (default mixing * dielectric matrix)
  average eigenvalue GAMMA=   1.2229
  2.3383  1.4706  0.6253  0.8324  0.8481

 Free energy of the ion-electron system (eV)
  ---------------------------------------------------
  alpha Z        PSCENC =      1436.48757412
  Ewald energy   TEWEN  =    -21813.34278416
  -Hartree energ DENC   =     -3669.40258306
  -exchange      EXHF   =         0.00000000
  -V(xc)+E(xc)   XCENC  =       838.43588529
  PAW double counting   =     24308.61564830   -24120.65031818
  entropy T*S    EENTRO =        -0.00000000
  eigenvalues    EBANDS =     -2792.37820305
  atomic energy  EATOM  =     25630.00721240
  Solvation  Ediel_sol  =         0.00000000
  ---------------------------------------------------
  free energy    TOTEN  =      -182.22756833 eV

  energy without entropy =     -182.22756833  energy(sigma->0) =     -182.22756833


--------------------------------------------------------------------------------------------------------




--------------------------------------- Iteration      1(  11)  ---------------------------------------


    POTLOK:  cpu time      0.0095: real time      0.0098
    SETDIJ:  cpu time      2.0049: real time      2.0114
     EDDAV:  cpu time      0.5400: real time      0.5422
       DOS:  cpu time      0.0004: real time      0.0004
    CHARGE:  cpu time      0.0484: real time      0.0485
    MIXING:  cpu time      0.0131: real time      0.0132
    --------------------------------------------
      LOOP:  cpu time      2.6163: real time      2.6255

 eigenvalue-minimisations  :  1368
 total energy-change (2. order) :-0.2580199E-01  (-0.1461462E-02)
 number of electron     423.9999919 magnetization      -0.0973342
 augmentation part      -78.7562752 magnetization      -0.0764102

 Broyden mixing:
  rms(total) = 0.42889E-01    rms(broyden)= 0.42884E-01
  rms(prec ) = 0.53690E-01
  weight for this iteration     100.00

 eigenvalues of (default mixing * dielectric matrix)
  average eigenvalue GAMMA=   1.4425
  2.5891  2.5891  1.2777  0.8596  0.7212  0.6183

 Free energy of the ion-electron system (eV)
  ---------------------------------------------------
  alpha Z        PSCENC =      1436.48757412
  Ewald energy   TEWEN  =    -21813.34278416
  -Hartree energ DENC   =     -3670.74655059
  -exchange      EXHF   =         0.00000000
  -V(xc)+E(xc)   XCENC  =       838.50205043
  PAW double counting   =     24237.44059491   -24049.59170830
  entropy T*S    EENTRO =        -0.00000000
  eigenvalues    EBANDS =     -2791.00975914
  atomic energy  EATOM  =     25630.00721240
  Solvation  Ediel_sol  =         0.00000000
  ---------------------------------------------------
  free energy    TOTEN  =      -182.25337032 eV

  energy without entropy =     -182.25337032  energy(sigma->0) =     -182.25337032


--------------------------------------------------------------------------------------------------------




--------------------------------------- Iteration      1(  12)  ---------------------------------------


    POTLOK:  cpu time      0.0099: real time      0.0113
    SETDIJ:  cpu time      2.0090: real time      2.0137
     EDDAV:  cpu time      0.5228: real time      0.5240
       DOS:  cpu time      0.0003: real time      0.0003
    CHARGE:  cpu time      0.0480: real time      0.0481
    MIXING:  cpu time      0.0131: real time      0.0132
    --------------------------------------------
      LOOP:  cpu time      2.6031: real time      2.6105

 eigenvalue-minimisations  :  1304
 total energy-change (2. order) :-0.1331292E-01  (-0.1790166E-02)
 number of electron     423.9999919 magnetization      -0.0922298
 augmentation part      -78.7508263 magnetization      -0.0907971

 Broyden mixing:
  rms(total) = 0.15805E-01    rms(broyden)= 0.15799E-01
  rms(prec ) = 0.20495E-01
  weight for this iteration     100.00

 eigenvalues of (default mixing * dielectric matrix)
  average eigenvalue GAMMA=   1.3612
  2.8721  2.4054  1.3351  0.8653  0.6120  0.7191  0.7191

 Free energy of the ion-electron system (eV)
  ---------------------------------------------------
  alpha Z        PSCENC =      1436.48757412
  Ewald energy   TEWEN  =    -21813.34278416
  -Hartree energ DENC   =     -3672.93014259
  -exchange      EXHF   =         0.00000000
  -V(xc)+E(xc)   XCENC  =       838.62801229
  PAW double counting   =     24180.60250908   -23992.87401034
  entropy T*S    EENTRO =        -0.00000000
  eigenvalues    EBANDS =     -2788.84505405
  atomic energy  EATOM  =     25630.00721240
  Solvation  Ediel_sol  =         0.00000000
  ---------------------------------------------------
  free energy    TOTEN  =      -182.26668324 eV

  energy without entropy =     -182.26668324  energy(sigma->0) =     -182.26668324


--------------------------------------------------------------------------------------------------------




--------------------------------------- Iteration      1(  13)  ---------------------------------------


    POTLOK:  cpu time      0.0098: real time      0.0101
    SETDIJ:  cpu time      2.0127: real time      2.0169
     EDDAV:  cpu time      0.5315: real time      0.5327
       DOS:  cpu time      0.0003: real time      0.0003
    CHARGE:  cpu time      0.0481: real time      0.0482
    MIXING:  cpu time      0.0135: real time      0.0136
    --------------------------------------------
      LOOP:  cpu time      2.6159: real time      2.6218

 eigenvalue-minimisations  :  1336
 total energy-change (2. order) :-0.5451955E-03  (-0.2931619E-03)
 number of electron     423.9999919 magnetization      -0.0887272
 augmentation part      -78.7524730 magnetization      -0.0903958

 Broyden mixing:
  rms(total) = 0.74990E-02    rms(broyden)= 0.74948E-02
  rms(prec ) = 0.12424E-01
  weight for this iteration     100.00

 eigenvalues of (default mixing * dielectric matrix)
  average eigenvalue GAMMA=   1.3326
  3.0420  2.2999  1.4348  1.0282  0.7740  0.7740  0.6123  0.6954

 Free energy of the ion-electron system (eV)
  ---------------------------------------------------
  alpha Z        PSCENC =      1436.48757412
  Ewald energy   TEWEN  =    -21813.34278416
  -Hartree energ DENC   =     -3672.89318216
  -exchange      EXHF   =         0.00000000
  -V(xc)+E(xc)   XCENC  =       838.61933982
  PAW double counting   =     24182.54365451   -23994.79337405
  entropy T*S    EENTRO =        -0.00000000
  eigenvalues    EBANDS =     -2788.89566892
  atomic energy  EATOM  =     25630.00721240
  Solvation  Ediel_sol  =         0.00000000
  ---------------------------------------------------
  free energy    TOTEN  =      -182.26722843 eV

  energy without entropy =     -182.26722843  energy(sigma->0) =     -182.26722843


--------------------------------------------------------------------------------------------------------




--------------------------------------- Iteration      1(  14)  ---------------------------------------


    POTLOK:  cpu time      0.0101: real time      0.0104
    SETDIJ:  cpu time      2.0104: real time      2.0145
     EDDAV:  cpu time      0.5219: real time      0.5232
       DOS:  cpu time      0.0003: real time      0.0003
    CHARGE:  cpu time      0.0479: real time      0.0480
    MIXING:  cpu time      0.0142: real time      0.0142
    --------------------------------------------
      LOOP:  cpu time      2.6047: real time      2.6106

 eigenvalue-minimisations  :  1312
 total energy-change (2. order) :-0.5021633E-03  (-0.2737156E-04)
 number of electron     423.9999919 magnetization      -0.0267868
 augmentation part      -78.7532144 magnetization      -0.0288539

 Broyden mixing:
  rms(total) = 0.47613E-02    rms(broyden)= 0.47611E-02
  rms(prec ) = 0.78078E-02
  weight for this iteration     100.00

 eigenvalues of (default mixing * dielectric matrix)
  average eigenvalue GAMMA=   1.3941
  3.1088  2.2111  2.2111  1.3105  0.9448  0.7766  0.6102  0.6870  0.6870

 Free energy of the ion-electron system (eV)
  ---------------------------------------------------
  alpha Z        PSCENC =      1436.48757412
  Ewald energy   TEWEN  =    -21813.34278416
  -Hartree energ DENC   =     -3672.98083784
  -exchange      EXHF   =         0.00000000
  -V(xc)+E(xc)   XCENC  =       838.61683048
  PAW double counting   =     24185.09249191   -23997.31267414
  entropy T*S    EENTRO =        -0.00000000
  eigenvalues    EBANDS =     -2788.83554339
  atomic energy  EATOM  =     25630.00721240
  Solvation  Ediel_sol  =         0.00000000
  ---------------------------------------------------
  free energy    TOTEN  =      -182.26773059 eV

  energy without entropy =     -182.26773059  energy(sigma->0) =     -182.26773059


--------------------------------------------------------------------------------------------------------




--------------------------------------- Iteration      1(  15)  ---------------------------------------


    POTLOK:  cpu time      0.0097: real time      0.0099
    SETDIJ:  cpu time      2.0069: real time      2.0117
     EDDAV:  cpu time      0.5274: real time      0.5327
       DOS:  cpu time      0.0003: real time      0.0003
    CHARGE:  cpu time      0.0484: real time      0.0485
    MIXING:  cpu time      0.0159: real time      0.0204
    --------------------------------------------
      LOOP:  cpu time      2.6085: real time      2.6235

 eigenvalue-minimisations  :  1328
 total energy-change (2. order) :-0.2918939E-03  (-0.5862408E-04)
 number of electron     423.9999919 magnetization      -0.0135403
 augmentation part      -78.7547322 magnetization      -0.0144964

 Broyden mixing:
  rms(total) = 0.22942E-02    rms(broyden)= 0.22936E-02
  rms(prec ) = 0.26985E-02
  weight for this iteration     100.00

 eigenvalues of (default mixing * dielectric matrix)
  average eigenvalue GAMMA=   1.4409
  3.4714  2.8532  2.3076  1.3601  0.9642  0.7573  0.7573  0.6108  0.6636  0.6636

 Free energy of the ion-electron system (eV)
  ---------------------------------------------------
  alpha Z        PSCENC =      1436.48757412
  Ewald energy   TEWEN  =    -21813.34278416
  -Hartree energ DENC   =     -3673.08864920
  -exchange      EXHF   =         0.00000000
  -V(xc)+E(xc)   XCENC  =       838.61106716
  PAW double counting   =     24188.00822928   -24000.19183622
  entropy T*S    EENTRO =        -0.00000000
  eigenvalues    EBANDS =     -2788.75883588
  atomic energy  EATOM  =     25630.00721240
  Solvation  Ediel_sol  =         0.00000000
  ---------------------------------------------------
  free energy    TOTEN  =      -182.26802249 eV

  energy without entropy =     -182.26802249  energy(sigma->0) =     -182.26802249


--------------------------------------------------------------------------------------------------------




--------------------------------------- Iteration      1(  16)  ---------------------------------------


    POTLOK:  cpu time      0.0098: real time      0.0101
    SETDIJ:  cpu time      2.1094: real time      2.1148
     EDDAV:  cpu time      0.5241: real time      0.5255
       DOS:  cpu time      0.0003: real time      0.0003
    CHARGE:  cpu time      0.0480: real time      0.0481
    MIXING:  cpu time      0.0159: real time      0.0160
    --------------------------------------------
      LOOP:  cpu time      2.7075: real time      2.7148

 eigenvalue-minimisations  :  1312
 total energy-change (2. order) :-0.4089549E-04  (-0.2392715E-04)
 number of electron     423.9999919 magnetization      -0.0099043
 augmentation part      -78.7550975 magnetization      -0.0102244

 Broyden mixing:
  rms(total) = 0.24528E-02    rms(broyden)= 0.24519E-02
  rms(prec ) = 0.26671E-02
  weight for this iteration     100.00

 eigenvalues of (default mixing * dielectric matrix)
  average eigenvalue GAMMA=   1.3901
  3.5829  2.8428  2.2540  1.4012  1.1033  0.8243  0.8243  0.6645  0.6258  0.5841
  0.5841

 Free energy of the ion-electron system (eV)
  ---------------------------------------------------
  alpha Z        PSCENC =      1436.48757412
  Ewald energy   TEWEN  =    -21813.34278416
  -Hartree energ DENC   =     -3673.15536649
  -exchange      EXHF   =         0.00000000
  -V(xc)+E(xc)   XCENC  =       838.61326102
  PAW double counting   =     24188.07721669   -24000.26200998
  entropy T*S    EENTRO =        -0.00000000
  eigenvalues    EBANDS =     -2788.69316700
  atomic energy  EATOM  =     25630.00721240
  Solvation  Ediel_sol  =         0.00000000
  ---------------------------------------------------
  free energy    TOTEN  =      -182.26806338 eV

  energy without entropy =     -182.26806338  energy(sigma->0) =     -182.26806338


--------------------------------------------------------------------------------------------------------




--------------------------------------- Iteration      1(  17)  ---------------------------------------


    POTLOK:  cpu time      0.0098: real time      0.0102
    SETDIJ:  cpu time      2.1131: real time      2.1182
     EDDAV:  cpu time      0.3948: real time      0.3959
       DOS:  cpu time      0.0003: real time      0.0003
    --------------------------------------------
      LOOP:  cpu time      2.5180: real time      2.5245

 eigenvalue-minimisations  :   856
 total energy-change (2. order) :-0.1026682E-05  (-0.1155048E-05)
 number of electron     423.9999919 magnetization      -0.0099043
 augmentation part      -78.7550975 magnetization      -0.0102244

 Free energy of the ion-electron system (eV)
  ---------------------------------------------------
  alpha Z        PSCENC =      1436.48757412
  Ewald energy   TEWEN  =    -21813.34278416
  -Hartree energ DENC   =     -3673.22416574
  -exchange      EXHF   =         0.00000000
  -V(xc)+E(xc)   XCENC  =       838.61697711
  PAW double counting   =     24187.46546493   -23999.65794610
  entropy T*S    EENTRO =        -0.00000000
  eigenvalues    EBANDS =     -2788.62039698
  atomic energy  EATOM  =     25630.00721240
  Solvation  Ediel_sol  =         0.00000000
  ---------------------------------------------------
  free energy    TOTEN  =      -182.26806441 eV

  energy without entropy =     -182.26806441  energy(sigma->0) =     -182.26806441


--------------------------------------------------------------------------------------------------------




 average (electrostatic) potential at core
  the test charge radii are     1.1312  0.9406
  (the norm of the test charge is              1.0000)
       1 -49.3468       2 -49.3039       3 -48.9886       4 -49.5168       5 -49.3163
       6 -48.9841       7 -49.0161       8 -48.9175       9 -48.8460      10 -49.3123
      11 -49.1942      12 -48.9118      13 -49.4071      14 -49.2399      15 -48.8730
      16 -49.0099      17 -48.9477      18 -48.8358      19 -48.9046      20 -48.8800
      21 -48.8124      22 -48.9381      23 -48.9850      24 -48.8283      25 -48.8392
      26 -48.8285      27 -48.8076      28 -93.0521      29 -93.2406      30 -93.2441
      31 -92.7704      32 -93.0442      33 -93.1390      34 -92.8999      35 -92.8623
      36 -93.0623      37 -92.7796      38 -92.7969      39 -92.8848      40 -92.7699
      41 -92.8276      42 -92.8635      43 -92.8460      44 -92.7773      45 -93.1978
      46 -92.8650      47 -92.9634      48 -92.9796      49 -92.8425      50 -92.8925
      51 -92.7878      52 -92.7521      53 -92.8144
 
 
 
 E-fermi :   0.4232     XC(G=0):  -8.3915     alpha+bet : -8.7966

 val. band max:       -0.0493819996   @ k =   0.0000   0.0000   0.0000
 cond. band min:       4.0064313571   @ k =   0.0000   0.0000   0.0000
 fundamental gap:      4.0558133568
 Fermi energy:         0.4232304315

 spin component 1

 k-point     1 :       0.0000    0.0000    0.0000
  band No.  band energies     occupation 
      1     -19.8648      1.00000
      2     -19.7365      1.00000
      3     -19.6897      1.00000
      4     -19.6597      1.00000
      5     -19.6269      1.00000
      6     -19.6116      1.00000
      7     -19.5681      1.00000
      8     -19.5213      1.00000
      9     -19.3592      1.00000
     10     -19.3328      1.00000
     11     -19.3171      1.00000
     12     -19.3111      1.00000
     13     -19.2844      1.00000
     14     -19.2727      1.00000
     15     -19.2610      1.00000
     16     -19.2399      1.00000
     17     -19.2284      1.00000
     18     -19.2193      1.00000
     19     -19.1868      1.00000
     20     -19.1806      1.00000
     21     -19.1763      1.00000
     22     -19.1648      1.00000
     23     -19.1541      1.00000
     24     -19.1225      1.00000
     25     -19.1155      1.00000
     26     -19.1021      1.00000
     27     -19.0835      1.00000
     28     -12.6255      1.00000
     29     -12.6153      1.00000
     30     -12.5712      1.00000
     31     -12.5039      1.00000
     32     -12.4370      1.00000
     33     -12.4200      1.00000
     34     -12.4053      1.00000
     35     -12.3629      1.00000
     36     -12.3444      1.00000
     37     -12.2845      1.00000
     38     -12.2667      1.00000
     39     -12.2546      1.00000
     40     -12.2471      1.00000
     41     -12.2430      1.00000
     42     -12.2246      1.00000
     43     -12.2123      1.00000
     44     -12.1966      1.00000
     45     -12.1906      1.00000
     46     -12.1772      1.00000
     47     -12.1436      1.00000
     48     -12.1377      1.00000
     49     -12.1259      1.00000
     50     -12.1058      1.00000
     51     -12.0917      1.00000
     52     -12.0793      1.00000
     53     -12.0733      1.00000
     54      -7.0186      1.00000
     55      -6.9328      1.00000
     56      -6.8926      1.00000
     57      -6.8539      1.00000
     58      -6.8180      1.00000
     59      -6.8000      1.00000
     60      -6.7763      1.00000
     61      -6.7515      1.00000
     62      -6.7322      1.00000
     63      -6.7039      1.00000
     64      -6.6852      1.00000
     65      -6.6612      1.00000
     66      -6.6370      1.00000
     67      -6.6272      1.00000
     68      -6.6082      1.00000
     69      -6.5909      1.00000
     70      -6.5822      1.00000
     71      -6.5673      1.00000
     72      -6.5551      1.00000
     73      -6.5309      1.00000
     74      -6.5166      1.00000
     75      -6.5065      1.00000
     76      -6.5002      1.00000
     77      -6.4680      1.00000
     78      -6.4404      1.00000
     79      -6.4279      1.00000
     80      -6.4145      1.00000
     81      -6.3967      1.00000
     82      -6.3934      1.00000
     83      -6.3850      1.00000
     84      -6.3713      1.00000
     85      -6.3616      1.00000
     86      -6.3560      1.00000
     87      -6.3300      1.00000
     88      -6.3290      1.00000
     89      -6.3271      1.00000
     90      -6.3038      1.00000
     91      -6.3022      1.00000
     92      -6.2903      1.00000
     93      -6.2877      1.00000
     94      -6.2842      1.00000
     95      -6.2786      1.00000
     96      -6.2694      1.00000
     97      -6.2640      1.00000
     98      -6.2634      1.00000
     99      -6.2557      1.00000
    100      -6.2505      1.00000
    101      -6.2429      1.00000
    102      -6.2388      1.00000
    103      -6.2361      1.00000
    104      -6.2339      1.00000
    105      -6.2299      1.00000
    106      -6.2264      1.00000
    107      -6.2208      1.00000
    108      -6.0215      1.00000
    109      -5.9967      1.00000
    110      -5.9847      1.00000
    111      -5.9386      1.00000
    112      -5.9193      1.00000
    113      -5.8974      1.00000
    114      -5.8922      1.00000
    115      -5.8834      1.00000
    116      -5.8783      1.00000
    117      -5.8442      1.00000
    118      -5.8003      1.00000
    119      -5.7962      1.00000
    120      -5.7122      1.00000
    121      -5.7082      1.00000
    122      -5.7018      1.00000
    123      -5.6757      1.00000
    124      -5.6743      1.00000
    125      -5.6709      1.00000
    126      -5.6287      1.00000
    127      -5.6160      1.00000
    128      -5.6044      1.00000
    129      -5.5997      1.00000
    130      -5.5960      1.00000
    131      -5.5878      1.00000
    132      -5.5435      1.00000
    133      -5.5385      1.00000
    134      -5.5305      1.00000
    135      -1.2072      1.00000
    136      -1.2037      1.00000
    137      -1.1917      1.00000
    138      -1.1732      1.00000
    139      -1.1607      1.00000
    140      -1.1488      1.00000
    141      -1.0682      1.00000
    142      -1.0574      1.00000
    143      -1.0351      1.00000
    144      -1.0247      1.00000
    145      -1.0151      1.00000
    146      -1.0058      1.00000
    147      -0.9905      1.00000
    148      -0.9567      1.00000
    149      -0.9486      1.00000
    150      -0.9332      1.00000
    151      -0.9158      1.00000
    152      -0.9103      1.00000
    153      -0.8990      1.00000
    154      -0.8915      1.00000
    155      -0.8881      1.00000
    156      -0.8835      1.00000
    157      -0.8710      1.00000
    158      -0.8561      1.00000
    159      -0.8509      1.00000
    160      -0.8403      1.00000
    161      -0.8385      1.00000
    162      -0.8036      1.00000
    163      -0.8010      1.00000
    164      -0.7887      1.00000
    165      -0.7829      1.00000
    166      -0.7711      1.00000
    167      -0.7550      1.00000
    168      -0.7458      1.00000
    169      -0.6799      1.00000
    170      -0.6305      1.00000
    171      -0.6242      1.00000
    172      -0.6188      1.00000
    173      -0.6179      1.00000
    174      -0.6087      1.00000
    175      -0.6078      1.00000
    176      -0.5844      1.00000
    177      -0.5050      1.00000
    178      -0.4967      1.00000
    179      -0.4893      1.00000
    180      -0.4687      1.00000
    181      -0.4668      1.00000
    182      -0.4615      1.00000
    183      -0.4602      1.00000
    184      -0.4497      1.00000
    185      -0.4476      1.00000
    186      -0.4425      1.00000
    187      -0.4185      1.00000
    188      -0.4096      1.00000
    189      -0.3542      1.00000
    190      -0.3484      1.00000
    191      -0.3282      1.00000
    192      -0.2915      1.00000
    193      -0.2894      1.00000
    194      -0.2848      1.00000
    195      -0.2795      1.00000
    196      -0.2703      1.00000
    197      -0.2631      1.00000
    198      -0.2547      1.00000
    199      -0.2426      1.00000
    200      -0.2418      1.00000
    201      -0.1971      1.00000
    202      -0.1906      1.00000
    203      -0.1840      1.00000
    204      -0.1709      1.00000
    205      -0.1625      1.00000
    206      -0.1620      1.00000
    207      -0.1487      1.00000
    208      -0.1448      1.00000
    209      -0.1337      1.00000
    210      -0.0555      1.00000
    211      -0.0525      1.00000
    212      -0.0494      1.00000
    213       4.0066      0.00000
    214       5.0837      0.00000
[...]
     0.000000000  0.000000000 12.226345917     0.000000000  0.000000000  0.081790586

  length of vectors
    12.226345917 12.226345917 12.226345917     0.081790586  0.081790586  0.081790586


 FORCES acting on ions
    electron-ion (+dipol)            ewald-force                    non-local-force                 convergence-correction
 -----------------------------------------------------------------------------------------------
   -.493E+02 -.480E+02 -.493E+02   0.490E+02 0.477E+02 0.489E+02   0.346E+00 0.349E+00 0.344E+00   -.170E-03 -.669E-02 0.140E-02
   -.492E+02 -.480E+02 0.497E+02   0.489E+02 0.477E+02 -.493E+02   0.328E+00 0.330E+00 -.348E+00   0.990E-03 -.166E-02 -.207E-02
   -.182E+02 -.181E+02 -.249E-01   0.181E+02 0.180E+02 0.272E-01   0.155E+00 0.168E+00 0.117E-03   0.394E-02 0.326E-04 -.457E-03
   -.488E+02 0.486E+02 -.485E+02   0.484E+02 -.483E+02 0.482E+02   0.346E+00 -.350E+00 0.353E+00   -.329E-02 0.483E-02 0.131E-02
   -.496E+02 0.490E+02 0.477E+02   0.493E+02 -.486E+02 -.473E+02   0.347E+00 -.368E+00 -.337E+00   -.236E-02 0.224E-02 -.915E-03
   -.183E+02 0.174E+02 0.454E+00   0.181E+02 -.173E+02 -.473E+00   0.151E+00 -.145E+00 0.215E-01   0.371E-02 -.233E-02 -.235E-02
   -.180E+02 -.828E+00 -.179E+02   0.178E+02 0.839E+00 0.178E+02   0.153E+00 -.106E-01 0.146E+00   0.524E-02 0.351E-02 0.594E-02
   -.183E+02 -.161E+00 0.184E+02   0.182E+02 0.176E+00 -.182E+02   0.160E+00 -.283E-01 -.168E+00   0.405E-02 0.420E-02 -.612E-02
   -.728E+01 -.133E+00 0.197E+00   0.728E+01 0.126E+00 -.194E+00   0.658E-02 0.797E-02 -.821E-02   0.166E-02 0.767E-03 0.156E-02
   0.496E+02 -.486E+02 -.488E+02   -.492E+02 0.483E+02 0.484E+02   -.353E+00 0.345E+00 0.331E+00   -.530E-03 -.467E-02 0.381E-02
   0.490E+02 -.487E+02 0.486E+02   -.486E+02 0.484E+02 -.482E+02   -.339E+00 0.349E+00 -.346E+00   0.169E-02 -.411E-02 -.170E-02
   0.182E+02 -.185E+02 0.223E+00   -.180E+02 0.183E+02 -.208E+00   -.152E+00 0.165E+00 -.227E-01   -.384E-02 -.231E-03 0.248E-02
   0.480E+02 0.489E+02 -.490E+02   -.477E+02 -.486E+02 0.486E+02   -.341E+00 -.360E+00 0.368E+00   0.236E-02 0.402E-02 0.111E-02
   0.498E+02 0.491E+02 0.481E+02   -.494E+02 -.488E+02 -.478E+02   -.354E+00 -.345E+00 -.340E+00   0.152E-02 0.826E-03 -.115E-02
   0.184E+02 0.179E+02 0.232E+00   -.182E+02 -.177E+02 -.252E+00   -.163E+00 -.153E+00 0.281E-01   -.227E-02 -.879E-03 -.431E-02
   0.182E+02 -.312E+00 -.179E+02   -.181E+02 0.318E+00 0.178E+02   -.158E+00 -.136E-01 0.151E+00   -.383E-02 0.437E-02 0.571E-02
   0.185E+02 -.927E-01 0.183E+02   -.184E+02 0.772E-01 -.181E+02   -.154E+00 0.146E-01 -.166E+00   -.270E-02 -.394E-03 -.678E-02
   0.730E+01 0.170E+00 0.581E-01   -.731E+01 -.179E+00 -.539E-01   0.105E-02 0.419E-02 -.721E-02   -.779E-03 0.106E-02 0.184E-02
   0.437E-01 -.181E+02 -.179E+02   -.474E-01 0.179E+02 0.178E+02   0.174E-02 0.171E+00 0.157E+00   -.379E-03 -.386E-03 0.536E-02
   -.114E-01 -.182E+02 0.183E+02   0.218E-01 0.180E+02 -.181E+02   -.162E-01 0.165E+00 -.152E+00   0.237E-02 0.111E-02 -.537E-02
   -.595E-01 -.694E+01 -.294E+00   0.612E-01 0.695E+01 0.300E+00   0.195E-03 0.388E-03 0.513E-03   -.759E-04 -.748E-03 -.418E-03
   0.480E+00 0.176E+02 -.177E+02   -.499E+00 -.174E+02 0.175E+02   0.134E-01 -.143E+00 0.147E+00   0.472E-03 -.801E-03 0.648E-02
   0.269E+00 0.178E+02 0.182E+02   -.274E+00 -.176E+02 -.180E+02   0.178E-02 -.147E+00 -.170E+00   -.727E-04 -.106E-02 -.491E-02
   0.152E+00 0.650E+01 0.821E-01   -.152E+00 -.651E+01 -.767E-01   -.198E-02 0.742E-02 -.594E-02   -.284E-03 0.877E-03 -.125E-04
   -.901E-01 -.370E+00 -.692E+01   0.936E-01 0.365E+00 0.692E+01   -.132E-03 0.998E-02 0.562E-03   -.500E-03 -.853E-03 0.262E-02
   -.343E+00 -.166E+00 0.714E+01   0.348E+00 0.159E+00 -.715E+01   0.245E-02 0.844E-02 0.914E-03   -.114E-02 -.273E-03 -.419E-02
   -.939E-01 -.636E-01 0.517E-01   0.102E+00 0.573E-01 -.431E-01   -.228E-02 0.575E-02 -.749E-02   -.940E-03 -.750E-03 0.209E-02
   -.516E-01 -.173E+00 0.356E+02   0.544E-01 0.175E+00 -.356E+02   -.617E-02 0.268E-04 -.428E-02   0.138E-02 0.118E-03 -.162E-02
   -.426E+00 0.578E+00 -.355E+02   0.424E+00 -.570E+00 0.355E+02   0.487E-02 -.108E-01 0.118E-01   -.388E-03 -.289E-02 -.707E-02
   -.298E+00 0.353E+02 -.877E+00   0.297E+00 -.353E+02 0.874E+00   0.472E-02 -.999E-02 0.836E-02   -.847E-03 0.138E-01 -.513E-03
   -.687E-01 0.115E+02 0.109E+02   0.670E-01 -.115E+02 -.109E+02   0.309E-02 -.154E-01 -.474E-02   0.559E-03 -.167E-02 -.684E-02
   -.205E+00 0.112E+02 -.110E+02   0.206E+00 -.111E+02 0.110E+02   0.214E-02 -.263E-01 0.273E-01   -.144E-02 0.462E-02 0.357E-02
   0.319E+00 -.357E+02 0.384E+00   -.319E+00 0.357E+02 -.380E+00   0.113E-02 0.477E-02 -.652E-02   -.983E-03 -.242E-02 -.621E-03
   0.391E+00 -.110E+02 0.116E+02   -.388E+00 0.110E+02 -.116E+02   -.583E-02 0.149E-01 -.243E-01   -.118E-02 0.119E-02 -.195E-02
   0.688E-02 -.109E+02 -.114E+02   -.844E-02 0.109E+02 0.113E+02   0.208E-02 0.896E-02 0.509E-02   0.296E-03 0.136E-02 0.994E-02
   0.356E+02 -.899E-01 -.986E-01   -.356E+02 0.919E-01 0.978E-01   -.816E-02 0.334E-02 0.140E-02   0.450E-02 -.308E-02 0.516E-04
   0.119E+02 -.516E+00 0.112E+02   -.119E+02 0.516E+00 -.112E+02   -.277E-01 0.582E-02 -.223E-01   -.188E-02 -.140E-02 -.500E-02
   0.112E+02 0.776E-01 -.113E+02   -.112E+02 -.721E-01 0.112E+02   -.157E-01 -.409E-02 0.173E-01   -.270E-02 -.237E-02 0.580E-02
   0.111E+02 0.111E+02 -.522E-01   -.111E+02 -.111E+02 0.478E-01   -.105E-01 -.108E-01 0.641E-02   -.338E-02 -.166E-03 0.368E-05
   0.318E+01 0.277E+01 0.260E+01   -.314E+01 -.273E+01 -.256E+01   -.336E-01 -.207E-01 -.341E-01   -.432E-02 -.637E-02 -.788E-02
   0.313E+01 0.337E+01 -.339E+01   -.309E+01 -.333E+01 0.335E+01   -.451E-01 -.487E-01 0.514E-01   -.721E-03 0.348E-02 0.281E-02
   0.115E+02 -.112E+02 0.578E+00   -.115E+02 0.112E+02 -.576E+00   -.249E-01 0.217E-01 -.716E-02   -.457E-02 -.129E-02 0.465E-03
   0.342E+01 -.322E+01 0.314E+01   -.337E+01 0.318E+01 -.310E+01   -.501E-01 0.507E-01 -.493E-01   -.188E-03 -.388E-02 -.178E-02
   0.309E+01 -.276E+01 -.282E+01   -.305E+01 0.272E+01 0.278E+01   -.409E-01 0.365E-01 0.237E-01   -.482E-02 -.287E-03 0.808E-02
   -.357E+02 0.829E+00 -.164E+00   0.357E+02 -.827E+00 0.160E+00   0.101E-01 -.565E-02 0.261E-02   -.531E-02 -.357E-03 0.256E-02
   -.113E+02 0.103E+00 0.110E+02   0.113E+02 -.971E-01 -.109E+02   0.130E-01 -.759E-02 -.138E-01   0.264E-02 -.141E-02 -.712E-02
   -.113E+02 0.114E+00 -.112E+02   0.113E+02 -.111E+00 0.112E+02   0.269E-01 0.967E-04 0.258E-01   0.131E-02 -.194E-02 0.248E-02
   -.113E+02 0.110E+02 -.144E+00   0.112E+02 -.109E+02 0.145E+00   0.257E-01 -.332E-01 0.185E-02   -.765E-03 -.470E-03 -.201E-02
   -.340E+01 0.318E+01 0.271E+01   0.336E+01 -.314E+01 -.266E+01   0.415E-01 -.492E-01 -.379E-01   -.479E-03 -.644E-03 -.431E-02
   -.323E+01 0.308E+01 -.306E+01   0.319E+01 -.304E+01 0.301E+01   0.525E-01 -.533E-01 0.504E-01   -.216E-02 0.393E-02 0.252E-02
   -.116E+02 -.109E+02 0.282E-01   0.116E+02 0.109E+02 -.294E-01   0.118E-01 0.972E-02 0.142E-02   0.529E-02 0.184E-02 0.288E-03
   -.293E+01 -.258E+01 0.307E+01   0.289E+01 0.254E+01 -.302E+01   0.277E-01 0.389E-01 -.401E-01   0.697E-02 0.362E-02 -.689E-02
   -.334E+01 -.275E+01 -.324E+01   0.329E+01 0.270E+01 0.320E+01   0.475E-01 0.423E-01 0.410E-01   0.247E-02 0.826E-03 0.683E-02
 -----------------------------------------------------------------------------------------------
   0.148E-01 -.307E-01 0.266E-01   -.372E-12 -.435E-13 0.600E-13   -.157E-01 -.188E-01 -.887E-04   -.589E-02 0.613E-02 -.722E-02
 
 
 POSITION                                       TOTAL-FORCE (eV/Angst)
 -----------------------------------------------------------------------------------
     12.12195     12.14313     12.11943         0.004511     -0.002606      0.006375
     12.13222     12.14821      4.17761        -0.001052     -0.008256     -0.005762
      0.00471      0.00847      8.14799        -0.002808     -0.001737      0.001660
     12.11709      4.19185     12.11148         0.007424     -0.007636      0.006314
     12.12108      4.19335      4.15572         0.008167     -0.007810      0.005844
      0.00325      4.07725      8.13952        -0.000830      0.004779      0.000733
      0.00288      8.16087      0.00191        -0.003926      0.003821     -0.002364
      0.00319      8.16855      4.07287        -0.001584     -0.008503     -0.002405
     12.22305      8.15651      8.15004         0.007278      0.001853     -0.003336
      4.17657     12.14166     12.13304        -0.002763     -0.005112     -0.004438
      4.18963     12.12300      4.18423        -0.014585      0.016152     -0.010535
      4.07458      0.00481      8.15749         0.000650      0.004517     -0.006047
      4.16522      4.18752     12.11094         0.002874     -0.004702      0.007745
      4.17721      4.17610      4.15442        -0.003140      0.001743      0.007692
      4.07348      4.07681      8.13741        -0.000726      0.001119      0.003883
      4.07149      8.16206      0.00301         0.001868     -0.003352     -0.003717
      4.07376      8.15302      4.07281        -0.002317     -0.000531     -0.002092
      4.07903      8.15629      8.15045        -0.009609     -0.002878     -0.001567
      8.15147      0.00634      0.00111        -0.002215      0.000295     -0.000881
      8.15859      0.00365      4.07254        -0.003196      0.002196     -0.002159
      8.15134      0.00091      8.14671         0.001947      0.007438      0.005597
      8.14835      4.07564     12.22594        -0.005286      0.004612     -0.002932
      8.15233      4.07565      4.06960        -0.004039      0.001582     -0.000407
      8.15134      4.08166      8.14718        -0.002212     -0.002565     -0.000919
      8.14841      8.15428     12.22126         0.002959      0.004602      0.004646
      8.14882      8.15273      4.07703         0.006161      0.002749     -0.009589
      8.14843      8.15539      8.14694         0.004785     -0.000434      0.002860
      2.04425      2.04772      5.92693        -0.001829      0.002692      0.009119
      2.03172      2.05308     10.35585         0.002904     -0.004819     -0.000142
      2.03193      5.94881      2.02143         0.002652      0.001268      0.004640
      2.03632      6.12321      6.10025         0.002076      0.000413      0.005053
      2.03400      6.12966     10.17263         0.001674     -0.003634      0.004260
      2.03989     10.38122      2.04276         0.000062     -0.009420     -0.003970
      2.04507     10.19476      6.12257        -0.003453      0.000758     -0.006065
      2.03662     10.20014     10.19189         0.000937     -0.001942     -0.005341
      5.93934      2.04136      2.03244         0.005262      0.003131      0.000252
      6.12470      2.03544      6.11383        -0.007135      0.005786     -0.004376
      6.11253      2.04765     10.18215         0.000338     -0.000124      0.000030
      6.11007      6.11796      2.02689         0.003534      0.003916      0.001669
      6.11483      6.11172      6.10676         0.004360      0.011975      0.002918
      6.11661      6.12949     10.17177        -0.002533     -0.004532      0.006336
      6.12148     10.18808      2.04364        -0.004054      0.004595     -0.005504
      6.12799     10.17723      6.12601        -0.005538      0.007911     -0.005656
      6.11706     10.19413     10.19165         0.001078     -0.000659     -0.008954
     10.36333      2.05407      2.02883        -0.003564     -0.002778      0.000243
     10.19050      2.05080      6.10839        -0.000928     -0.002024      0.000628
     10.18021      2.04572     10.17550         0.005605      0.001319      0.004168
     10.17927      6.13292      2.03003         0.004786     -0.005985      0.000253
     10.18136      6.13079      6.11103         0.001976     -0.004079      0.001145
     10.17568      6.13115     10.17251         0.006389     -0.005402      0.004395
     10.18964     10.20121      2.03547        -0.000861     -0.001808      0.000184
     10.19219     10.19474      6.11617        -0.006335      0.000265      0.000192
     10.17965     10.19072     10.17914         0.004262      0.001841      0.000325
 -----------------------------------------------------------------------------------
    total drift:                               -0.006745     -0.043420      0.019290


--------------------------------------------------------------------------------------------------------



  FREE ENERGIE OF THE ION-ELECTRON SYSTEM (eV)
  ---------------------------------------------------
  free  energy   TOTEN  =      -182.67380706 eV

  energy  without entropy=     -182.67380706  energy(sigma->0) =     -182.67380706
 d Force = 0.1460096E-02[ 0.106E-02, 0.186E-02]  d Energy = 0.1471330E-02-0.112E-04
 d Force = 0.5908711E+00[ 0.571E+00, 0.610E+00]  d Ewald  = 0.5908712E+00-0.960E-07
 


--------------------------------------------------------------------------------------------------------


    POTLOK:  cpu time      2.2260: real time      2.2307


--------------------------------------------------------------------------------------------------------


 Conjugate gradient step on ions:
 trial-energy change:   -0.001471  1 .order   -0.001460   -0.001861   -0.001059
  (g-gl).g = 0.424E-03      g.g   = 0.363E-03  gl.gl    = 0.196E-02
 g(Force)  = 0.363E-03   g(Stress)= 0.000E+00 ortho     =-0.493E-04
 gamma     =   0.21684
 trial     =   5.28316
 opt step  =  12.26455  (harmonic =  12.26455) maximal distance =0.01259168
 next E    =  -182.674496   (d E  =  -0.00216)


--------------------------------------------------------------------------------------------------------


  
 reached required accuracy - stopping structural energy minimisation
     LOOP+:  cpu time     19.1807: real time     20.4592
    4ORBIT:  cpu time      0.0000: real time      0.0000



 total charge

# of ion       s       p       d       tot
------------------------------------------
    1        1.973   4.700   0.037   6.711
    2        1.975   4.700   0.037   6.713
    3        1.966   4.700   0.033   6.700
    4        1.968   4.700   0.038   6.706
    5        1.974   4.700   0.037   6.711
    6        1.966   4.700   0.033   6.700
    7        1.966   4.700   0.033   6.700
    8        1.967   4.700   0.033   6.700
    9        1.966   4.701   0.034   6.701
   10        1.974   4.700   0.037   6.711
   11        1.969   4.700   0.038   6.707
   12        1.966   4.700   0.033   6.700
   13        1.971   4.700   0.037   6.709
   14        1.975   4.700   0.037   6.712
   15        1.966   4.700   0.033   6.700
   16        1.966   4.700   0.033   6.700
   17        1.966   4.700   0.033   6.699
   18        1.966   4.701   0.034   6.701
   19        1.966   4.700   0.033   6.700
   20        1.966   4.700   0.033   6.700
   21        1.966   4.701   0.034   6.701
   22        1.966   4.700   0.033   6.699
   23        1.966   4.700   0.033   6.700
   24        1.966   4.701   0.034   6.702
   25        1.966   4.701   0.034   6.701
   26        1.966   4.701   0.034   6.701
   27        1.966   4.701   0.034   6.702
   28        1.581   3.549   0.000   5.130
   29        1.581   3.550   0.000   5.130
   30        1.581   3.550   0.000   5.130
   31        1.581   3.554   0.000   5.135
   32        1.581   3.554   0.000   5.135
   33        1.581   3.549   0.000   5.130
   34        1.581   3.554   0.000   5.135
   35        1.581   3.554   0.000   5.135
   36        1.581   3.550   0.000   5.130
   37        1.581   3.554   0.000   5.135
   38        1.581   3.554   0.000   5.135
   39        1.581   3.554   0.000   5.135
   40        1.581   3.555   0.000   5.136
   41        1.581   3.555   0.000   5.136
   42        1.581   3.554   0.000   5.135
   43        1.581   3.555   0.000   5.136
   44        1.581   3.555   0.000   5.136
   45        1.581   3.550   0.000   5.130
   46        1.581   3.554   0.000   5.135
   47        1.581   3.554   0.000   5.135
   48        1.581   3.554   0.000   5.135
   49        1.581   3.555   0.000   5.136
   50        1.581   3.555   0.000   5.136
   51        1.581   3.554   0.000   5.135
   52        1.581   3.555   0.000   5.136
   53        1.581   3.555   0.000   5.136
--------------------------------------------------
tot         94.238 219.298   0.937 314.473



 magnetization (x)

# of ion       s       p       d       tot
------------------------------------------
    1        0.000   0.000  -0.000   0.000
    2       -0.000  -0.000   0.000  -0.000
    3        0.000   0.000  -0.000   0.000
    4       -0.000  -0.000  -0.000  -0.000
    5        0.000   0.000  -0.000   0.000
    6        0.000   0.000  -0.000   0.000
    7        0.000   0.000   0.000   0.000
    8        0.000   0.000   0.000   0.000
    9       -0.000  -0.000   0.000  -0.000
   10       -0.000  -0.000  -0.000  -0.000
   11       -0.000  -0.000   0.000  -0.000
   12        0.000   0.000   0.000   0.000
   13        0.000   0.000   0.000   0.000
   14       -0.000  -0.000   0.000  -0.000
   15        0.000   0.000   0.000   0.000
   16       -0.000  -0.000  -0.000  -0.000
   17        0.000   0.000   0.000   0.000
   18        0.000   0.000  -0.000   0.000
   19        0.000   0.000   0.000   0.000
   20        0.000   0.000   0.000   0.000
   21        0.000   0.000  -0.000   0.000
   22        0.000   0.000  -0.000   0.000
   23       -0.000  -0.000  -0.000  -0.000
   24       -0.000  -0.000   0.000  -0.000
   25        0.000   0.000  -0.000   0.000
   26       -0.000  -0.000   0.000  -0.000
   27        0.000   0.000   0.000   0.000
   28        0.000  -0.000   0.000  -0.000
   29        0.000   0.000   0.000   0.000
   30        0.000   0.000   0.000   0.000
   31       -0.000  -0.000   0.000  -0.000
   32       -0.000  -0.000   0.000  -0.000
   33       -0.000   0.000   0.000  -0.000
   34        0.000  -0.000   0.000  -0.000
   35       -0.000   0.000   0.000   0.000
   36        0.000   0.000   0.000   0.000
   37       -0.000  -0.000   0.000  -0.000
   38        0.000  -0.000   0.000  -0.000
   39        0.000   0.000   0.000   0.000
   40       -0.000  -0.000   0.000  -0.000
   41        0.000   0.000   0.000   0.000
   42        0.000   0.000   0.000   0.000
   43       -0.000  -0.000   0.000  -0.000
   44       -0.000   0.000   0.000   0.000
   45       -0.000   0.000   0.000   0.000
   46       -0.000  -0.000   0.000  -0.000
   47       -0.000   0.000   0.000  -0.000
   48       -0.000  -0.000   0.000  -0.000
   49       -0.000  -0.000   0.000  -0.000
   50       -0.000   0.000   0.000   0.000
   51        0.000   0.000   0.000   0.000
   52        0.000   0.000   0.000   0.000
   53        0.000  -0.000   0.000  -0.000
--------------------------------------------------
tot          0.000   0.000  -0.000   0.000
 

 total amount of memory used by VASP MPI-rank0   179556. kBytes
=======================================================================

   base                                    :      30000. kBytes
   nonlr-proj                              :       6451. kBytes
   fftplans                                :      15598. kBytes
   grid                                    :      44900. kBytes
   one-center                              :        859. kBytes
   wavefun                                 :      81748. kBytes
 
  
  
 General timing and accounting informations for this job:
 ========================================================
  
                  Total CPU time used (sec):      317.793
                            User time (sec):      314.829
                          System time (sec):        2.964
                         Elapsed time (sec):      326.258
  
                   Maximum memory used (kb):     1880516.
                   Average memory used (kb):          N/A
  
                          Minor page faults:       248345
                          Major page faults:         2678
                 Voluntary context switches:        28508
