 running    2 mpi-ranks, on    1 nodes
 distrk:  each k-point on    2 cores,    1 groups
 distr:  one band on    1 cores,    2 groups
 Offloading initialized ...    2 GPUs detected
 vasp.6.5.1 10Mar25 (build May 13 2025 11:33:44) complex                         
 POSCAR found type information on POSCAR CsCl
 POSCAR found :  2 types and      53 ions
 -----------------------------------------------------------------------------
|                                                                             |
|           W    W    AA    RRRRR   N    N  II  N    N   GGGG   !!!           |
|           W    W   A  A   R    R  NN   N  II  NN   N  G    G  !!!           |
|           W    W  A    A  R    R  N N  N  II  N N  N  G       !!!           |
|           W WW W  AAAAAA  RRRRR   N  N N  II  N  N N  G  GGG   !            |
|           WW  WW  A    A  R   R   N   NN  II  N   NN  G    G                |
|           W    W  A    A  R    R  N    N  II  N    N   GGGG   !!!           |
|                                                                             |
|     You requested a magnetic or noncollinear calculation, but did not       |
|     specify the initial magnetic moment with the MAGMOM tag. Note that      |
|     a default of 1 will be used for all atoms. This ferromagnetic setup     |
|     may break the symmetry of the crystal, in particular it may rule        |
|     out finding an antiferromagnetic solution. Thence, we recommend         |
|     setting the initial magnetic moment manually or verifying carefully     |
|     that this magnetic setup is desired.                                    |
|                                                                             |
 -----------------------------------------------------------------------------

 scaLAPACK will be used selectively (only on CPU)
 -----------------------------------------------------------------------------
|                                                                             |
|               ----> ADVICE to this user running VASP <----                  |
|                                                                             |
|     You enforced a specific xc type in the INCAR file but a different       |
|     type was found in the POTCAR file.                                      |
|     I HOPE YOU KNOW WHAT YOU ARE DOING!                                     |
|                                                                             |
 -----------------------------------------------------------------------------

 LDA part: xc-table for (Slater+PW92), standard interpolation
 POSCAR, INCAR and KPOINTS ok, starting setup
 FFT: planning ... GRIDC
 FFT: planning ... GRID_SOFT
 FFT: planning ... GRID
 WAVECAR not read
 entering main loop
       N       E                     dE             d eps       ncg     rms          rms(c)
DAV:   1     0.233415766094E+04    0.23342E+04   -0.12232E+05  1128   0.747E+02
DAV:   2     0.296771006920E+02   -0.23045E+04   -0.22281E+04  1404   0.196E+02
DAV:   3    -0.179158274333E+03   -0.20884E+03   -0.20795E+03  1360   0.662E+01
DAV:   4    -0.182310149159E+03   -0.31519E+01   -0.31458E+01  1336   0.957E+00
DAV:   5    -0.182370484610E+03   -0.60335E-01   -0.60298E-01  1328   0.119E+00BRMIX: very serious problems
 the old and the new charge density differ
 old charge density:   425.00000 new  423.99998
    0.255E+01
DAV:   6    -0.176501921225E+03    0.58686E+01   -0.30812E+01  1280   0.663E+00    0.140E+01
DAV:   7    -0.179104908444E+03   -0.26030E+01   -0.57935E+00  1320   0.332E+00    0.958E+00
DAV:   8    -0.181137052014E+03   -0.20321E+01   -0.13058E+00  1360   0.148E+00    0.511E+00
DAV:   9    -0.182136535165E+03   -0.99948E+00   -0.69043E-01  1400   0.115E+00    0.121E+00
DAV:  10    -0.182227568330E+03   -0.91033E-01   -0.10035E-01  1320   0.424E-01    0.797E-01
DAV:  11    -0.182253370316E+03   -0.25802E-01   -0.14615E-02  1368   0.181E-01    0.429E-01
DAV:  12    -0.182266683235E+03   -0.13313E-01   -0.17902E-02  1304   0.209E-01    0.158E-01
DAV:  13    -0.182267228431E+03   -0.54520E-03   -0.29316E-03  1336   0.721E-02    0.750E-02
DAV:  14    -0.182267730594E+03   -0.50216E-03   -0.27372E-04  1312   0.384E-02    0.476E-02
DAV:  15    -0.182268022488E+03   -0.29189E-03   -0.58624E-04  1328   0.489E-02    0.229E-02
DAV:  16    -0.182268063383E+03   -0.40895E-04   -0.23927E-04  1312   0.205E-02    0.245E-02
DAV:  17    -0.182268064410E+03   -0.10267E-05   -0.11550E-05   856   0.554E-03
   1 F= -.18226806E+03 E0= -.18226806E+03  d E =-.182268E+03  mag=    -0.0007
 curvature:   0.00 expect dE= 0.000E+00 dE for cont linesearch  0.000E+00
 trial: gam= 0.00000 g(F)=  0.873E-01 g(S)=  0.000E+00 ort = 0.000E+00 (trialstep = 0.100E+01)
 search vector abs. value=  0.873E-01
 bond charge predicted
       N       E                     dE             d eps       ncg     rms          rms(c)
DAV:   1    -0.182327838956E+03   -0.59776E-01   -0.70179E+00  1136   0.339E+00    0.920E-01
DAV:   2    -0.182351503578E+03   -0.23665E-01   -0.26612E-01  1280   0.671E-01    0.420E-01
DAV:   3    -0.182350402399E+03    0.11012E-02   -0.23321E-03  1360   0.811E-02    0.286E-01
DAV:   4    -0.182349565743E+03    0.83666E-03   -0.22545E-03  1344   0.797E-02    0.147E-01
DAV:   5    -0.182349553376E+03    0.12367E-04   -0.70517E-04  1360   0.383E-02    0.494E-02
DAV:   6    -0.182349504664E+03    0.48712E-04   -0.49357E-05  1184   0.232E-02    0.232E-02
DAV:   7    -0.182349484801E+03    0.19863E-04   -0.80761E-05  1392   0.208E-02    0.109E-02
DAV:   8    -0.182349486519E+03   -0.17186E-05   -0.35930E-05  1096   0.904E-03
   2 F= -.18234949E+03 E0= -.18234949E+03  d E =-.814221E-01  mag=     0.0000
 ZBRENT: can't locate minimum, use default step
 trial-energy change:   -0.081422  1 .order   -0.081467   -0.087337   -0.075597
 step:   4.0000(harm=  7.4389)  dis= 0.08943  next Energy=  -182.592911 (dE=-0.325E+00)
 bond charge predicted
       N       E                     dE             d eps       ncg     rms          rms(c)
DAV:   1    -0.182317465735E+03    0.32019E-01   -0.63089E+01  1128   0.102E+01    0.282E+00
DAV:   2    -0.182540865374E+03   -0.22340E+00   -0.25091E+00  1264   0.206E+00    0.129E+00
DAV:   3    -0.182530652783E+03    0.10213E-01   -0.22270E-02  1360   0.254E-01    0.879E-01
DAV:   4    -0.182523007103E+03    0.76457E-02   -0.18527E-02  1360   0.234E-01    0.467E-01
DAV:   5    -0.182522682127E+03    0.32498E-03   -0.67904E-03  1344   0.125E-01    0.163E-01
DAV:   6    -0.182522247725E+03    0.43440E-03   -0.51816E-04  1552   0.788E-02    0.679E-02
DAV:   7    -0.182522068329E+03    0.17940E-03   -0.72568E-04  1504   0.721E-02    0.392E-02
DAV:   8    -0.182522097757E+03   -0.29429E-04   -0.42998E-04  1288   0.308E-02    0.393E-02
DAV:   9    -0.182522090042E+03    0.77155E-05   -0.31439E-05  1144   0.873E-03
   3 F= -.18252209E+03 E0= -.18252209E+03  d E =-.254026E+00  mag=    -0.0000
 curvature:  -2.66 expect dE=-0.644E-01 dE for cont linesearch -0.492E-01
 ZBRENT: increasing intervall
 opt :  10.0000  next Energy=  -182.551028 (dE=-0.283E+00)
 bond charge predicted
       N       E                     dE             d eps       ncg     rms          rms(c)
DAV:   1    -0.181616209743E+03    0.90589E+00   -0.25271E+02  1128   0.208E+01    0.604E+00
DAV:   2    -0.182612630214E+03   -0.99642E+00   -0.11221E+01  1240   0.444E+00    0.270E+00
DAV:   3    -0.182569305390E+03    0.43325E-01   -0.10716E-01  1376   0.589E-01    0.186E+00
DAV:   4    -0.182539729806E+03    0.29576E-01   -0.62081E-02  1360   0.471E-01    0.107E+00
DAV:   5    -0.182536005697E+03    0.37241E-02   -0.31186E-02  1328   0.317E-01    0.424E-01
DAV:   6    -0.182534666962E+03    0.13387E-02   -0.57601E-03  1464   0.193E-01    0.147E-01
DAV:   7    -0.182534201904E+03    0.46506E-03   -0.28476E-03  1472   0.136E-01    0.957E-02
DAV:   8    -0.182534217480E+03   -0.15576E-04   -0.11713E-03  1312   0.530E-02    0.838E-02
DAV:   9    -0.182534166255E+03    0.51225E-04   -0.10478E-04  1328   0.164E-02    0.461E-02
DAV:  10    -0.182534143941E+03    0.22314E-04   -0.55632E-05  1280   0.188E-02    0.244E-02
DAV:  11    -0.182534138439E+03    0.55018E-05   -0.26956E-05  1072   0.117E-02
   4 F= -.18253414E+03 E0= -.18253414E+03  d E =-.266074E+00  mag=     0.0000
 curvature:  -1.56 expect dE=-0.822E-01 dE for cont linesearch -0.253E-01
 ZBRENT: bracketing found
 ZBRENT: interpolating
 opt :   7.1005  next Energy=  -182.588655 (dE=-0.321E+00)
 bond charge predicted
       N       E                     dE             d eps       ncg     rms          rms(c)
DAV:   1    -0.182403651337E+03    0.13049E+00   -0.61094E+01  1128   0.107E+01    0.270E+00
DAV:   2    -0.182603383336E+03   -0.19973E+00   -0.22597E+00  1264   0.213E+00    0.123E+00
DAV:   3    -0.182594912414E+03    0.84709E-02   -0.27378E-02  1376   0.285E-01    0.816E-01
DAV:   4    -0.182589051027E+03    0.58614E-02   -0.11077E-02  1344   0.192E-01    0.500E-01
DAV:   5    -0.182587778046E+03    0.12730E-02   -0.58469E-03  1328   0.146E-01    0.202E-01
DAV:   6    -0.182587447459E+03    0.33059E-03   -0.16675E-03  1488   0.105E-01    0.650E-02
DAV:   7    -0.182587389021E+03    0.58439E-04   -0.10444E-03  1328   0.676E-02    0.592E-02
DAV:   8    -0.182587388193E+03    0.82722E-06   -0.21412E-04  1344   0.233E-02    0.465E-02
DAV:   9    -0.182587372023E+03    0.16171E-04   -0.48771E-05  1248   0.115E-02    0.280E-02
DAV:  10    -0.182587371874E+03    0.14869E-06   -0.26219E-05  1088   0.884E-03
   5 F= -.18258737E+03 E0= -.18258737E+03  d E =-.319307E+00  mag=    -0.0000
 curvature:  -3.37 expect dE=-0.587E-01 dE for cont linesearch -0.286E-04
 trial: gam= 0.18985 g(F)=  0.174E-01 g(S)=  0.000E+00 ort = 0.861E-03 (trialstep = 0.222E+01)
 search vector abs. value=  0.209E-01
 bond charge predicted
       N       E                     dE             d eps       ncg     rms          rms(c)
DAV:   1    -0.182592572294E+03   -0.52003E-02   -0.86797E+00  1128   0.415E+00    0.119E+00
DAV:   2    -0.182623176520E+03   -0.30604E-01   -0.34402E-01  1232   0.833E-01    0.550E-01
DAV:   3    -0.182621957837E+03    0.12187E-02   -0.32372E-03  1344   0.100E-01    0.358E-01
DAV:   4    -0.182621051363E+03    0.90647E-03   -0.23059E-03  1376   0.864E-02    0.200E-01
DAV:   5    -0.182621043863E+03    0.74999E-05   -0.83048E-04  1360   0.442E-02    0.772E-02
DAV:   6    -0.182621014655E+03    0.29208E-04   -0.38275E-05  1104   0.195E-02    0.404E-02
DAV:   7    -0.182620994827E+03    0.19828E-04   -0.36637E-05  1136   0.218E-02    0.104E-02
DAV:   8    -0.182620997820E+03   -0.29933E-05   -0.50728E-05  1216   0.104E-02
   6 F= -.18262100E+03 E0= -.18262100E+03  d E =-.336259E-01  mag=    -0.0000
 ZBRENT: can't locate minimum, use default step
 trial-energy change:   -0.033626  1 .order   -0.033734   -0.039086   -0.028382
 step:   8.8804(harm=  8.1065)  dis= 0.06632  next Energy=  -182.668130 (dE=-0.808E-01)
 bond charge predicted
       N       E                     dE             d eps       ncg     rms          rms(c)
DAV:   1    -0.182398327767E+03    0.22267E+00   -0.78084E+01  1128   0.124E+01    0.364E+00
DAV:   2    -0.182679897772E+03   -0.28157E+00   -0.31632E+00  1232   0.251E+00    0.167E+00
DAV:   3    -0.182668889316E+03    0.11008E-01   -0.30413E-02  1376   0.307E-01    0.110E+00
DAV:   4    -0.182661054081E+03    0.78352E-02   -0.18658E-02  1368   0.233E-01    0.637E-01
DAV:   5    -0.182660629030E+03    0.42505E-03   -0.62544E-03  1344   0.122E-01    0.264E-01
DAV:   6    -0.182660302913E+03    0.32612E-03   -0.53278E-04  1368   0.628E-02    0.117E-01
DAV:   7    -0.182660167926E+03    0.13499E-03   -0.42207E-04  1472   0.595E-02    0.341E-02
DAV:   8    -0.182660181724E+03   -0.13799E-04   -0.35197E-04  1280   0.274E-02    0.340E-02
DAV:   9    -0.182660179235E+03    0.24897E-05   -0.16130E-05   864   0.624E-03
   7 F= -.18266018E+03 E0= -.18266018E+03  d E =-.728074E-01  mag=    -0.0000
 curvature:  -4.73 expect dE=-0.101E-01 dE for cont linesearch -0.859E-04
 ZBRENT: interpolating
 opt :   8.5740  next Energy=  -182.660274 (dE=-0.729E-01)
 bond charge predicted
       N       E                     dE             d eps       ncg     rms          rms(c)
DAV:   1    -0.182659736520E+03    0.44520E-03   -0.16445E-01  1168   0.567E-01    0.161E-01
DAV:   2    -0.182660310915E+03   -0.57439E-03   -0.65458E-03  1232   0.114E-01    0.752E-02
DAV:   3    -0.182660291417E+03    0.19499E-04   -0.61811E-05  1336   0.136E-02    0.487E-02
DAV:   4    -0.182660277149E+03    0.14268E-04   -0.39726E-05  1128   0.106E-02    0.279E-02
DAV:   5    -0.182660277116E+03    0.32538E-07   -0.12796E-05   760   0.550E-03
   8 F= -.18266028E+03 E0= -.18266028E+03  d E =-.729052E-01  mag=    -0.0000
 curvature:  -5.20 expect dE=-0.102E-01 dE for cont linesearch -0.193E-05
 trial: gam= 0.13392 g(F)=  0.196E-02 g(S)=  0.000E+00 ort =-0.881E-04 (trialstep = 0.349E+01)
 search vector abs. value=  0.231E-02
 bond charge predicted
       N       E                     dE             d eps       ncg     rms          rms(c)
DAV:   1    -0.182658287835E+03    0.19893E-02   -0.23768E+00  1168   0.216E+00    0.628E-01
DAV:   2    -0.182666630386E+03   -0.83426E-02   -0.93060E-02  1216   0.432E-01    0.284E-01
DAV:   3    -0.182666325668E+03    0.30472E-03   -0.88190E-04  1376   0.506E-02    0.184E-01
DAV:   4    -0.182666120277E+03    0.20539E-03   -0.53654E-04  1376   0.367E-02    0.108E-01
DAV:   5    -0.182666115813E+03    0.44644E-05   -0.14949E-04  1352   0.175E-02    0.460E-02
DAV:   6    -0.182666115934E+03   -0.12105E-06   -0.43448E-05  1088   0.116E-02
   9 F= -.18266612E+03 E0= -.18266612E+03  d E =-.583882E-02  mag=    -0.0000
 trial-energy change:   -0.005839  1 .order   -0.005834   -0.006785   -0.004883
 step:  12.4523(harm= 12.4523)  dis= 0.03542  next Energy=  -182.672379 (dE=-0.121E-01)
 bond charge predicted
       N       E                     dE             d eps       ncg     rms          rms(c)
DAV:   1    -0.182620694403E+03    0.45421E-01   -0.15676E+01  1128   0.555E+00    0.162E+00
DAV:   2    -0.182675707411E+03   -0.55013E-01   -0.61587E-01  1216   0.111E+00    0.733E-01
DAV:   3    -0.182673714299E+03    0.19931E-02   -0.58508E-03  1376   0.131E-01    0.480E-01
DAV:   4    -0.182672383671E+03    0.13306E-02   -0.34576E-03  1376   0.934E-02    0.281E-01
DAV:   5    -0.182672353168E+03    0.30503E-04   -0.97300E-04  1352   0.449E-02    0.120E-01
DAV:   6    -0.182672354043E+03   -0.87535E-06   -0.26934E-04  1320   0.290E-02    0.498E-02
DAV:   7    -0.182672334510E+03    0.19533E-04   -0.96400E-05  1280   0.193E-02    0.997E-03
DAV:   8    -0.182672335735E+03   -0.12243E-05   -0.27376E-05   992   0.768E-03
  10 F= -.18267234E+03 E0= -.18267234E+03  d E =-.120586E-01  mag=    -0.0000
 curvature:  -7.39 expect dE=-0.268E-02 dE for cont linesearch -0.777E-05
 trial: gam= 0.21684 g(F)=  0.363E-03 g(S)=  0.000E+00 ort =-0.493E-04 (trialstep = 0.528E+01)
 search vector abs. value=  0.450E-03
 bond charge predicted
       N       E                     dE             d eps       ncg     rms          rms(c)
DAV:   1    -0.182670539388E+03    0.17951E-02   -0.10230E+00  1168   0.141E+00    0.362E-01
DAV:   2    -0.182673995470E+03   -0.34561E-02   -0.38914E-02  1216   0.280E-01    0.165E-01
DAV:   3    -0.182673884230E+03    0.11124E-03   -0.33372E-04  1376   0.314E-02    0.105E-01
DAV:   4    -0.182673808557E+03    0.75673E-04   -0.18997E-04  1360   0.228E-02    0.609E-02
DAV:   5    -0.182673807065E+03    0.14920E-05   -0.52061E-05  1248   0.105E-02
  11 F= -.18267381E+03 E0= -.18267381E+03  d E =-.147133E-02  mag=     0.0000
 trial-energy change:   -0.001471  1 .order   -0.001460   -0.001861   -0.001059
 step:  12.2645(harm= 12.2645)  dis= 0.01259  next Energy=  -182.674496 (dE=-0.216E-02)
 reached required accuracy - stopping structural energy minimisation
