<?xml version="1.0" encoding="ISO-8859-1"?>
<modeling>
 <generator>
  <i name="program" type="string">vasp </i>
  <i name="version" type="string">6.5.1  </i>
  <i name="subversion" type="string">10Mar25 (build May 13 2025 11:33:44) complex                          parallel </i>
  <i name="platform" type="string">LinuxNV </i>
  <i name="date" type="string">2026 05 13 </i>
  <i name="time" type="string">15:10:30 </i>
 </generator>
 <incar>
  <i type="string" name="PREC">Normal</i>
  <i type="string" name="ALGO">Normal</i>
  <i type="int" name="ISPIN">     2</i>
  <i type="int" name="NELM">   100</i>
  <i type="int" name="IBRION">     2</i>
  <i name="EDIFF">      0.00001000</i>
  <i name="EDIFFG">     -0.03000000</i>
  <i type="int" name="NSW">   300</i>
  <i type="int" name="ISIF">     2</i>
  <i name="ENCUT">    262.47200000</i>
  <i name="NELECT">    424.00000000</i>
  <i type="string" name="LREAL">Auto</i>
  <i type="int" name="ISMEAR">     0</i>
  <i name="SIGMA">      0.10000000</i>
  <i type="logical" name="LWAVE"> F  </i>
  <i type="logical" name="LCHARG"> F  </i>
  <i type="int" name="LORBIT">    10</i>
  <i type="logical" name="LASPH"> T  </i>
  <i type="string" name="GGA">Ps</i>
 </incar>
 <primitive_cell>
  <structure name="primitive_cell" >
   <crystal>
    <varray name="basis" >
     <v>      12.22634592       0.00000000       0.00000000 </v>
     <v>       0.00000000      12.22634592       0.00000000 </v>
     <v>       0.00000000       0.00000000      12.22634592 </v>
    </varray>
    <i name="volume">   1827.63740156 </i>
    <varray name="rec_basis" >
     <v>       0.08179059       0.00000000       0.00000000 </v>
     <v>       0.00000000       0.08179059       0.00000000 </v>
     <v>       0.00000000       0.00000000       0.08179059 </v>
    </varray>
   </crystal>
   <varray name="positions" >
    <v>       0.99426450       0.00748214       0.99708089 </v>
    <v>       0.00821244       0.00799729       0.33485020 </v>
    <v>       0.00000000       0.00000000       0.66666667 </v>
    <v>       0.99994579       0.33822261       0.99311104 </v>
    <v>       0.98900911       0.33954525       0.32780744 </v>
    <v>       0.00000000       0.33333333       0.66666667 </v>
    <v>       0.00000000       0.66666667       0.00000000 </v>
    <v>       0.00000000       0.66666667       0.33333333 </v>
    <v>       0.00000000       0.66666667       0.66666667 </v>
    <v>       0.33135132       0.00277746       0.00233725 </v>
    <v>       0.33563042       0.98617369       0.34053548 </v>
    <v>       0.33333333       0.00000000       0.66666667 </v>
    <v>       0.32173188       0.34126102       0.99240495 </v>
    <v>       0.33742944       0.33416497       0.32247983 </v>
    <v>       0.33333333       0.33333333       0.66666667 </v>
    <v>       0.33333333       0.66666667       0.00000000 </v>
    <v>       0.33333333       0.66666667       0.33333333 </v>
    <v>       0.33333333       0.66666667       0.66666667 </v>
    <v>       0.66666667       0.00000000       0.00000000 </v>
    <v>       0.66666667       0.00000000       0.33333333 </v>
    <v>       0.66666667       0.00000000       0.66666667 </v>
    <v>       0.66666667       0.33333333       0.00000000 </v>
    <v>       0.66666667       0.33333333       0.33333333 </v>
    <v>       0.66666667       0.33333333       0.66666667 </v>
    <v>       0.66666667       0.66666667       0.00000000 </v>
    <v>       0.66666667       0.66666667       0.33333333 </v>
    <v>       0.66666667       0.66666667       0.66666667 </v>
    <v>       0.16729174       0.17171689       0.49449688 </v>
    <v>       0.17519018       0.16615641       0.83392719 </v>
    <v>       0.16852786       0.50064600       0.17076405 </v>
    <v>       0.16666667       0.50000000       0.50000000 </v>
    <v>       0.16666667       0.50000000       0.83333333 </v>
    <v>       0.16677679       0.84349226       0.17299892 </v>
    <v>       0.16666667       0.83333333       0.50000000 </v>
    <v>       0.16666667       0.83333333       0.83333333 </v>
    <v>       0.49931714       0.16755349       0.16706944 </v>
    <v>       0.50000000       0.16666667       0.50000000 </v>
    <v>       0.50000000       0.16666667       0.83333333 </v>
    <v>       0.50000000       0.50000000       0.16666667 </v>
    <v>       0.50000000       0.50000000       0.50000000 </v>
    <v>       0.50000000       0.50000000       0.83333333 </v>
    <v>       0.50000000       0.83333333       0.16666667 </v>
    <v>       0.50000000       0.83333333       0.50000000 </v>
    <v>       0.50000000       0.83333333       0.83333333 </v>
    <v>       0.83856624       0.16123328       0.16401104 </v>
    <v>       0.83333333       0.16666667       0.50000000 </v>
    <v>       0.83333333       0.16666667       0.83333333 </v>
    <v>       0.83333333       0.50000000       0.16666667 </v>
    <v>       0.83333333       0.50000000       0.50000000 </v>
    <v>       0.83333333       0.50000000       0.83333333 </v>
    <v>       0.83333333       0.83333333       0.16666667 </v>
    <v>       0.83333333       0.83333333       0.50000000 </v>
    <v>       0.83333333       0.83333333       0.83333333 </v>
   </varray>
  </structure>
  <varray name="primitive_index" >
   <v type="int" >        1 </v>
   <v type="int" >        2 </v>
   <v type="int" >        3 </v>
   <v type="int" >        4 </v>
   <v type="int" >        5 </v>
   <v type="int" >        6 </v>
   <v type="int" >        7 </v>
   <v type="int" >        8 </v>
   <v type="int" >        9 </v>
   <v type="int" >       10 </v>
   <v type="int" >       11 </v>
   <v type="int" >       12 </v>
   <v type="int" >       13 </v>
   <v type="int" >       14 </v>
   <v type="int" >       15 </v>
   <v type="int" >       16 </v>
   <v type="int" >       17 </v>
   <v type="int" >       18 </v>
   <v type="int" >       19 </v>
   <v type="int" >       20 </v>
   <v type="int" >       21 </v>
   <v type="int" >       22 </v>
   <v type="int" >       23 </v>
   <v type="int" >       24 </v>
   <v type="int" >       25 </v>
   <v type="int" >       26 </v>
   <v type="int" >       27 </v>
   <v type="int" >       28 </v>
   <v type="int" >       29 </v>
   <v type="int" >       30 </v>
   <v type="int" >       31 </v>
   <v type="int" >       32 </v>
   <v type="int" >       33 </v>
   <v type="int" >       34 </v>
   <v type="int" >       35 </v>
   <v type="int" >       36 </v>
   <v type="int" >       37 </v>
   <v type="int" >       38 </v>
   <v type="int" >       39 </v>
   <v type="int" >       40 </v>
   <v type="int" >       41 </v>
   <v type="int" >       42 </v>
   <v type="int" >       43 </v>
   <v type="int" >       44 </v>
   <v type="int" >       45 </v>
   <v type="int" >       46 </v>
   <v type="int" >       47 </v>
   <v type="int" >       48 </v>
   <v type="int" >       49 </v>
   <v type="int" >       50 </v>
   <v type="int" >       51 </v>
   <v type="int" >       52 </v>
   <v type="int" >       53 </v>
  </varray>
 </primitive_cell>
 <kpoints>
  <generation param="Gamma">
   <v type="int" name="divisions">       1        1        1 </v>
   <v name="usershift">      0.00000000       0.00000000       0.00000000 </v>
   <v name="genvec1">      1.00000000       0.00000000       0.00000000 </v>
   <v name="genvec2">      0.00000000       1.00000000       0.00000000 </v>
   <v name="genvec3">      0.00000000       0.00000000       1.00000000 </v>
   <v name="shift">      0.00000000       0.00000000       0.00000000 </v>
  </generation>
  <varray name="kpointlist" >
   <v>       0.00000000       0.00000000       0.00000000 </v>
  </varray>
  <varray name="weights" >
   <v>       1.00000000 </v>
  </varray>
 </kpoints>
 <parameters>
  <separator name="general" >
   <i type="string" name="SYSTEM">unknown system</i>
   <i type="logical" name="LCOMPAT"> F  </i>
  </separator>
  <separator name="electronic" >
   <i type="string" name="PREC">normal</i>
   <i name="ENMAX">    262.47200000</i>
   <i name="ENAUG">    407.93300000</i>
   <i name="EDIFF">      0.00001000</i>
   <i type="int" name="IALGO">    38</i>
   <i type="int" name="IWAVPR">    11</i>
   <i type="int" name="NBANDS">   282</i>
   <i type="int" name="NBANDSLOW">    -1</i>
   <i type="int" name="NBANDSHIGH">    -1</i>
   <i name="NELECT">    424.00000000</i>
   <i type="int" name="TURBO">     0</i>
   <i type="int" name="IRESTART">     0</i>
   <i type="int" name="NREBOOT">     0</i>
   <i type="int" name="NMIN">     0</i>
   <i name="EREF">      0.00000000</i>
   <separator name="electronic smearing" >
    <i type="int" name="ISMEAR">     0</i>
    <i name="SIGMA">      0.10000000</i>
    <i name="KSPACING">      0.50000000</i>
    <i type="logical" name="KGAMMA"> T  </i>
    <i type="logical" name="KBLOWUP"> T  </i>
   </separator>
   <separator name="electronic projectors" >
    <i type="logical" name="LREAL"> T  </i>
    <v name="ROPT">     -0.00050000     -0.00050000</v>
    <i type="int" name="LMAXPAW">  -100</i>
    <i type="int" name="LMAXMIX">     2</i>
    <i type="logical" name="NLSPLINE"> F  </i>
   </separator>
   <separator name="electronic startup" >
    <i type="int" name="ISTART">     0</i>
    <i type="int" name="ICHARG">     2</i>
    <i type="int" name="INIWAV">     1</i>
   </separator>
   <separator name="electronic spin" >
    <i type="int" name="ISPIN">     2</i>
    <i type="logical" name="LNONCOLLINEAR"> F  </i>
    <v name="MAGMOM">      1.00000000      1.00000000      1.00000000      1.00000000      1.00000000      1.00000000      1.00000000      1.00000000      1.00000000      1.00000000      1.00000000      1.00000000      1.00000000      1.00000000      1.00000000      1.00000000      1.00000000      1.00000000      1.00000000      1.00000000
      1.00000000      1.00000000      1.00000000      1.00000000      1.00000000      1.00000000      1.00000000      1.00000000      1.00000000      1.00000000      1.00000000      1.00000000      1.00000000      1.00000000      1.00000000      1.00000000      1.00000000      1.00000000      1.00000000      1.00000000
      1.00000000      1.00000000      1.00000000      1.00000000      1.00000000      1.00000000      1.00000000      1.00000000      1.00000000      1.00000000      1.00000000      1.00000000      1.00000000</v>
    <i name="NUPDOWN">     -1.00000000</i>
    <i type="logical" name="LSORBIT"> F  </i>
    <v name="SAXIS">      0.00000000      0.00000000      1.00000000</v>
    <i type="logical" name="LSPIRAL"> F  </i>
    <v name="QSPIRAL">      0.00000000      0.00000000      0.00000000</v>
    <i type="logical" name="LZEROZ"> F  </i>
   </separator>
   <separator name="electronic exchange-correlation" >
    <i type="logical" name="LASPH"> T  </i>
   </separator>
   <separator name="electronic convergence" >
    <i type="int" name="NELM">   100</i>
    <i type="int" name="NELMDL">    -5</i>
    <i type="int" name="NELMIN">     2</i>
    <i name="ENINI">    262.47200000</i>
    <separator name="electronic convergence detail" >
     <i type="logical" name="LDIAG"> T  </i>
     <i type="logical" name="LSUBROT"> F  </i>
     <i type="logical" name="LROBUST"> F  </i>
     <i type="int" name="ISEARCH">     0</i>
     <i name="WEIMIN">      0.00100000</i>
     <i name="EBREAK">      0.00000001</i>
     <i name="DEPER">      0.30000000</i>
     <i type="int" name="NRMM">     4</i>
     <i name="TIME">      0.40000000</i>
    </separator>
   </separator>
   <separator name="electronic mixer" >
    <i name="AMIX">      0.40000000</i>
    <i name="BMIX">      1.00000000</i>
    <i name="AMIN">      0.10000000</i>
    <i name="AMIX_MAG">      1.60000000</i>
    <i name="BMIX_MAG">      1.00000000</i>
    <separator name="electronic mixer details" >
     <i type="int" name="IMIX">     4</i>
     <i type="logical" name="MIXFIRST"> F  </i>
     <i type="int" name="MAXMIX">   -45</i>
     <i name="WC">    100.00000000</i>
     <i type="int" name="INIMIX">     1</i>
     <i type="int" name="MIXPRE">     1</i>
     <i type="int" name="MREMOVE">     5</i>
    </separator>
   </separator>
   <separator name="electronic dipolcorrection" >
    <i type="logical" name="LDIPOL"> F  </i>
    <i type="logical" name="LMONO"> F  </i>
    <i type="int" name="IDIPOL">     0</i>
    <i name="EPSILON">      1.00000000</i>
    <v name="DIPOL">   -100.00000000   -100.00000000   -100.00000000</v>
    <i name="EFIELD">      0.00000000</i>
    <i type="logical" name="LVACPOTAV"> F  </i>
   </separator>
  </separator>
  <separator name="grids" >
   <i type="int" name="NGX">    48</i>
   <i type="int" name="NGY">    48</i>
   <i type="int" name="NGZ">    48</i>
   <i type="int" name="NGXF">    96</i>
   <i type="int" name="NGYF">    96</i>
   <i type="int" name="NGZF">    96</i>
   <i type="logical" name="ADDGRID"> F  </i>
  </separator>
  <separator name="ionic" >
   <i type="int" name="NSW">   300</i>
   <i type="int" name="IBRION">     2</i>
   <i type="int" name="MDALGO">     0</i>
   <i type="int" name="ISIF">     2</i>
   <i name="PSTRESS">      0.00000000</i>
   <i name="EDIFFG">     -0.03000000</i>
   <i type="int" name="NFREE">     1</i>
   <i name="POTIM">      0.50000000</i>
   <i name="SMASS">     -3.00000000</i>
   <i name="SCALEE">      1.00000000</i>
  </separator>
  <separator name="ionic md" >
   <i name="TEBEG">      0.00010000</i>
   <i name="TEEND">      0.00010000</i>
   <i type="int" name="NBLOCK">     1</i>
   <i type="int" name="KBLOCK">   300</i>
   <i type="int" name="NPACO">   256</i>
   <i name="APACO">     10.00000000</i>
  </separator>
  <separator name="symmetry" >
   <i type="int" name="ISYM">     2</i>
   <i name="SYMPREC">      0.00001000</i>
  </separator>
  <separator name="dos" >
   <i type="int" name="LORBIT">    10</i>
   <v name="RWIGS">     -1.00000000     -1.00000000</v>
   <i type="int" name="NEDOS">   301</i>
   <i name="EMIN">     10.00000000</i>
   <i name="EMAX">    -10.00000000</i>
   <i name="EFERMI">      0.00000000</i>
  </separator>
  <separator name="writing" >
   <i type="int" name="NWRITE">     2</i>
   <i type="logical" name="LWAVE"> F  </i>
   <i type="logical" name="LDOWNSAMPLE"> F  </i>
   <i type="logical" name="LCHARG"> F  </i>
   <i type="logical" name="LPARD"> F  </i>
   <i type="logical" name="LVTOT"> F  </i>
   <i type="logical" name="LVHAR"> F  </i>
   <i type="logical" name="LELF"> F  </i>
   <i type="logical" name="LOPTICS"> F  </i>
   <v name="STM">      0.00000000      0.00000000      0.00000000      0.00000000      0.00000000      0.00000000      0.00000000</v>
  </separator>
  <separator name="performance" >
   <i type="int" name="NPAR">     2</i>
   <i type="int" name="NSIM">     4</i>
   <i type="int" name="NBLK">    -1</i>
   <i type="logical" name="LPLANE"> T  </i>
   <i type="logical" name="LSCALAPACK"> T  </i>
   <i type="logical" name="LSCAAWARE"> F  </i>
   <i type="logical" name="LSCALU"> F  </i>
   <i type="logical" name="LASYNC"> F  </i>
   <i type="logical" name="LORBITALREAL"> F  </i>
  </separator>
  <separator name="miscellaneous" >
   <i type="int" name="IDIOT">     3</i>
   <i type="int" name="PHON_NSTRUCT">    -1</i>
   <i type="logical" name="LMUSIC"> F  </i>
   <v name="POMASS">    132.90000000     35.45300000</v>
   <v name="DARWINR">      0.00000000      0.00000000</v>
   <v name="DARWINV">      1.00000000      1.00000000</v>
   <i type="logical" name="LCORR"> T  </i>
  </separator>
  <i type="logical" name="GGA_COMPAT"> T  </i>
  <i type="logical" name="LBERRY"> F  </i>
  <i type="int" name="ICORELEVEL">     0</i>
  <i type="logical" name="LDAU"> F  </i>
  <i type="int" name="I_CONSTRAINED_M">     0</i>
  <separator name="electronic exchange-correlation" >
   <i type="string" name="GGA    ">PS</i>
   <i type="string" name="XC_C">1</i>
   <i type="int" name="VOSKOWN">     0</i>
   <i type="logical" name="LHFCALC"> F  </i>
   <i type="string" name="PRECFOCK"></i>
   <i type="logical" name="LSYMGRAD"> F  </i>
   <i type="logical" name="LHFONE"> F  </i>
   <i type="logical" name="LRHFCALC"> F  </i>
   <i type="logical" name="LTHOMAS"> F  </i>
   <i type="logical" name="LMODELHF"> F  </i>
   <i type="logical" name="LFOCKACE"> F  </i>
   <i name="ENCUT4O">     -1.00000000</i>
   <i type="int" name="EXXOEP">     0</i>
   <i type="int" name="FOURORBIT">     0</i>
   <i name="AEXX">      0.00000000</i>
   <i name="HFALPHA">      0.00000000</i>
   <i name="MCALPHA">      0.00000000</i>
   <i name="ALDAX">      1.00000000</i>
   <i name="AGGAX">      1.00000000</i>
   <i name="AMGGAX">      1.00000000</i>
   <i name="ALDAC">      1.00000000</i>
   <i name="AGGAC">      1.00000000</i>
   <i name="AMGGAC">      1.00000000</i>
   <i type="int" name="NKREDX">     1</i>
   <i type="int" name="NKREDY">     1</i>
   <i type="int" name="NKREDZ">     1</i>
   <i type="logical" name="SHIFTRED"> F  </i>
   <i type="logical" name="ODDONLY"> F  </i>
   <i type="logical" name="EVENONLY"> F  </i>
   <i type="int" name="LMAXFOCK">     0</i>
   <i type="int" name="NMAXFOCKAE">     0</i>
   <i type="logical" name="LFOCKAEDFT"> F  </i>
   <i name="HFSCREEN">      0.00000000</i>
   <i name="HFSCREENC">      0.00000000</i>
   <i type="int" name="NBANDSGWLOW">     0</i>
  </separator>
  <separator name="vdW DFT" >
   <i type="logical" name="LUSE_VDW"> F  </i>
   <i type="int" name="IVDW_NL">    -1</i>
   <i type="logical" name="LSPIN_VDW"> F  </i>
   <i name="ZAB_VDW">     -0.84910000</i>
   <i name="GAMMA_VDW">      1.39626340</i>
   <i name="ALPHA_VDW">      0.00000000</i>
   <i name="PARAM1">      0.12340000</i>
   <i name="PARAM2">      1.00000000</i>
   <i name="BPARAM">      6.30000000</i>
   <i name="CPARAM">      0.00930000</i>
  </separator>
  <separator name="model GW" >
   <i type="int" name="MODEL_GW">     0</i>
   <i name="MODEL_EPS0">     20.69023473</i>
   <i name="MODEL_ALPHA">      1.00000000</i>
  </separator>
  <separator name="linear response parameters" >
   <i type="logical" name="LEPSILON"> F  </i>
   <i type="logical" name="LRPA"> F  </i>
   <i type="logical" name="LNABLA"> F  </i>
   <i type="logical" name="LVEL"> F  </i>
   <i name="CSHIFT">      0.10000000</i>
   <i name="OMEGAMAX">     -1.00000000</i>
   <i name="DEG_THRESHOLD">      0.00200000</i>
   <i name="RTIME">     -0.10000000</i>
   <i name="WPLASMAI">      0.00000000</i>
   <v name="DFIELD">      0.00000000      0.00000000      0.00000000</v>
   <v name="WPLASMA">      0.00000000      0.00000000      0.00000000      0.00000000      0.00000000      0.00000000      0.00000000      0.00000000      0.00000000</v>
  </separator>
  <separator name="orbital magnetization" >
   <i type="logical" name="NUCIND"> F  </i>
   <v name="MAGPOS">      0.00000000      0.00000000      0.00000000</v>
   <i type="logical" name="LNICSALL"> T  </i>
   <i type="logical" name="ORBITALMAG"> F  </i>
   <i type="logical" name="LMAGBLOCH"> F  </i>
   <i type="logical" name="LCHIMAG"> F  </i>
   <i type="logical" name="LGAUGE"> T  </i>
   <i type="int" name="MAGATOM">     0</i>
   <v name="MAGDIPOL">      0.00000000      0.00000000      0.00000000</v>
   <v name="AVECCONST">      0.00000000      0.00000000      0.00000000</v>
  </separator>
  <separator name="response functions" >
   <i type="logical" name="LALL_IN_ONE"> F  </i>
   <i type="int" name="IALL_IN_ONE">    -1</i>
   <i type="int" name="NBANDS_WAVE">    -1</i>
   <i type="logical" name="LFINITE_TEMPERATURE"> F  </i>
   <i type="logical" name="LADDER"> F  </i>
   <i type="logical" name="LRPAFORCE"> F  </i>
   <i type="logical" name="LFXC"> F  </i>
   <i type="logical" name="LHARTREE"> T  </i>
   <i type="int" name="IBSE">     2</i>
   <v type="int" name="KPOINT">    -1     0     0     0</v>
   <i type="logical" name="LTCTC"> F  </i>
   <i type="logical" name="LTCTE"> F  </i>
   <i type="logical" name="LTETE"> F  </i>
   <i type="logical" name="LTRIPLET"> F  </i>
   <i type="logical" name="LFXCEPS"> F  </i>
   <i type="logical" name="LFXHEG"> F  </i>
   <i type="int" name="NATURALO">     2</i>
   <i type="logical" name="LHOLEGF"> F  </i>
   <i type="logical" name="L2ORDER"> F  </i>
   <i type="logical" name="LDMP1"> F  </i>
   <i type="logical" name="LMP2LT"> F  </i>
   <i type="logical" name="LSMP2LT"> F  </i>
   <i type="logical" name="LGWLF"> F  </i>
   <i name="ENCUTGW">     -1.60000002</i>
   <i name="ENCUTGWSOFT">     -1.60000002</i>
   <i name="ENCUTLF">     -1.00000000</i>
   <i type="logical" name="ESF_SPLINES"> F  </i>
   <i name="ESF_CONV">      0.01000000</i>
   <i type="int" name="ESF_NINTER">    15</i>
   <i type="int" name="LMAXMP2">    -1</i>
   <i name="SCISSOR">      0.00000000</i>
   <i type="int" name="NOMEGA">     0</i>
   <i type="int" name="NOMEGAR">     0</i>
   <i type="int" name="NBANDSGW">    -1</i>
   <i type="int" name="NBANDSO">    -1</i>
   <i type="int" name="NBANDSV">    -1</i>
   <i type="int" name="NELMGW">     1</i>
   <i type="int" name="NELMHF">     1</i>
   <i type="int" name="DIM">     3</i>
   <i type="int" name="IESPILON">     4</i>
   <i type="int" name="ANTIRES">     0</i>
   <i name="OMEGAMAX">    -30.00000000</i>
   <i name="OMEGAMIN">    -30.00000000</i>
   <i name="OMEGATL">   -200.00000000</i>
   <i type="int" name="OMEGAGRID">     0</i>
   <i name="CSHIFT">     -0.10000000</i>
   <i type="logical" name="LSELFENERGY"> F  </i>
   <i type="logical" name="LSPECTRAL"> F  </i>
   <i type="logical" name="LSPECTRALGW"> F  </i>
   <i type="logical" name="LSINGLES"> F  </i>
   <i type="logical" name="LFERMIGW"> F  </i>
   <i type="logical" name="ODDONLYGW"> F  </i>
   <i type="logical" name="EVENONLYGW"> F  </i>
   <i type="int" name="NKREDLFX">     1</i>
   <i type="int" name="NKREDLFY">     1</i>
   <i type="int" name="NKREDLFZ">     1</i>
   <i type="int" name="MAXMEM">  2800</i>
   <i type="int" name="TELESCOPE">     0</i>
   <i type="int" name="NTAUPAR">    -1</i>
   <i type="int" name="NOMEGAPAR">    -1</i>
   <i name="DAMP_NEWTON">      0.80000001</i>
   <i name="LAMBDA">      1.00000000</i>
  </separator>
  <separator name="External order field" >
   <i name="OFIELD_KAPPA">      0.00000000</i>
   <v name="OFIELD_K">      0.00000000      0.00000000      0.00000000</v>
   <i name="OFIELD_Q6_NEAR">      0.00000000</i>
   <i name="OFIELD_Q6_FAR">      0.00000000</i>
   <i name="OFIELD_A">      0.00000000</i>
  </separator>
  <separator name="optional k-points parameters" >
   <i type="int" name="KPOINTS_OPT_MODE">     1</i>
   <i type="logical" name="LKPOINTS_OPT"> F  </i>
  </separator>
 </parameters>
 <atominfo>
  <atoms>      53 </atoms>
  <types>       2 </types>
  <array name="atoms" >
   <dimension dim="1">ion</dimension>
   <field type="string">element</field>
   <field type="int">atomtype</field>
   <set>
    <rc><c>Cs</c><c>   1</c></rc>
    <rc><c>Cs</c><c>   1</c></rc>
    <rc><c>Cs</c><c>   1</c></rc>
    <rc><c>Cs</c><c>   1</c></rc>
    <rc><c>Cs</c><c>   1</c></rc>
    <rc><c>Cs</c><c>   1</c></rc>
    <rc><c>Cs</c><c>   1</c></rc>
    <rc><c>Cs</c><c>   1</c></rc>
    <rc><c>Cs</c><c>   1</c></rc>
    <rc><c>Cs</c><c>   1</c></rc>
    <rc><c>Cs</c><c>   1</c></rc>
    <rc><c>Cs</c><c>   1</c></rc>
    <rc><c>Cs</c><c>   1</c></rc>
    <rc><c>Cs</c><c>   1</c></rc>
    <rc><c>Cs</c><c>   1</c></rc>
    <rc><c>Cs</c><c>   1</c></rc>
    <rc><c>Cs</c><c>   1</c></rc>
    <rc><c>Cs</c><c>   1</c></rc>
    <rc><c>Cs</c><c>   1</c></rc>
    <rc><c>Cs</c><c>   1</c></rc>
    <rc><c>Cs</c><c>   1</c></rc>
    <rc><c>Cs</c><c>   1</c></rc>
    <rc><c>Cs</c><c>   1</c></rc>
    <rc><c>Cs</c><c>   1</c></rc>
    <rc><c>Cs</c><c>   1</c></rc>
    <rc><c>Cs</c><c>   1</c></rc>
    <rc><c>Cs</c><c>   1</c></rc>
    <rc><c>Cl</c><c>   2</c></rc>
    <rc><c>Cl</c><c>   2</c></rc>
    <rc><c>Cl</c><c>   2</c></rc>
    <rc><c>Cl</c><c>   2</c></rc>
    <rc><c>Cl</c><c>   2</c></rc>
    <rc><c>Cl</c><c>   2</c></rc>
    <rc><c>Cl</c><c>   2</c></rc>
    <rc><c>Cl</c><c>   2</c></rc>
    <rc><c>Cl</c><c>   2</c></rc>
    <rc><c>Cl</c><c>   2</c></rc>
    <rc><c>Cl</c><c>   2</c></rc>
    <rc><c>Cl</c><c>   2</c></rc>
    <rc><c>Cl</c><c>   2</c></rc>
    <rc><c>Cl</c><c>   2</c></rc>
    <rc><c>Cl</c><c>   2</c></rc>
    <rc><c>Cl</c><c>   2</c></rc>
    <rc><c>Cl</c><c>   2</c></rc>
    <rc><c>Cl</c><c>   2</c></rc>
    <rc><c>Cl</c><c>   2</c></rc>
    <rc><c>Cl</c><c>   2</c></rc>
    <rc><c>Cl</c><c>   2</c></rc>
    <rc><c>Cl</c><c>   2</c></rc>
    <rc><c>Cl</c><c>   2</c></rc>
    <rc><c>Cl</c><c>   2</c></rc>
    <rc><c>Cl</c><c>   2</c></rc>
    <rc><c>Cl</c><c>   2</c></rc>
   </set>
  </array>
  <array name="atomtypes" >
   <dimension dim="1">type</dimension>
   <field type="int">atomspertype</field>
   <field type="string">element</field>
   <field>mass</field>
   <field>valence</field>
   <field type="string">pseudopotential</field>
   <set>
    <rc><c>  27</c><c>Cs</c><c>    132.90000000</c><c>      9.00000000</c><c>  PAW_PBE Cs_sv 08Apr2002               </c></rc>
    <rc><c>  26</c><c>Cl</c><c>     35.45300000</c><c>      7.00000000</c><c>  PAW_PBE Cl 06Sep2000                  </c></rc>
   </set>
  </array>
 </atominfo>
 <structure name="initialpos" >
  <crystal>
   <varray name="basis" >
    <v>      12.22634592       0.00000000       0.00000000 </v>
    <v>       0.00000000      12.22634592       0.00000000 </v>
    <v>       0.00000000       0.00000000      12.22634592 </v>
   </varray>
   <i name="volume">   1827.63740156 </i>
   <varray name="rec_basis" >
    <v>       0.08179059       0.00000000       0.00000000 </v>
    <v>       0.00000000       0.08179059       0.00000000 </v>
    <v>       0.00000000       0.00000000       0.08179059 </v>
   </varray>
  </crystal>
  <varray name="positions" >
   <v>       0.99426450       0.00748214       0.99708089 </v>
   <v>       0.00821244       0.00799729       0.33485020 </v>
   <v>       0.00000000       0.00000000       0.66666667 </v>
   <v>       0.99994579       0.33822261       0.99311104 </v>
   <v>       0.98900911       0.33954525       0.32780744 </v>
   <v>       0.00000000       0.33333333       0.66666667 </v>
   <v>       0.00000000       0.66666667       0.00000000 </v>
   <v>       0.00000000       0.66666667       0.33333333 </v>
   <v>       0.00000000       0.66666667       0.66666667 </v>
   <v>       0.33135132       0.00277746       0.00233725 </v>
   <v>       0.33563042       0.98617369       0.34053548 </v>
   <v>       0.33333333       0.00000000       0.66666667 </v>
   <v>       0.32173188       0.34126102       0.99240495 </v>
   <v>       0.33742944       0.33416497       0.32247983 </v>
   <v>       0.33333333       0.33333333       0.66666667 </v>
   <v>       0.33333333       0.66666667       0.00000000 </v>
   <v>       0.33333333       0.66666667       0.33333333 </v>
   <v>       0.33333333       0.66666667       0.66666667 </v>
   <v>       0.66666667       0.00000000       0.00000000 </v>
   <v>       0.66666667       0.00000000       0.33333333 </v>
   <v>       0.66666667       0.00000000       0.66666667 </v>
   <v>       0.66666667       0.33333333       0.00000000 </v>
   <v>       0.66666667       0.33333333       0.33333333 </v>
   <v>       0.66666667       0.33333333       0.66666667 </v>
   <v>       0.66666667       0.66666667       0.00000000 </v>
   <v>       0.66666667       0.66666667       0.33333333 </v>
   <v>       0.66666667       0.66666667       0.66666667 </v>
   <v>       0.16729174       0.17171689       0.49449688 </v>
   <v>       0.17519018       0.16615641       0.83392719 </v>
   <v>       0.16852786       0.50064600       0.17076405 </v>
   <v>       0.16666667       0.50000000       0.50000000 </v>
   <v>       0.16666667       0.50000000       0.83333333 </v>
   <v>       0.16677679       0.84349226       0.17299892 </v>
   <v>       0.16666667       0.83333333       0.50000000 </v>
   <v>       0.16666667       0.83333333       0.83333333 </v>
   <v>       0.49931714       0.16755349       0.16706944 </v>
   <v>       0.50000000       0.16666667       0.50000000 </v>
   <v>       0.50000000       0.16666667       0.83333333 </v>
   <v>       0.50000000       0.50000000       0.16666667 </v>
   <v>       0.50000000       0.50000000       0.50000000 </v>
   <v>       0.50000000       0.50000000       0.83333333 </v>
   <v>       0.50000000       0.83333333       0.16666667 </v>
   <v>       0.50000000       0.83333333       0.50000000 </v>
   <v>       0.50000000       0.83333333       0.83333333 </v>
   <v>       0.83856624       0.16123328       0.16401104 </v>
   <v>       0.83333333       0.16666667       0.50000000 </v>
   <v>       0.83333333       0.16666667       0.83333333 </v>
   <v>       0.83333333       0.50000000       0.16666667 </v>
   <v>       0.83333333       0.50000000       0.50000000 </v>
   <v>       0.83333333       0.50000000       0.83333333 </v>
   <v>       0.83333333       0.83333333       0.16666667 </v>
   <v>       0.83333333       0.83333333       0.50000000 </v>
   <v>       0.83333333       0.83333333       0.83333333 </v>
  </varray>
 </structure>
 <calculation>
  <scstep>
   <time name="dav">    0.60    0.96</time>
   <time name="total">    3.46    3.85</time>
   <energy>
    <i name="alphaZ">   1436.48757412 </i>
    <i name="ewald"> -21813.34278416 </i>
    <i name="hartreedc">  -3540.62809052 </i>
    <i name="XCdc">    832.66554279 </i>
    <i name="pawpsdc">  19905.73909771 </i>
    <i name="pawaedc"> -19710.81889590 </i>
    <i name="eentropy">     -0.08671016 </i>
    <i name="bandstr">   -405.86528534 </i>
    <i name="atom">  25630.00721240 </i>
    <i name="e_fr_energy">   2334.15766094 </i>
    <i name="e_wo_entrp">   2334.24437110 </i>
    <i name="e_0_energy">   2334.20101602 </i>
   </energy>
  </scstep>
  <scstep>
   <time name="dav">    0.55    0.55</time>
   <time name="total">    0.55    0.55</time>
   <energy>
    <i name="e_fr_energy">     29.67710069 </i>
    <i name="e_wo_entrp">     29.67710069 </i>
    <i name="e_0_energy">     29.67710069 </i>
   </energy>
  </scstep>
  <scstep>
   <time name="dav">    0.54    0.54</time>
   <time name="total">    0.54    0.54</time>
   <energy>
    <i name="e_fr_energy">   -179.15827433 </i>
    <i name="e_wo_entrp">   -179.15827433 </i>
    <i name="e_0_energy">   -179.15827433 </i>
   </energy>
  </scstep>
  <scstep>
   <time name="dav">    0.53    0.53</time>
   <time name="total">    0.53    0.53</time>
   <energy>
    <i name="e_fr_energy">   -182.31014916 </i>
    <i name="e_wo_entrp">   -182.31014916 </i>
    <i name="e_0_energy">   -182.31014916 </i>
   </energy>
  </scstep>
  <scstep>
   <time name="dav">    0.53    0.53</time>
   <time name="total">    0.59    0.59</time>
   <energy>
    <i name="e_fr_energy">   -182.37048461 </i>
    <i name="e_wo_entrp">   -182.37048461 </i>
    <i name="e_0_energy">   -182.37048461 </i>
   </energy>
  </scstep>
  <scstep>
   <time name="dav">    0.51    0.52</time>
   <time name="total">    2.98    2.99</time>
   <energy>
    <i name="e_fr_energy">   -176.50192123 </i>
    <i name="e_wo_entrp">   -176.50192123 </i>
    <i name="e_0_energy">   -176.50192123 </i>
   </energy>
  </scstep>
  <scstep>
   <time name="dav">    0.54    0.73</time>
   <time name="total">    2.91    3.28</time>
   <energy>
    <i name="e_fr_energy">   -179.10490844 </i>
    <i name="e_wo_entrp">   -179.10490844 </i>
    <i name="e_0_energy">   -179.10490844 </i>
   </energy>
  </scstep>
  <scstep>
   <time name="dav">    0.53    0.54</time>
   <time name="total">    2.88    2.88</time>
   <energy>
    <i name="e_fr_energy">   -181.13705201 </i>
    <i name="e_wo_entrp">   -181.13705201 </i>
    <i name="e_0_energy">   -181.13705201 </i>
   </energy>
  </scstep>
  <scstep>
   <time name="dav">    0.55    0.55</time>
   <time name="total">    2.85    2.89</time>
   <energy>
    <i name="e_fr_energy">   -182.13653517 </i>
    <i name="e_wo_entrp">   -182.13653517 </i>
    <i name="e_0_energy">   -182.13653517 </i>
   </energy>
  </scstep>
  <scstep>
   <time name="dav">    0.53    0.53</time>
   <time name="total">    2.82    2.82</time>
   <energy>
    <i name="e_fr_energy">   -182.22756833 </i>
    <i name="e_wo_entrp">   -182.22756833 </i>
    <i name="e_0_energy">   -182.22756833 </i>
   </energy>
  </scstep>
  <scstep>
   <time name="dav">    0.54    0.54</time>
   <time name="total">    2.62    2.63</time>
   <energy>
    <i name="e_fr_energy">   -182.25337032 </i>
    <i name="e_wo_entrp">   -182.25337032 </i>
    <i name="e_0_energy">   -182.25337032 </i>
   </energy>
  </scstep>
  <scstep>
   <time name="dav">    0.52    0.52</time>
   <time name="total">    2.60    2.61</time>
   <energy>
    <i name="e_fr_energy">   -182.26668324 </i>
    <i name="e_wo_entrp">   -182.26668324 </i>
    <i name="e_0_energy">   -182.26668324 </i>
   </energy>
  </scstep>
  <scstep>
   <time name="dav">    0.53    0.53</time>
   <time name="total">    2.62    2.62</time>
   <energy>
    <i name="e_fr_energy">   -182.26722843 </i>
    <i name="e_wo_entrp">   -182.26722843 </i>
    <i name="e_0_energy">   -182.26722843 </i>
   </energy>
  </scstep>
  <scstep>
   <time name="dav">    0.52    0.52</time>
   <time name="total">    2.60    2.61</time>
   <energy>
    <i name="e_fr_energy">   -182.26773059 </i>
    <i name="e_wo_entrp">   -182.26773059 </i>
    <i name="e_0_energy">   -182.26773059 </i>
   </energy>
  </scstep>
  <scstep>
   <time name="dav">    0.53    0.53</time>
   <time name="total">    2.61    2.62</time>
   <energy>
    <i name="e_fr_energy">   -182.26802249 </i>
    <i name="e_wo_entrp">   -182.26802249 </i>
    <i name="e_0_energy">   -182.26802249 </i>
   </energy>
  </scstep>
  <scstep>
   <time name="dav">    0.52    0.53</time>
   <time name="total">    2.71    2.71</time>
   <energy>
    <i name="e_fr_energy">   -182.26806338 </i>
    <i name="e_wo_entrp">   -182.26806338 </i>
    <i name="e_0_energy">   -182.26806338 </i>
   </energy>
  </scstep>
  <scstep>
   <time name="dav">    0.39    0.40</time>
   <time name="total">    2.52    2.52</time>
   <energy>
    <i name="alphaZ">   1436.48757412 </i>
    <i name="ewald"> -21813.34278416 </i>
    <i name="hartreedc">  -3673.22416574 </i>
    <i name="XCdc">    838.61697711 </i>
    <i name="pawpsdc">  24187.46546493 </i>
    <i name="pawaedc"> -23999.65794610 </i>
    <i name="eentropy">     -0.00000000 </i>
    <i name="bandstr">  -2788.62039698 </i>
    <i name="atom">  25630.00721240 </i>
    <i name="e_fr_energy">   -182.26806441 </i>
    <i name="e_wo_entrp">   -182.26806441 </i>
    <i name="e_0_energy">   -182.26806441 </i>
   </energy>
  </scstep>
  <structure>
   <crystal>
    <varray name="basis" >
     <v>      12.22634592       0.00000000       0.00000000 </v>
     <v>       0.00000000      12.22634592       0.00000000 </v>
     <v>       0.00000000       0.00000000      12.22634592 </v>
    </varray>
    <i name="volume">   1827.63740156 </i>
    <varray name="rec_basis" >
     <v>       0.08179059       0.00000000       0.00000000 </v>
     <v>       0.00000000       0.08179059       0.00000000 </v>
     <v>       0.00000000       0.00000000       0.08179059 </v>
    </varray>
   </crystal>
   <varray name="positions" >
    <v>       0.99426450       0.00748214       0.99708089 </v>
    <v>       0.00821244       0.00799729       0.33485020 </v>
    <v>       0.00000000       0.00000000       0.66666667 </v>
    <v>       0.99994579       0.33822261       0.99311104 </v>
    <v>       0.98900911       0.33954525       0.32780744 </v>
    <v>       0.00000000       0.33333333       0.66666667 </v>
    <v>       0.00000000       0.66666667       0.00000000 </v>
    <v>       0.00000000       0.66666667       0.33333333 </v>
    <v>       0.00000000       0.66666667       0.66666667 </v>
    <v>       0.33135132       0.00277746       0.00233725 </v>
    <v>       0.33563042       0.98617369       0.34053548 </v>
    <v>       0.33333333       0.00000000       0.66666667 </v>
    <v>       0.32173188       0.34126102       0.99240495 </v>
    <v>       0.33742944       0.33416497       0.32247983 </v>
    <v>       0.33333333       0.33333333       0.66666667 </v>
    <v>       0.33333333       0.66666667       0.00000000 </v>
    <v>       0.33333333       0.66666667       0.33333333 </v>
    <v>       0.33333333       0.66666667       0.66666667 </v>
    <v>       0.66666667       0.00000000       0.00000000 </v>
    <v>       0.66666667       0.00000000       0.33333333 </v>
    <v>       0.66666667       0.00000000       0.66666667 </v>
    <v>       0.66666667       0.33333333       0.00000000 </v>
    <v>       0.66666667       0.33333333       0.33333333 </v>
    <v>       0.66666667       0.33333333       0.66666667 </v>
    <v>       0.66666667       0.66666667       0.00000000 </v>
    <v>       0.66666667       0.66666667       0.33333333 </v>
    <v>       0.66666667       0.66666667       0.66666667 </v>
    <v>       0.16729174       0.17171689       0.49449688 </v>
    <v>       0.17519018       0.16615641       0.83392719 </v>
    <v>       0.16852786       0.50064600       0.17076405 </v>
    <v>       0.16666667       0.50000000       0.50000000 </v>
    <v>       0.16666667       0.50000000       0.83333333 </v>
    <v>       0.16677679       0.84349226       0.17299892 </v>
    <v>       0.16666667       0.83333333       0.50000000 </v>
    <v>       0.16666667       0.83333333       0.83333333 </v>
    <v>       0.49931714       0.16755349       0.16706944 </v>
    <v>       0.50000000       0.16666667       0.50000000 </v>
    <v>       0.50000000       0.16666667       0.83333333 </v>
    <v>       0.50000000       0.50000000       0.16666667 </v>
    <v>       0.50000000       0.50000000       0.50000000 </v>
    <v>       0.50000000       0.50000000       0.83333333 </v>
    <v>       0.50000000       0.83333333       0.16666667 </v>
    <v>       0.50000000       0.83333333       0.50000000 </v>
    <v>       0.50000000       0.83333333       0.83333333 </v>
    <v>       0.83856624       0.16123328       0.16401104 </v>
    <v>       0.83333333       0.16666667       0.50000000 </v>
    <v>       0.83333333       0.16666667       0.83333333 </v>
    <v>       0.83333333       0.50000000       0.16666667 </v>
    <v>       0.83333333       0.50000000       0.50000000 </v>
    <v>       0.83333333       0.50000000       0.83333333 </v>
    <v>       0.83333333       0.83333333       0.16666667 </v>
    <v>       0.83333333       0.83333333       0.50000000 </v>
    <v>       0.83333333       0.83333333       0.83333333 </v>
   </varray>
  </structure>
  <varray name="forces" >
   <v>      -0.09034634      -0.33846827      -0.14364747 </v>
   <v>      -0.29744966      -0.25689848       0.17617769 </v>
   <v>      -0.02941097      -0.04982631      -0.03045045 </v>
   <v>      -0.25361444       0.12184820      -0.13581456 </v>
   <v>       0.00315315       0.12043070       0.30119015 </v>
   <v>      -0.01832826       0.02930872      -0.10183892 </v>
   <v>      -0.04311252       0.10770704      -0.01264837 </v>
   <v>      -0.04378703       0.08796421       0.06930460 </v>
   <v>      -0.01832606       0.01480774      -0.02589602 </v>
   <v>       0.26808194      -0.22843112      -0.19682325 </v>
   <v>       0.21214184       0.09686075       0.13709126 </v>
   <v>       0.06785166      -0.02471513       0.01302072 </v>
   <v>       0.46342976       0.08663273      -0.09358866 </v>
   <v>       0.10996544       0.10656391       0.37788404 </v>
   <v>       0.08359868       0.03575156      -0.12890710 </v>
   <v>       0.06674030       0.08726795      -0.02449181 </v>
   <v>       0.04709666      -0.05567526       0.06969653 </v>
   <v>       0.02411008      -0.00115447      -0.01582064 </v>
   <v>      -0.05623527      -0.06201012      -0.03779865 </v>
   <v>       0.03816915      -0.04109056       0.03679001 </v>
   <v>      -0.01486774      -0.01433411      -0.00679494 </v>
   <v>      -0.07295577       0.01493353      -0.03512064 </v>
   <v>      -0.05248965       0.01162697       0.06183122 </v>
   <v>      -0.03010250       0.00425274      -0.01212916 </v>
   <v>      -0.00820840       0.02379027      -0.01323448 </v>
   <v>       0.00281618       0.01864796       0.02078731 </v>
   <v>      -0.00498134       0.00908854      -0.00568107 </v>
   <v>       0.00179784      -0.05133526      -0.18044813 </v>
   <v>      -0.23166086       0.03020592       0.22176861 </v>
   <v>      -0.08552882      -0.21451458      -0.13468264 </v>
   <v>      -0.01755578      -0.04051600      -0.05926999 </v>
   <v>      -0.05096959      -0.01728862       0.04756120 </v>
   <v>      -0.02465441       0.09401577      -0.15722580 </v>
   <v>      -0.02218813       0.04584619      -0.00327305 </v>
   <v>      -0.01415356       0.06265235       0.09412176 </v>
   <v>      -0.22513597      -0.02333714      -0.04078542 </v>
   <v>      -0.04813240       0.00114101      -0.06456307 </v>
   <v>      -0.04971363       0.01790193       0.07895475 </v>
   <v>      -0.04928399      -0.03707824      -0.04334007 </v>
   <v>      -0.03450350      -0.04406690      -0.06623293 </v>
   <v>      -0.07072767      -0.03993665       0.06495435 </v>
   <v>      -0.06461762       0.03586935      -0.01218268 </v>
   <v>      -0.01942175      -0.00232217      -0.01151511 </v>
   <v>      -0.06058321       0.04295933       0.05930698 </v>
   <v>       0.17357902       0.17040426       0.03499423 </v>
   <v>       0.07009774       0.02334121      -0.06654152 </v>
   <v>       0.09497544       0.03881680       0.04339688 </v>
   <v>       0.05169915      -0.06009725      -0.05891471 </v>
   <v>       0.03602214      -0.04798874      -0.04551627 </v>
   <v>       0.07287070      -0.05083850       0.05863866 </v>
   <v>       0.08395429       0.05058524      -0.01655469 </v>
   <v>       0.06743833       0.05565340      -0.03812606 </v>
   <v>       0.06345730       0.05504762       0.05238741 </v>
  </varray>
  <varray name="stress" >
   <v>     -12.81539535      -0.22409507       0.16264879 </v>
   <v>      -0.22409496     -12.77106978      -0.06530001 </v>
   <v>       0.16264923      -0.06529949     -12.82183825 </v>
  </varray>
  <energy>
   <i name="e_fr_energy">   -182.26806441 </i>
   <i name="e_wo_entrp">   -182.26806441 </i>
   <i name="e_0_energy">   -182.26806441 </i>
  </energy>
  <time name="totalsc">   43.55   44.65</time>
 </calculation>
 <calculation>
  <scstep>
   <time name="dav">    0.47    0.48</time>
   <time name="total">    2.64    2.65</time>
   <energy>
    <i name="alphaZ">   1436.48757412 </i>
    <i name="ewald"> -21808.73076339 </i>
    <i name="hartreedc">  -3677.82583921 </i>
    <i name="XCdc">    838.62236165 </i>
    <i name="pawpsdc">  24187.55578256 </i>
    <i name="pawaedc"> -23999.75120689 </i>
    <i name="eentropy">     -0.00000000 </i>
    <i name="bandstr">  -2788.69296020 </i>
    <i name="atom">  25630.00721240 </i>
    <i name="e_fr_energy">   -182.32783896 </i>
    <i name="e_wo_entrp">   -182.32783896 </i>
    <i name="e_0_energy">   -182.32783896 </i>
   </energy>
  </scstep>
  <scstep>
   <time name="dav">    0.52    0.52</time>
   <time name="total">    2.79    2.80</time>
   <energy>
    <i name="e_fr_energy">   -182.35150358 </i>
    <i name="e_wo_entrp">   -182.35150358 </i>
    <i name="e_0_energy">   -182.35150358 </i>
   </energy>
  </scstep>
  <scstep>
   <time name="dav">    0.54    0.54</time>
   <time name="total">    2.82    2.82</time>
   <energy>
    <i name="e_fr_energy">   -182.35040240 </i>
    <i name="e_wo_entrp">   -182.35040240 </i>
    <i name="e_0_energy">   -182.35040240 </i>
   </energy>
  </scstep>
  <scstep>
   <time name="dav">    0.53    0.53</time>
   <time name="total">    2.81    2.81</time>
   <energy>
    <i name="e_fr_energy">   -182.34956574 </i>
    <i name="e_wo_entrp">   -182.34956574 </i>
    <i name="e_0_energy">   -182.34956574 </i>
   </energy>
  </scstep>
  <scstep>
   <time name="dav">    0.54    0.54</time>
   <time name="total">    2.81    2.82</time>
   <energy>
    <i name="e_fr_energy">   -182.34955338 </i>
    <i name="e_wo_entrp">   -182.34955338 </i>
    <i name="e_0_energy">   -182.34955338 </i>
   </energy>
  </scstep>
  <scstep>
   <time name="dav">    0.49    0.49</time>
   <time name="total">    2.77    2.77</time>
   <energy>
    <i name="e_fr_energy">   -182.34950466 </i>
    <i name="e_wo_entrp">   -182.34950466 </i>
    <i name="e_0_energy">   -182.34950466 </i>
   </energy>
  </scstep>
  <scstep>
   <time name="dav">    0.54    0.55</time>
   <time name="total">    2.62    2.63</time>
   <energy>
    <i name="e_fr_energy">   -182.34948480 </i>
    <i name="e_wo_entrp">   -182.34948480 </i>
    <i name="e_0_energy">   -182.34948480 </i>
   </energy>
  </scstep>
  <scstep>
   <time name="dav">    0.46    0.47</time>
   <time name="total">    2.48    2.49</time>
   <energy>
    <i name="alphaZ">   1436.48757412 </i>
    <i name="ewald"> -21808.73076339 </i>
    <i name="hartreedc">  -3677.77171322 </i>
    <i name="XCdc">    838.66681487 </i>
    <i name="pawpsdc">  24191.89215698 </i>
    <i name="pawaedc"> -24004.09752116 </i>
    <i name="eentropy">     -0.00000000 </i>
    <i name="bandstr">  -2788.80324712 </i>
    <i name="atom">  25630.00721240 </i>
    <i name="e_fr_energy">   -182.34948652 </i>
    <i name="e_wo_entrp">   -182.34948652 </i>
    <i name="e_0_energy">   -182.34948652 </i>
   </energy>
  </scstep>
  <structure>
   <crystal>
    <varray name="basis" >
     <v>      12.22634592       0.00000000       0.00000000 </v>
     <v>       0.00000000      12.22634592       0.00000000 </v>
     <v>       0.00000000       0.00000000      12.22634592 </v>
    </varray>
    <i name="volume">   1827.63740156 </i>
    <varray name="rec_basis" >
     <v>       0.08179059       0.00000000       0.00000000 </v>
     <v>       0.00000000       0.08179059       0.00000000 </v>
     <v>       0.00000000       0.00000000       0.08179059 </v>
    </varray>
   </crystal>
   <varray name="positions" >
    <v>       0.99390802       0.00614661       0.99651409 </v>
    <v>       0.00703876       0.00698362       0.33554536 </v>
    <v>       0.99988395       0.99980340       0.66654652 </v>
    <v>       0.99894508       0.33870339       0.99257514 </v>
    <v>       0.98902155       0.34002045       0.32899587 </v>
    <v>       0.99992768       0.33344898       0.66626483 </v>
    <v>       0.99982989       0.66709166       0.99995009 </v>
    <v>       0.99982723       0.66701376       0.33360680 </v>
    <v>       0.99992769       0.66672509       0.66656449 </v>
    <v>       0.33240911       0.00187612       0.00156063 </v>
    <v>       0.33646748       0.98655589       0.34107641 </v>
    <v>       0.33360106       0.99990248       0.66671804 </v>
    <v>       0.32356048       0.34160285       0.99203567 </v>
    <v>       0.33786334       0.33458545       0.32397088 </v>
    <v>       0.33366320       0.33347440       0.66615803 </v>
    <v>       0.33359668       0.66701101       0.99990336 </v>
    <v>       0.33351917       0.66644698       0.33360834 </v>
    <v>       0.33342847       0.66666211       0.66660424 </v>
    <v>       0.66644477       0.99975532       0.99985085 </v>
    <v>       0.66681727       0.99983787       0.33347850 </v>
    <v>       0.66660800       0.99994344       0.66663986 </v>
    <v>       0.66637880       0.33339226       0.99986142 </v>
    <v>       0.66645955       0.33337921       0.33357731 </v>
    <v>       0.66654789       0.33335011       0.66661881 </v>
    <v>       0.66663428       0.66676054       0.99994778 </v>
    <v>       0.66667778       0.66674025       0.33341536 </v>
    <v>       0.66664701       0.66670253       0.66664425 </v>
    <v>       0.16729883       0.17151433       0.49378487 </v>
    <v>       0.17427609       0.16627560       0.83480224 </v>
    <v>       0.16819038       0.49979957       0.17023262 </v>
    <v>       0.16659740       0.49984013       0.49976613 </v>
    <v>       0.16646555       0.49993178       0.83352100 </v>
    <v>       0.16667951       0.84386322       0.17237854 </v>
    <v>       0.16657912       0.83351423       0.49998709 </v>
    <v>       0.16661082       0.83358055       0.83370472 </v>
    <v>       0.49842880       0.16746141       0.16690851 </v>
    <v>       0.49981008       0.16667117       0.49974525 </v>
    <v>       0.49980384       0.16673730       0.83364487 </v>
    <v>       0.49980554       0.49985370       0.16649566 </v>
    <v>       0.49986386       0.49982612       0.49973866 </v>
    <v>       0.49972092       0.49984242       0.83358963 </v>
    <v>       0.49974503       0.83347487       0.16661860 </v>
    <v>       0.49992337       0.83332417       0.49995456 </v>
    <v>       0.49976095       0.83350284       0.83356735 </v>
    <v>       0.83925115       0.16190566       0.16414912 </v>
    <v>       0.83360992       0.16675877       0.49973744 </v>
    <v>       0.83370809       0.16681983       0.83350457 </v>
    <v>       0.83353733       0.49976287       0.16643420 </v>
    <v>       0.83347547       0.49981065       0.49982040 </v>
    <v>       0.83362087       0.49979940       0.83356471 </v>
    <v>       0.83366460       0.83353293       0.16660135 </v>
    <v>       0.83359943       0.83355293       0.49984956 </v>
    <v>       0.83358372       0.83355054       0.83354004 </v>
   </varray>
  </structure>
  <varray name="forces" >
   <v>      -0.07525386      -0.31172378      -0.12699729 </v>
   <v>      -0.26771853      -0.23141069       0.14537003 </v>
   <v>      -0.01932668      -0.03536523      -0.02270651 </v>
   <v>      -0.20696688       0.11890287      -0.12051223 </v>
   <v>       0.01345373       0.11605278       0.28739923 </v>
   <v>      -0.00897277       0.02073615      -0.08469117 </v>
   <v>      -0.02946035       0.08887444      -0.00545032 </v>
   <v>      -0.03020466       0.07431590       0.04821598 </v>
   <v>      -0.00998692       0.00983828      -0.01705310 </v>
   <v>       0.22888451      -0.20198911      -0.17629499 </v>
   <v>       0.17663384       0.09459779       0.11094850 </v>
   <v>       0.04717100      -0.01335652       0.01825152 </v>
   <v>       0.40090290       0.06890022      -0.07771599 </v>
   <v>       0.10579188       0.09313237       0.32420367 </v>
   <v>       0.05777512       0.02414440      -0.10524796 </v>
   <v>       0.04506800       0.07295449      -0.01495470 </v>
   <v>       0.02880477      -0.04920096       0.04897097 </v>
   <v>       0.01082532      -0.00248184      -0.00900099 </v>
   <v>      -0.04335049      -0.04489370      -0.02555646 </v>
   <v>       0.03713332      -0.02891238       0.02187730 </v>
   <v>      -0.00892784      -0.00597921      -0.00339252 </v>
   <v>      -0.06022350       0.00769183      -0.02345453 </v>
   <v>      -0.04227607       0.00573388       0.04210040 </v>
   <v>      -0.02089031      -0.00020010      -0.00643749 </v>
   <v>      -0.00396681       0.01622834      -0.00633689 </v>
   <v>       0.00464189       0.01286058       0.00862549 </v>
   <v>      -0.00173034       0.00527997      -0.00195683 </v>
   <v>       0.00419930      -0.04951178      -0.16218806 </v>
   <v>      -0.20152452       0.02662484       0.19860131 </v>
   <v>      -0.07338792      -0.19719519      -0.11616689 </v>
   <v>      -0.01339273      -0.03175488      -0.05149400 </v>
   <v>      -0.04167304      -0.00751179       0.03130967 </v>
   <v>      -0.01720961       0.08711567      -0.13241886 </v>
   <v>      -0.01635991       0.03740502       0.00203416 </v>
   <v>      -0.01089402       0.05336534       0.07653392 </v>
   <v>      -0.20604973      -0.02259274      -0.03227706 </v>
   <v>      -0.03777890      -0.00127519      -0.05329253 </v>
   <v>      -0.04043073       0.01547563       0.06158202 </v>
   <v>      -0.03963136      -0.02796053      -0.03739584 </v>
   <v>      -0.02746519      -0.03647928      -0.05594233 </v>
   <v>      -0.05695016      -0.02912529       0.04798350 </v>
   <v>      -0.05074675       0.02782022      -0.00734189 </v>
   <v>      -0.00845994      -0.00883429      -0.00216654 </v>
   <v>      -0.04948403       0.03633525       0.04688096 </v>
   <v>       0.15322691       0.14871290       0.03238363 </v>
   <v>       0.05356126       0.01942125      -0.05417958 </v>
   <v>       0.07338223       0.03232524       0.02802557 </v>
   <v>       0.03587087      -0.04553154      -0.04986267 </v>
   <v>       0.02221226      -0.03435574      -0.03469128 </v>
   <v>       0.05206660      -0.03598304       0.04046109 </v>
   <v>       0.06684658       0.04420365      -0.01131735 </v>
   <v>       0.05482370       0.04888187      -0.03206166 </v>
   <v>       0.04741854       0.04569363       0.03879761 </v>
  </varray>
  <varray name="stress" >
   <v>     -12.84018048      -0.22236285       0.15258250 </v>
   <v>      -0.22236308     -12.81475590      -0.08385185 </v>
   <v>       0.15258273      -0.08385142     -12.83684585 </v>
  </varray>
  <energy>
   <i name="e_fr_energy">   -182.34948652 </i>
   <i name="e_wo_entrp">   -182.34948652 </i>
   <i name="e_0_energy">   -182.34948652 </i>
  </energy>
  <time name="totalsc">   26.73   26.79</time>
 </calculation>
 <calculation>
  <scstep>
   <time name="dav">    0.47    0.47</time>
   <time name="total">    2.55    2.55</time>
   <energy>
    <i name="alphaZ">   1436.48757412 </i>
    <i name="ewald"> -21791.45645252 </i>
    <i name="hartreedc">  -3694.50058809 </i>
    <i name="XCdc">    838.64546740 </i>
    <i name="pawpsdc">  24192.06346091 </i>
    <i name="pawaedc"> -24004.26838780 </i>
    <i name="eentropy">     -0.00000000 </i>
    <i name="bandstr">  -2789.29575217 </i>
    <i name="atom">  25630.00721240 </i>
    <i name="e_fr_energy">   -182.31746574 </i>
    <i name="e_wo_entrp">   -182.31746574 </i>
    <i name="e_0_energy">   -182.31746574 </i>
   </energy>
  </scstep>
  <scstep>
   <time name="dav">    0.51    0.51</time>
   <time name="total">    2.80    2.81</time>
   <energy>
    <i name="e_fr_energy">   -182.54086537 </i>
    <i name="e_wo_entrp">   -182.54086537 </i>
    <i name="e_0_energy">   -182.54086537 </i>
   </energy>
  </scstep>
  <scstep>
   <time name="dav">    0.54    0.54</time>
   <time name="total">    2.83    2.84</time>
   <energy>
    <i name="e_fr_energy">   -182.53065278 </i>
    <i name="e_wo_entrp">   -182.53065278 </i>
    <i name="e_0_energy">   -182.53065278 </i>
   </energy>
  </scstep>
  <scstep>
   <time name="dav">    0.54    0.54</time>
   <time name="total">    2.83    2.84</time>
   <energy>
    <i name="e_fr_energy">   -182.52300710 </i>
    <i name="e_wo_entrp">   -182.52300710 </i>
    <i name="e_0_energy">   -182.52300710 </i>
   </energy>
  </scstep>
  <scstep>
   <time name="dav">    0.53    0.54</time>
   <time name="total">    2.83    2.83</time>
   <energy>
    <i name="e_fr_energy">   -182.52268213 </i>
    <i name="e_wo_entrp">   -182.52268213 </i>
    <i name="e_0_energy">   -182.52268213 </i>
   </energy>
  </scstep>
  <scstep>
   <time name="dav">    0.59    0.59</time>
   <time name="total">    2.88    2.89</time>
   <energy>
    <i name="e_fr_energy">   -182.52224772 </i>
    <i name="e_wo_entrp">   -182.52224772 </i>
    <i name="e_0_energy">   -182.52224772 </i>
   </energy>
  </scstep>
  <scstep>
   <time name="dav">    0.58    0.58</time>
   <time name="total">    2.66    2.66</time>
   <energy>
    <i name="e_fr_energy">   -182.52206833 </i>
    <i name="e_wo_entrp">   -182.52206833 </i>
    <i name="e_0_energy">   -182.52206833 </i>
   </energy>
  </scstep>
  <scstep>
   <time name="dav">    0.52    0.52</time>
   <time name="total">    2.60    2.61</time>
   <energy>
    <i name="e_fr_energy">   -182.52209776 </i>
    <i name="e_wo_entrp">   -182.52209776 </i>
    <i name="e_0_energy">   -182.52209776 </i>
   </energy>
  </scstep>
  <scstep>
   <time name="dav">    0.48    0.48</time>
   <time name="total">    2.50    2.51</time>
   <energy>
    <i name="alphaZ">   1436.48757412 </i>
    <i name="ewald"> -21791.45645252 </i>
    <i name="hartreedc">  -3694.28817716 </i>
    <i name="XCdc">    838.74209799 </i>
    <i name="pawpsdc">  24196.84522687 </i>
    <i name="pawaedc"> -24009.06732552 </i>
    <i name="eentropy">     -0.00000000 </i>
    <i name="bandstr">  -2789.79224623 </i>
    <i name="atom">  25630.00721240 </i>
    <i name="e_fr_energy">   -182.52209004 </i>
    <i name="e_wo_entrp">   -182.52209004 </i>
    <i name="e_0_energy">   -182.52209004 </i>
   </energy>
  </scstep>
  <structure>
   <crystal>
    <varray name="basis" >
     <v>      12.22634592       0.00000000       0.00000000 </v>
     <v>       0.00000000      12.22634592       0.00000000 </v>
     <v>       0.00000000       0.00000000      12.22634592 </v>
    </varray>
    <i name="volume">   1827.63740156 </i>
    <varray name="rec_basis" >
     <v>       0.08179059       0.00000000       0.00000000 </v>
     <v>       0.00000000       0.08179059       0.00000000 </v>
     <v>       0.00000000       0.00000000       0.08179059 </v>
    </varray>
   </crystal>
   <varray name="positions" >
    <v>       0.99283855       0.00214003       0.99481368 </v>
    <v>       0.00351773       0.00394261       0.33763084 </v>
    <v>       0.99953580       0.99921358       0.66618606 </v>
    <v>       0.99594295       0.34014576       0.99096745 </v>
    <v>       0.98905888       0.34144603       0.33256118 </v>
    <v>       0.99971072       0.33379592       0.66505932 </v>
    <v>       0.99931955       0.66836663       0.99980037 </v>
    <v>       0.99930890       0.66805502       0.33442718 </v>
    <v>       0.99971076       0.66690038       0.66625795 </v>
    <v>       0.33558250       0.99917209       0.99923076 </v>
    <v>       0.33897869       0.98770246       0.34269922 </v>
    <v>       0.33440425       0.99960992       0.66687218 </v>
    <v>       0.32904628       0.34262836       0.99092782 </v>
    <v>       0.33916504       0.33584689       0.32844404 </v>
    <v>       0.33465279       0.33389761       0.66463210 </v>
    <v>       0.33438671       0.66804403       0.99961344 </v>
    <v>       0.33407667       0.66578793       0.33443337 </v>
    <v>       0.33371387       0.66664845       0.66641697 </v>
    <v>       0.66577910       0.99902128       0.99940342 </v>
    <v>       0.66726910       0.99935146       0.33391400 </v>
    <v>       0.66643201       0.99977376       0.66655942 </v>
    <v>       0.66551519       0.33356903       0.99944568 </v>
    <v>       0.66583821       0.33351684       0.33430923 </v>
    <v>       0.66619155       0.33340046       0.66647523 </v>
    <v>       0.66653711       0.66704215       0.99979112 </v>
    <v>       0.66671112       0.66696099       0.33366142 </v>
    <v>       0.66658805       0.66681011       0.66657700 </v>
    <v>       0.16732011       0.17090665       0.49164884 </v>
    <v>       0.17153384       0.16663316       0.83742740 </v>
    <v>       0.16717794       0.49726028       0.16863833 </v>
    <v>       0.16638958       0.49936053       0.49906453 </v>
    <v>       0.16586220       0.49972713       0.83408400 </v>
    <v>       0.16638767       0.84497612       0.17051740 </v>
    <v>       0.16631647       0.83405693       0.49994834 </v>
    <v>       0.16644328       0.83432219       0.83481887 </v>
    <v>       0.49576378       0.16718516       0.16642572 </v>
    <v>       0.49924032       0.16668468       0.49898099 </v>
    <v>       0.49921536       0.16694922       0.83457949 </v>
    <v>       0.49922214       0.49941479       0.16598262 </v>
    <v>       0.49945543       0.49930448       0.49895463 </v>
    <v>       0.49888369       0.49936967       0.83435852 </v>
    <v>       0.49898013       0.83389947       0.16647439 </v>
    <v>       0.49969346       0.83329668       0.49981825 </v>
    <v>       0.49904380       0.83401137       0.83426939 </v>
    <v>       0.84130587       0.16392280       0.16456336 </v>
    <v>       0.83443970       0.16703507       0.49894976 </v>
    <v>       0.83483235       0.16727932       0.83401827 </v>
    <v>       0.83414931       0.49905147       0.16573681 </v>
    <v>       0.83390188       0.49924259       0.49928161 </v>
    <v>       0.83448346       0.49919761       0.83425884 </v>
    <v>       0.83465840       0.83413173       0.16640538 </v>
    <v>       0.83439772       0.83421172       0.49939825 </v>
    <v>       0.83433489       0.83420216       0.83416017 </v>
   </varray>
  </structure>
  <varray name="forces" >
   <v>      -0.03951410      -0.21617998      -0.07452269 </v>
   <v>      -0.21261166      -0.19048895       0.07460071 </v>
   <v>       0.01459856       0.01114168       0.00327535 </v>
   <v>      -0.09292411       0.07981319      -0.03615130 </v>
   <v>       0.04326431       0.06004274       0.15976191 </v>
   <v>       0.02166662      -0.00701055      -0.02646219 </v>
   <v>       0.01518647       0.02818976       0.01752568 </v>
   <v>       0.01072361       0.03210090      -0.01458827 </v>
   <v>       0.01515876      -0.00327152       0.00764412 </v>
   <v>       0.10723868      -0.11021292      -0.10985834 </v>
   <v>       0.08776851       0.09181577       0.02566974 </v>
   <v>      -0.01619904       0.01908671       0.03177176 </v>
   <v>       0.24167996       0.03163613      -0.04169698 </v>
   <v>       0.04168892       0.07160393       0.21512788 </v>
   <v>      -0.01259036      -0.00588791      -0.03527982 </v>
   <v>      -0.01896475       0.02586864       0.01362986 </v>
   <v>      -0.02220648      -0.02598992      -0.01520596 </v>
   <v>      -0.02471169      -0.00566087       0.01043323 </v>
   <v>      -0.00134224       0.01069287       0.01065741 </v>
   <v>       0.03310820       0.00909574      -0.02347970 </v>
   <v>       0.00909359       0.01839912       0.00639423 </v>
   <v>      -0.01308244      -0.01290690       0.01234962 </v>
   <v>      -0.00565829      -0.01044039      -0.01963792 </v>
   <v>       0.00641785      -0.01176170       0.00984086 </v>
   <v>       0.01008516      -0.00327314       0.01330018 </v>
   <v>       0.01204202      -0.00200593      -0.02551925 </v>
   <v>       0.00940657      -0.00466797       0.00892042 </v>
   <v>       0.01260149      -0.04443601      -0.10924221 </v>
   <v>      -0.11124474       0.01697227       0.13393620 </v>
   <v>      -0.03343536      -0.14672609      -0.06535518 </v>
   <v>       0.00275526       0.00150112      -0.02135633 </v>
   <v>      -0.00887479       0.02504504      -0.02074171 </v>
   <v>       0.00475458       0.06677868      -0.06803682 </v>
   <v>       0.00512739       0.01009013       0.01866920 </v>
   <v>       0.00269340       0.02078739       0.01375347 </v>
   <v>      -0.14870336      -0.01777079      -0.00833474 </v>
   <v>       0.00192448      -0.00730947      -0.01189875 </v>
   <v>      -0.00485756       0.00616151       0.00079690 </v>
   <v>      -0.00413382       0.00539562      -0.01353133 </v>
   <v>       0.00262138      -0.00449258      -0.01641521 </v>
   <v>      -0.00384929       0.01347038      -0.01346645 </v>
   <v>      -0.00221944       0.00104427       0.00951300 </v>
   <v>       0.02783353      -0.02884958       0.02757899 </v>
   <v>      -0.00555751       0.00942579      -0.00007451 </v>
   <v>       0.09277110       0.08537619       0.02505943 </v>
   <v>      -0.00073043       0.00636952      -0.01106484 </v>
   <v>       0.00084091       0.01015233      -0.02190044 </v>
   <v>      -0.01570388       0.00587851      -0.01731677 </v>
   <v>      -0.02450714       0.01476538       0.00422865 </v>
   <v>      -0.01784370       0.01855982      -0.02300498 </v>
   <v>       0.00778549       0.02020161       0.00687016 </v>
   <v>       0.00876796       0.02149527      -0.00621852 </v>
   <v>      -0.00813854       0.01038517      -0.01094777 </v>
  </varray>
  <varray name="stress" >
   <v>     -12.63166151      -0.19335445       0.12925131 </v>
   <v>      -0.19335428     -12.60972448      -0.11680816 </v>
   <v>       0.12925154      -0.11680793     -12.60413529 </v>
  </varray>
  <energy>
   <i name="e_fr_energy">   -182.52209004 </i>
   <i name="e_wo_entrp">   -182.52209004 </i>
   <i name="e_0_energy">   -182.52209004 </i>
  </energy>
  <time name="totalsc">   29.48   29.55</time>
 </calculation>
 <calculation>
  <scstep>
   <time name="dav">    0.47    0.47</time>
   <time name="total">    2.56    2.56</time>
   <energy>
    <i name="alphaZ">   1436.48757412 </i>
    <i name="ewald"> -21741.47537459 </i>
    <i name="hartreedc">  -3741.44693385 </i>
    <i name="XCdc">    838.89940964 </i>
    <i name="pawpsdc">  24197.20258515 </i>
    <i name="pawaedc"> -24009.42460771 </i>
    <i name="eentropy">     -0.00000000 </i>
    <i name="bandstr">  -2791.86607491 </i>
    <i name="atom">  25630.00721240 </i>
    <i name="e_fr_energy">   -181.61620974 </i>
    <i name="e_wo_entrp">   -181.61620974 </i>
    <i name="e_0_energy">   -181.61620974 </i>
   </energy>
  </scstep>
  <scstep>
   <time name="dav">    0.50    0.50</time>
   <time name="total">    2.78    2.79</time>
   <energy>
    <i name="e_fr_energy">   -182.61263021 </i>
    <i name="e_wo_entrp">   -182.61263021 </i>
    <i name="e_0_energy">   -182.61263021 </i>
   </energy>
  </scstep>
  <scstep>
   <time name="dav">    0.54    0.55</time>
   <time name="total">    2.82    2.83</time>
   <energy>
    <i name="e_fr_energy">   -182.56930539 </i>
    <i name="e_wo_entrp">   -182.56930539 </i>
    <i name="e_0_energy">   -182.56930539 </i>
   </energy>
  </scstep>
  <scstep>
   <time name="dav">    0.54    0.54</time>
   <time name="total">    2.81    2.82</time>
   <energy>
    <i name="e_fr_energy">   -182.53972981 </i>
    <i name="e_wo_entrp">   -182.53972981 </i>
    <i name="e_0_energy">   -182.53972981 </i>
   </energy>
  </scstep>
  <scstep>
   <time name="dav">    0.53    0.53</time>
   <time name="total">    2.80    2.81</time>
   <energy>
    <i name="e_fr_energy">   -182.53600570 </i>
    <i name="e_wo_entrp">   -182.53600570 </i>
    <i name="e_0_energy">   -182.53600570 </i>
   </energy>
  </scstep>
  <scstep>
   <time name="dav">    0.56    0.57</time>
   <time name="total">    2.85    2.86</time>
   <energy>
    <i name="e_fr_energy">   -182.53466696 </i>
    <i name="e_wo_entrp">   -182.53466696 </i>
    <i name="e_0_energy">   -182.53466696 </i>
   </energy>
  </scstep>
  <scstep>
   <time name="dav">    0.57    0.57</time>
   <time name="total">    2.65    2.66</time>
   <energy>
    <i name="e_fr_energy">   -182.53420190 </i>
    <i name="e_wo_entrp">   -182.53420190 </i>
    <i name="e_0_energy">   -182.53420190 </i>
   </energy>
  </scstep>
  <scstep>
   <time name="dav">    0.52    0.53</time>
   <time name="total">    2.64    2.64</time>
   <energy>
    <i name="e_fr_energy">   -182.53421748 </i>
    <i name="e_wo_entrp">   -182.53421748 </i>
    <i name="e_0_energy">   -182.53421748 </i>
   </energy>
  </scstep>
  <scstep>
   <time name="dav">    0.53    0.53</time>
   <time name="total">    2.63    2.64</time>
   <energy>
    <i name="e_fr_energy">   -182.53416625 </i>
    <i name="e_wo_entrp">   -182.53416625 </i>
    <i name="e_0_energy">   -182.53416625 </i>
   </energy>
  </scstep>
  <scstep>
   <time name="dav">    0.52    0.52</time>
   <time name="total">    2.62    2.63</time>
   <energy>
    <i name="e_fr_energy">   -182.53414394 </i>
    <i name="e_wo_entrp">   -182.53414394 </i>
    <i name="e_0_energy">   -182.53414394 </i>
   </energy>
  </scstep>
  <scstep>
   <time name="dav">    0.46    0.46</time>
   <time name="total">    2.49    2.49</time>
   <energy>
    <i name="alphaZ">   1436.48757412 </i>
    <i name="ewald"> -21741.47537459 </i>
    <i name="hartreedc">  -3741.07310606 </i>
    <i name="XCdc">    839.15423691 </i>
    <i name="pawpsdc">  24238.83191533 </i>
    <i name="pawaedc"> -24051.13432635 </i>
    <i name="eentropy">     -0.00000000 </i>
    <i name="bandstr">  -2793.33227021 </i>
    <i name="atom">  25630.00721240 </i>
    <i name="e_fr_energy">   -182.53413844 </i>
    <i name="e_wo_entrp">   -182.53413844 </i>
    <i name="e_0_energy">   -182.53413844 </i>
   </energy>
  </scstep>
  <structure>
   <crystal>
    <varray name="basis" >
     <v>      12.22634592       0.00000000       0.00000000 </v>
     <v>       0.00000000      12.22634592       0.00000000 </v>
     <v>       0.00000000       0.00000000      12.22634592 </v>
    </varray>
    <i name="volume">   1827.63740156 </i>
    <varray name="rec_basis" >
     <v>       0.08179059       0.00000000       0.00000000 </v>
     <v>       0.00000000       0.08179059       0.00000000 </v>
     <v>       0.00000000       0.00000000       0.08179059 </v>
    </varray>
   </crystal>
   <varray name="positions" >
    <v>       0.99069962       0.99412687       0.99141286 </v>
    <v>       0.99647568       0.99786060       0.34180181 </v>
    <v>       0.99883950       0.99803396       0.66546515 </v>
    <v>       0.98993869       0.34303049       0.98775207 </v>
    <v>       0.98913353       0.34429720       0.33969179 </v>
    <v>       0.99927680       0.33448980       0.66264831 </v>
    <v>       0.99829887       0.67091657       0.99950092 </v>
    <v>       0.99827225       0.67013755       0.33606795 </v>
    <v>       0.99927689       0.66725095       0.66564486 </v>
    <v>       0.34192928       0.99376404       0.99457101 </v>
    <v>       0.34400110       0.98999562       0.34594482 </v>
    <v>       0.33601062       0.99902479       0.66718044 </v>
    <v>       0.34001787       0.34467937       0.98871213 </v>
    <v>       0.34176845       0.33836977       0.33739036 </v>
    <v>       0.33663197       0.33474402       0.66158026 </v>
    <v>       0.33596677       0.67011008       0.99903360 </v>
    <v>       0.33519167       0.66446984       0.33608342 </v>
    <v>       0.33428467       0.66662111       0.66604242 </v>
    <v>       0.66444774       0.99755321       0.99850854 </v>
    <v>       0.66817274       0.99837865       0.33478499 </v>
    <v>       0.66608002       0.99943441       0.66639855 </v>
    <v>       0.66378798       0.33392258       0.99861421 </v>
    <v>       0.66459553       0.33379211       0.33577307 </v>
    <v>       0.66547888       0.33350114       0.66618807 </v>
    <v>       0.66634278       0.66760538       0.99947779 </v>
    <v>       0.66677779       0.66740248       0.33415356 </v>
    <v>       0.66647011       0.66702528       0.66644250 </v>
    <v>       0.16736268       0.16969130       0.48737677 </v>
    <v>       0.16604932       0.16734827       0.84267772 </v>
    <v>       0.16515307       0.49218170       0.16544975 </v>
    <v>       0.16597395       0.49840132       0.49766133 </v>
    <v>       0.16465551       0.49931783       0.83521000 </v>
    <v>       0.16580398       0.84720193       0.16679512 </v>
    <v>       0.16579117       0.83514233       0.49987085 </v>
    <v>       0.16610820       0.83580547       0.83704718 </v>
    <v>       0.49043374       0.16663265       0.16546014 </v>
    <v>       0.49810079       0.16671169       0.49745247 </v>
    <v>       0.49803840       0.16737304       0.83644873 </v>
    <v>       0.49805535       0.49853697       0.16495656 </v>
    <v>       0.49863856       0.49826121       0.49738658 </v>
    <v>       0.49720923       0.49842418       0.83589630 </v>
    <v>       0.49745032       0.83474866       0.16618596 </v>
    <v>       0.49923366       0.83324171       0.49954564 </v>
    <v>       0.49760951       0.83502842       0.83567347 </v>
    <v>       0.84541531       0.16795708       0.16539184 </v>
    <v>       0.83609925       0.16758766       0.49737441 </v>
    <v>       0.83708087       0.16819830       0.83504569 </v>
    <v>       0.83537328       0.49762869       0.16434201 </v>
    <v>       0.83475469       0.49810646       0.49820402 </v>
    <v>       0.83620866       0.49799402       0.83564709 </v>
    <v>       0.83664600       0.83532932       0.16601345 </v>
    <v>       0.83599431       0.83552930       0.49849562 </v>
    <v>       0.83583723       0.83550540       0.83540043 </v>
   </varray>
  </structure>
  <varray name="forces" >
   <v>       0.06998898       0.07556656       0.04290378 </v>
   <v>       0.00242223      -0.00101268      -0.07378122 </v>
   <v>       0.07882741       0.10195662       0.05867566 </v>
   <v>       0.11355716      -0.06496083       0.13883790 </v>
   <v>       0.10990680      -0.05977713      -0.11821823 </v>
   <v>       0.07904165      -0.06419140       0.07137929 </v>
   <v>       0.10485318      -0.07332685       0.06652804 </v>
   <v>       0.08924912      -0.04462887      -0.13261205 </v>
   <v>       0.06412315      -0.03285349       0.06325633 </v>
   <v>      -0.09967410       0.05217388       0.02001948 </v>
   <v>      -0.10679655       0.06251529      -0.15375372 </v>
   <v>      -0.12859149       0.07324512       0.05312468 </v>
   <v>      -0.11188832      -0.09718606       0.09714987 </v>
   <v>      -0.08102365       0.01473660      -0.07020909 </v>
   <v>      -0.15934565      -0.06650491       0.08256187 </v>
   <v>      -0.14702166      -0.05887644       0.07548023 </v>
   <v>      -0.11669435       0.01877592      -0.12727151 </v>
   <v>      -0.10062888      -0.01168949       0.05163257 </v>
   <v>       0.07440973       0.10797940       0.07859947 </v>
   <v>       0.02224580       0.07943225      -0.10564450 </v>
   <v>       0.04465334       0.06659564       0.02788730 </v>
   <v>       0.07677180      -0.05432769       0.08348810 </v>
   <v>       0.06265283      -0.04314516      -0.13304202 </v>
   <v>       0.06308132      -0.03593503       0.04630049 </v>
   <v>       0.03667762      -0.04793858       0.05539983 </v>
   <v>       0.02210542      -0.03384537      -0.09296568 </v>
   <v>       0.02810097      -0.02274789       0.03052244 </v>
   <v>       0.02486006      -0.03913110      -0.01834813 </v>
   <v>       0.03993253      -0.01021531       0.01668768 </v>
   <v>       0.03798893      -0.05172273       0.02980663 </v>
   <v>       0.03628446       0.07598380       0.05020961 </v>
   <v>       0.05395855       0.08624573      -0.12273752 </v>
   <v>       0.03836186       0.02714050       0.04205992 </v>
   <v>       0.04606223      -0.04687940       0.05263781 </v>
   <v>       0.03318975      -0.04904923      -0.11771209 </v>
   <v>      -0.04410601      -0.01040969       0.03956141 </v>
   <v>       0.09059346      -0.01719580       0.08335807 </v>
   <v>       0.06950187      -0.01820732      -0.12647301 </v>
   <v>       0.06549381       0.07217809       0.04379323 </v>
   <v>       0.07836231       0.07546267       0.08102612 </v>
   <v>       0.12542304       0.12575568      -0.16304177 </v>
   <v>       0.09306506      -0.05376847       0.05089500 </v>
   <v>       0.10408023      -0.07491429       0.09403543 </v>
   <v>       0.10422353      -0.06691103      -0.11980635 </v>
   <v>      -0.01089090      -0.02297710       0.03180252 </v>
   <v>      -0.11320598      -0.01825108       0.07785644 </v>
   <v>      -0.15387315      -0.04277288      -0.12141176 </v>
   <v>      -0.12142939       0.11122858       0.05314021 </v>
   <v>      -0.13256792       0.12528424       0.09289394 </v>
   <v>      -0.18278871       0.14924130      -0.16954936 </v>
   <v>      -0.11836296      -0.03287555       0.04552665 </v>
   <v>      -0.11118322      -0.05442335       0.06729077 </v>
   <v>      -0.14397733      -0.07884565      -0.12975078 </v>
  </varray>
  <varray name="stress" >
   <v>     -11.65273780      -0.10668091       0.06665768 </v>
   <v>      -0.10668048     -11.67241792      -0.12901478 </v>
   <v>       0.06665743      -0.12901502     -11.66179718 </v>
  </varray>
  <energy>
   <i name="e_fr_energy">   -182.53413844 </i>
   <i name="e_wo_entrp">   -182.53413844 </i>
   <i name="e_0_energy">   -182.53413844 </i>
  </energy>
  <time name="totalsc">   34.84   34.92</time>
 </calculation>
 <calculation>
  <scstep>
   <time name="dav">    0.47    0.47</time>
   <time name="total">    2.63    2.64</time>
   <energy>
    <i name="alphaZ">   1436.48757412 </i>
    <i name="ewald"> -21768.19613094 </i>
    <i name="hartreedc">  -3715.68407174 </i>
    <i name="XCdc">    838.94133492 </i>
    <i name="pawpsdc">  24240.06488561 </i>
    <i name="pawaedc"> -24052.36766103 </i>
    <i name="eentropy">     -0.00000000 </i>
    <i name="bandstr">  -2791.65679468 </i>
    <i name="atom">  25630.00721240 </i>
    <i name="e_fr_energy">   -182.40365134 </i>
    <i name="e_wo_entrp">   -182.40365134 </i>
    <i name="e_0_energy">   -182.40365134 </i>
   </energy>
  </scstep>
  <scstep>
   <time name="dav">    0.51    0.51</time>
   <time name="total">    2.82    2.83</time>
   <energy>
    <i name="e_fr_energy">   -182.60338334 </i>
    <i name="e_wo_entrp">   -182.60338334 </i>
    <i name="e_0_energy">   -182.60338334 </i>
   </energy>
  </scstep>
  <scstep>
   <time name="dav">    0.54    0.54</time>
   <time name="total">    2.86    2.86</time>
   <energy>
    <i name="e_fr_energy">   -182.59491241 </i>
    <i name="e_wo_entrp">   -182.59491241 </i>
    <i name="e_0_energy">   -182.59491241 </i>
   </energy>
  </scstep>
  <scstep>
   <time name="dav">    0.53    0.53</time>
   <time name="total">    2.85    2.85</time>
   <energy>
    <i name="e_fr_energy">   -182.58905103 </i>
    <i name="e_wo_entrp">   -182.58905103 </i>
    <i name="e_0_energy">   -182.58905103 </i>
   </energy>
  </scstep>
  <scstep>
   <time name="dav">    0.53    0.53</time>
   <time name="total">    2.84    2.85</time>
   <energy>
    <i name="e_fr_energy">   -182.58777805 </i>
    <i name="e_wo_entrp">   -182.58777805 </i>
    <i name="e_0_energy">   -182.58777805 </i>
   </energy>
  </scstep>
  <scstep>
   <time name="dav">    0.57    0.57</time>
   <time name="total">    2.89    2.89</time>
   <energy>
    <i name="e_fr_energy">   -182.58744746 </i>
    <i name="e_wo_entrp">   -182.58744746 </i>
    <i name="e_0_energy">   -182.58744746 </i>
   </energy>
  </scstep>
  <scstep>
   <time name="dav">    0.53    0.53</time>
   <time name="total">    2.69    2.70</time>
   <energy>
    <i name="e_fr_energy">   -182.58738902 </i>
    <i name="e_wo_entrp">   -182.58738902 </i>
    <i name="e_0_energy">   -182.58738902 </i>
   </energy>
  </scstep>
  <scstep>
   <time name="dav">    0.53    0.53</time>
   <time name="total">    2.70    2.70</time>
   <energy>
    <i name="e_fr_energy">   -182.58738819 </i>
    <i name="e_wo_entrp">   -182.58738819 </i>
    <i name="e_0_energy">   -182.58738819 </i>
   </energy>
  </scstep>
  <scstep>
   <time name="dav">    0.51    0.51</time>
   <time name="total">    2.68    2.68</time>
   <energy>
    <i name="e_fr_energy">   -182.58737202 </i>
    <i name="e_wo_entrp">   -182.58737202 </i>
    <i name="e_0_energy">   -182.58737202 </i>
   </energy>
  </scstep>
  <scstep>
   <time name="dav">    0.46    0.46</time>
   <time name="total">    2.57    2.57</time>
   <energy>
    <i name="alphaZ">   1436.48757412 </i>
    <i name="ewald"> -21768.19613094 </i>
    <i name="hartreedc">  -3716.08699161 </i>
    <i name="XCdc">    838.88113469 </i>
    <i name="pawpsdc">  24210.19183650 </i>
    <i name="pawaedc"> -24022.44591848 </i>
    <i name="eentropy">     -0.00000000 </i>
    <i name="bandstr">  -2791.42608855 </i>
    <i name="atom">  25630.00721240 </i>
    <i name="e_fr_energy">   -182.58737187 </i>
    <i name="e_wo_entrp">   -182.58737187 </i>
    <i name="e_0_energy">   -182.58737187 </i>
   </energy>
  </scstep>
  <structure>
   <crystal>
    <varray name="basis" >
     <v>      12.22634592       0.00000000       0.00000000 </v>
[...]
        <r>  0.0000  0.0012  0.0000 </r>
        <r>  0.0000  0.0010  0.0000 </r>
        <r>  0.0000  0.0001  0.0000 </r>
        <r>  0.0000  0.0007  0.0000 </r>
        <r>  0.0000  0.0100  0.0000 </r>
        <r>  0.0000  0.0059  0.0000 </r>
        <r>  0.0000  0.0010  0.0000 </r>
        <r>  0.0001  0.0125  0.0000 </r>
        <r>  0.0000  0.0065  0.0000 </r>
       </set>
       <set comment="band 276">
        <r>  0.0000  0.0011  0.0029 </r>
        <r>  0.0000  0.0012  0.0033 </r>
        <r>  0.0000  0.0001  0.0037 </r>
        <r>  0.0003  0.0023  0.0173 </r>
        <r>  0.0001  0.0012  0.0037 </r>
        <r>  0.0000  0.0008  0.0131 </r>
        <r>  0.0000  0.0007  0.0131 </r>
        <r>  0.0000  0.0001  0.0039 </r>
        <r>  0.0000  0.0004  0.0117 </r>
        <r>  0.0001  0.0012  0.0038 </r>
        <r>  0.0003  0.0024  0.0162 </r>
        <r>  0.0000  0.0008  0.0129 </r>
        <r>  0.0000  0.0011  0.0034 </r>
        <r>  0.0000  0.0011  0.0032 </r>
        <r>  0.0000  0.0001  0.0036 </r>
        <r>  0.0000  0.0001  0.0044 </r>
        <r>  0.0000  0.0008  0.0134 </r>
        <r>  0.0000  0.0005  0.0112 </r>
        <r>  0.0000  0.0001  0.0042 </r>
        <r>  0.0000  0.0007  0.0121 </r>
        <r>  0.0000  0.0004  0.0106 </r>
        <r>  0.0000  0.0008  0.0130 </r>
        <r>  0.0000  0.0001  0.0048 </r>
        <r>  0.0000  0.0004  0.0117 </r>
        <r>  0.0000  0.0004  0.0119 </r>
        <r>  0.0000  0.0005  0.0116 </r>
        <r>  0.0000  0.0000  0.0210 </r>
        <r>  0.0000  0.0021  0.0000 </r>
        <r>  0.0000  0.0022  0.0000 </r>
        <r>  0.0000  0.0020  0.0000 </r>
        <r>  0.0000  0.0004  0.0000 </r>
        <r>  0.0000  0.0009  0.0000 </r>
        <r>  0.0000  0.0019  0.0000 </r>
        <r>  0.0000  0.0010  0.0000 </r>
        <r>  0.0000  0.0004  0.0000 </r>
        <r>  0.0000  0.0020  0.0000 </r>
        <r>  0.0000  0.0008  0.0000 </r>
        <r>  0.0000  0.0005  0.0000 </r>
        <r>  0.0000  0.0003  0.0000 </r>
        <r>  0.0000  0.0069  0.0000 </r>
        <r>  0.0000  0.0068  0.0000 </r>
        <r>  0.0000  0.0010  0.0000 </r>
        <r>  0.0001  0.0124  0.0000 </r>
        <r>  0.0000  0.0068  0.0000 </r>
        <r>  0.0000  0.0021  0.0000 </r>
        <r>  0.0000  0.0005  0.0000 </r>
        <r>  0.0000  0.0010  0.0000 </r>
        <r>  0.0000  0.0010  0.0000 </r>
        <r>  0.0000  0.0070  0.0000 </r>
        <r>  0.0001  0.0130  0.0000 </r>
        <r>  0.0000  0.0003  0.0000 </r>
        <r>  0.0000  0.0064  0.0000 </r>
        <r>  0.0000  0.0065  0.0000 </r>
       </set>
       <set comment="band 277">
        <r>  0.0000  0.0000  0.0002 </r>
        <r>  0.0000  0.0000  0.0003 </r>
        <r>  0.0000  0.0000  0.0257 </r>
        <r>  0.0000  0.0000  0.0002 </r>
        <r>  0.0000  0.0000  0.0005 </r>
        <r>  0.0000  0.0000  0.0217 </r>
        <r>  0.0000  0.0000  0.0218 </r>
        <r>  0.0000  0.0000  0.0247 </r>
        <r>  0.0000  0.0000  0.0002 </r>
        <r>  0.0000  0.0000  0.0007 </r>
        <r>  0.0000  0.0000  0.0006 </r>
        <r>  0.0000  0.0000  0.0230 </r>
        <r>  0.0000  0.0000  0.0009 </r>
        <r>  0.0000  0.0000  0.0007 </r>
        <r>  0.0000  0.0000  0.0260 </r>
        <r>  0.0000  0.0000  0.0247 </r>
        <r>  0.0000  0.0000  0.0220 </r>
        <r>  0.0000  0.0000  0.0002 </r>
        <r>  0.0000  0.0000  0.0252 </r>
        <r>  0.0000  0.0000  0.0218 </r>
        <r>  0.0000  0.0000  0.0002 </r>
        <r>  0.0000  0.0000  0.0201 </r>
        <r>  0.0000  0.0000  0.0248 </r>
        <r>  0.0000  0.0000  0.0002 </r>
        <r>  0.0000  0.0000  0.0003 </r>
        <r>  0.0000  0.0000  0.0001 </r>
        <r>  0.0000  0.0000  0.0001 </r>
        <r>  0.0000  0.0003  0.0000 </r>
        <r>  0.0000  0.0004  0.0000 </r>
        <r>  0.0000  0.0001  0.0000 </r>
        <r>  0.0000  0.0002  0.0000 </r>
        <r>  0.0000  0.0003  0.0000 </r>
        <r>  0.0000  0.0001  0.0000 </r>
        <r>  0.0000  0.0001  0.0000 </r>
        <r>  0.0000  0.0002  0.0000 </r>
        <r>  0.0000  0.0001  0.0000 </r>
        <r>  0.0000  0.0004  0.0000 </r>
        <r>  0.0000  0.0003  0.0000 </r>
        <r>  0.0000  0.0003  0.0000 </r>
        <r>  0.0000  0.0001  0.0000 </r>
        <r>  0.0000  0.0002  0.0000 </r>
        <r>  0.0000  0.0001  0.0000 </r>
        <r>  0.0000  0.0001  0.0000 </r>
        <r>  0.0000  0.0002  0.0000 </r>
        <r>  0.0000  0.0001  0.0000 </r>
        <r>  0.0000  0.0003  0.0000 </r>
        <r>  0.0000  0.0000  0.0000 </r>
        <r>  0.0000  0.0002  0.0000 </r>
        <r>  0.0000  0.0001  0.0000 </r>
        <r>  0.0000  0.0000  0.0000 </r>
        <r>  0.0000  0.0001  0.0000 </r>
        <r>  0.0000  0.0001  0.0000 </r>
        <r>  0.0000  0.0000  0.0000 </r>
       </set>
       <set comment="band 278">
        <r>  0.0000  0.0000  0.0125 </r>
        <r>  0.0000  0.0000  0.0156 </r>
        <r>  0.0001  0.0001  0.0209 </r>
        <r>  0.0000  0.0000  0.0141 </r>
        <r>  0.0000  0.0000  0.0156 </r>
        <r>  0.0000  0.0001  0.0211 </r>
        <r>  0.0000  0.0001  0.0024 </r>
        <r>  0.0000  0.0002  0.0030 </r>
        <r>  0.0000  0.0007  0.0019 </r>
        <r>  0.0000  0.0000  0.0148 </r>
        <r>  0.0000  0.0000  0.0109 </r>
        <r>  0.0000  0.0001  0.0167 </r>
        <r>  0.0000  0.0000  0.0132 </r>
        <r>  0.0000  0.0000  0.0130 </r>
        <r>  0.0001  0.0001  0.0183 </r>
        <r>  0.0000  0.0003  0.0015 </r>
        <r>  0.0000  0.0003  0.0014 </r>
        <r>  0.0000  0.0007  0.0019 </r>
        <r>  0.0000  0.0002  0.0091 </r>
        <r>  0.0000  0.0002  0.0090 </r>
        <r>  0.0000  0.0002  0.0004 </r>
        <r>  0.0000  0.0002  0.0100 </r>
        <r>  0.0000  0.0002  0.0096 </r>
        <r>  0.0000  0.0002  0.0004 </r>
        <r>  0.0000  0.0015  0.0031 </r>
        <r>  0.0000  0.0016  0.0036 </r>
        <r>  0.0000  0.0000  0.0021 </r>
        <r>  0.0009  0.0145  0.0000 </r>
        <r>  0.0009  0.0146  0.0000 </r>
        <r>  0.0001  0.0015  0.0000 </r>
        <r>  0.0000  0.0052  0.0000 </r>
        <r>  0.0000  0.0048  0.0000 </r>
        <r>  0.0001  0.0014  0.0000 </r>
        <r>  0.0000  0.0049  0.0000 </r>
        <r>  0.0000  0.0051  0.0000 </r>
        <r>  0.0004  0.0068  0.0000 </r>
        <r>  0.0000  0.0058  0.0000 </r>
        <r>  0.0000  0.0067  0.0000 </r>
        <r>  0.0000  0.0021  0.0000 </r>
        <r>  0.0000  0.0004  0.0000 </r>
        <r>  0.0000  0.0012  0.0000 </r>
        <r>  0.0000  0.0020  0.0000 </r>
        <r>  0.0000  0.0010  0.0000 </r>
        <r>  0.0000  0.0006  0.0000 </r>
        <r>  0.0004  0.0068  0.0000 </r>
        <r>  0.0000  0.0077  0.0000 </r>
        <r>  0.0000  0.0074  0.0000 </r>
        <r>  0.0000  0.0023  0.0000 </r>
        <r>  0.0000  0.0016  0.0000 </r>
        <r>  0.0000  0.0007  0.0000 </r>
        <r>  0.0000  0.0024  0.0000 </r>
        <r>  0.0000  0.0008  0.0000 </r>
        <r>  0.0000  0.0014  0.0000 </r>
       </set>
       <set comment="band 279">
        <r>  0.0000  0.0000  0.0086 </r>
        <r>  0.0000  0.0001  0.0092 </r>
        <r>  0.0000  0.0007  0.0026 </r>
        <r>  0.0000  0.0001  0.0099 </r>
        <r>  0.0000  0.0001  0.0099 </r>
        <r>  0.0000  0.0004  0.0021 </r>
        <r>  0.0000  0.0004  0.0084 </r>
        <r>  0.0000  0.0003  0.0107 </r>
        <r>  0.0000  0.0007  0.0029 </r>
        <r>  0.0000  0.0001  0.0137 </r>
        <r>  0.0000  0.0001  0.0122 </r>
        <r>  0.0000  0.0003  0.0069 </r>
        <r>  0.0000  0.0002  0.0152 </r>
        <r>  0.0000  0.0000  0.0175 </r>
        <r>  0.0000  0.0001  0.0037 </r>
        <r>  0.0000  0.0003  0.0234 </r>
        <r>  0.0000  0.0003  0.0217 </r>
        <r>  0.0000  0.0007  0.0032 </r>
        <r>  0.0000  0.0002  0.0053 </r>
        <r>  0.0000  0.0002  0.0070 </r>
        <r>  0.0000  0.0012  0.0087 </r>
        <r>  0.0000  0.0002  0.0151 </r>
        <r>  0.0000  0.0002  0.0147 </r>
        <r>  0.0000  0.0012  0.0075 </r>
        <r>  0.0000  0.0001  0.0031 </r>
        <r>  0.0000  0.0001  0.0034 </r>
        <r>  0.0000  0.0000  0.0019 </r>
        <r>  0.0000  0.0005  0.0000 </r>
        <r>  0.0000  0.0005  0.0000 </r>
        <r>  0.0007  0.0110  0.0000 </r>
        <r>  0.0000  0.0037  0.0000 </r>
        <r>  0.0000  0.0031  0.0000 </r>
        <r>  0.0007  0.0109  0.0000 </r>
        <r>  0.0000  0.0042  0.0000 </r>
        <r>  0.0000  0.0045  0.0000 </r>
        <r>  0.0004  0.0068  0.0000 </r>
        <r>  0.0000  0.0036  0.0000 </r>
        <r>  0.0000  0.0035  0.0000 </r>
        <r>  0.0000  0.0108  0.0000 </r>
        <r>  0.0000  0.0014  0.0000 </r>
        <r>  0.0000  0.0029  0.0000 </r>
        <r>  0.0000  0.0071  0.0000 </r>
        <r>  0.0000  0.0020  0.0000 </r>
        <r>  0.0000  0.0012  0.0000 </r>
        <r>  0.0004  0.0067  0.0000 </r>
        <r>  0.0000  0.0031  0.0000 </r>
        <r>  0.0000  0.0031  0.0000 </r>
        <r>  0.0000  0.0060  0.0000 </r>
        <r>  0.0000  0.0009  0.0000 </r>
        <r>  0.0000  0.0010  0.0000 </r>
        <r>  0.0000  0.0037  0.0000 </r>
        <r>  0.0000  0.0012  0.0000 </r>
        <r>  0.0000  0.0006  0.0000 </r>
       </set>
       <set comment="band 280">
        <r>  0.0000  0.0001  0.0025 </r>
        <r>  0.0000  0.0006  0.0148 </r>
        <r>  0.0000  0.0006  0.0093 </r>
        <r>  0.0000  0.0006  0.0099 </r>
        <r>  0.0000  0.0003  0.0064 </r>
        <r>  0.0000  0.0007  0.0183 </r>
        <r>  0.0000  0.0006  0.0045 </r>
        <r>  0.0000  0.0004  0.0171 </r>
        <r>  0.0000  0.0000  0.0036 </r>
        <r>  0.0000  0.0004  0.0052 </r>
        <r>  0.0000  0.0007  0.0136 </r>
        <r>  0.0000  0.0005  0.0175 </r>
        <r>  0.0000  0.0006  0.0093 </r>
        <r>  0.0000  0.0002  0.0035 </r>
        <r>  0.0000  0.0007  0.0094 </r>
        <r>  0.0000  0.0006  0.0109 </r>
        <r>  0.0000  0.0004  0.0080 </r>
        <r>  0.0000  0.0000  0.0031 </r>
        <r>  0.0000  0.0012  0.0013 </r>
        <r>  0.0000  0.0009  0.0438 </r>
        <r>  0.0000  0.0000  0.0041 </r>
        <r>  0.0000  0.0011  0.0337 </r>
        <r>  0.0000  0.0011  0.0004 </r>
        <r>  0.0000  0.0000  0.0039 </r>
        <r>  0.0000  0.0000  0.0034 </r>
        <r>  0.0000  0.0000  0.0029 </r>
        <r>  0.0000  0.0000  0.0000 </r>
        <r>  0.0000  0.0000  0.0000 </r>
        <r>  0.0000  0.0000  0.0000 </r>
        <r>  0.0000  0.0002  0.0000 </r>
        <r>  0.0000  0.0069  0.0000 </r>
        <r>  0.0000  0.0046  0.0000 </r>
        <r>  0.0000  0.0002  0.0000 </r>
        <r>  0.0000  0.0058  0.0000 </r>
        <r>  0.0000  0.0052  0.0000 </r>
        <r>  0.0000  0.0002  0.0000 </r>
        <r>  0.0000  0.0034  0.0000 </r>
        <r>  0.0000  0.0020  0.0000 </r>
        <r>  0.0000  0.0025  0.0000 </r>
        <r>  0.0000  0.0010  0.0000 </r>
        <r>  0.0000  0.0037  0.0000 </r>
        <r>  0.0000  0.0038  0.0000 </r>
        <r>  0.0000  0.0049  0.0000 </r>
        <r>  0.0000  0.0020  0.0000 </r>
        <r>  0.0000  0.0002  0.0000 </r>
        <r>  0.0000  0.0033  0.0000 </r>
        <r>  0.0000  0.0022  0.0000 </r>
        <r>  0.0000  0.0026  0.0000 </r>
        <r>  0.0000  0.0025  0.0000 </r>
        <r>  0.0000  0.0045  0.0000 </r>
        <r>  0.0000  0.0044  0.0000 </r>
        <r>  0.0000  0.0047  0.0000 </r>
        <r>  0.0000  0.0010  0.0000 </r>
       </set>
       <set comment="band 281">
        <r>  0.0000  0.0007  0.0118 </r>
        <r>  0.0000  0.0001  0.0017 </r>
        <r>  0.0000  0.0006  0.0066 </r>
        <r>  0.0000  0.0005  0.0133 </r>
        <r>  0.0000  0.0004  0.0068 </r>
        <r>  0.0000  0.0006  0.0184 </r>
        <r>  0.0000  0.0009  0.0363 </r>
        <r>  0.0000  0.0011  0.0041 </r>
        <r>  0.0000  0.0000  0.0052 </r>
        <r>  0.0000  0.0004  0.0096 </r>
        <r>  0.0000  0.0005  0.0080 </r>
        <r>  0.0000  0.0007  0.0196 </r>
        <r>  0.0000  0.0001  0.0016 </r>
        <r>  0.0000  0.0007  0.0084 </r>
        <r>  0.0000  0.0008  0.0068 </r>
        <r>  0.0000  0.0009  0.0023 </r>
        <r>  0.0000  0.0009  0.0279 </r>
        <r>  0.0000  0.0000  0.0056 </r>
        <r>  0.0000  0.0006  0.0224 </r>
        <r>  0.0000  0.0007  0.0027 </r>
        <r>  0.0000  0.0000  0.0050 </r>
        <r>  0.0000  0.0006  0.0045 </r>
        <r>  0.0000  0.0006  0.0161 </r>
        <r>  0.0000  0.0000  0.0052 </r>
        <r>  0.0000  0.0000  0.0046 </r>
        <r>  0.0000  0.0000  0.0042 </r>
        <r>  0.0000  0.0000  0.0001 </r>
        <r>  0.0000  0.0000  0.0000 </r>
        <r>  0.0000  0.0001  0.0000 </r>
        <r>  0.0000  0.0003  0.0000 </r>
        <r>  0.0000  0.0028  0.0000 </r>
        <r>  0.0000  0.0042  0.0000 </r>
        <r>  0.0000  0.0003  0.0000 </r>
        <r>  0.0000  0.0032  0.0000 </r>
        <r>  0.0000  0.0037  0.0000 </r>
        <r>  0.0000  0.0003  0.0000 </r>
        <r>  0.0000  0.0046  0.0000 </r>
        <r>  0.0000  0.0065  0.0000 </r>
        <r>  0.0000  0.0028  0.0000 </r>
        <r>  0.0000  0.0046  0.0000 </r>
        <r>  0.0000  0.0010  0.0000 </r>
        <r>  0.0000  0.0031  0.0000 </r>
        <r>  0.0000  0.0034  0.0000 </r>
        <r>  0.0000  0.0031  0.0000 </r>
        <r>  0.0000  0.0002  0.0000 </r>
        <r>  0.0000  0.0049  0.0000 </r>
        <r>  0.0000  0.0053  0.0000 </r>
        <r>  0.0000  0.0041  0.0000 </r>
        <r>  0.0000  0.0028  0.0000 </r>
        <r>  0.0000  0.0043  0.0000 </r>
        <r>  0.0000  0.0051  0.0000 </r>
        <r>  0.0000  0.0011  0.0000 </r>
        <r>  0.0000  0.0056  0.0000 </r>
       </set>
       <set comment="band 282">
        <r>  0.0000  0.0006  0.0083 </r>
        <r>  0.0000  0.0004  0.0099 </r>
        <r>  0.0000  0.0008  0.0231 </r>
        <r>  0.0000  0.0000  0.0023 </r>
        <r>  0.0000  0.0008  0.0068 </r>
        <r>  0.0000  0.0009  0.0088 </r>
        <r>  0.0000  0.0008  0.0066 </r>
        <r>  0.0000  0.0008  0.0215 </r>
        <r>  0.0000  0.0000  0.0069 </r>
        <r>  0.0000  0.0007  0.0071 </r>
        <r>  0.0000  0.0000  0.0010 </r>
        <r>  0.0000  0.0008  0.0083 </r>
        <r>  0.0000  0.0004  0.0089 </r>
        <r>  0.0000  0.0006  0.0083 </r>
        <r>  0.0000  0.0008  0.0223 </r>
        <r>  0.0000  0.0008  0.0182 </r>
        <r>  0.0000  0.0008  0.0038 </r>
        <r>  0.0000  0.0000  0.0073 </r>
        <r>  0.0000  0.0006  0.0198 </r>
        <r>  0.0000  0.0006  0.0023 </r>
        <r>  0.0000  0.0000  0.0120 </r>
        <r>  0.0000  0.0007  0.0012 </r>
        <r>  0.0000  0.0006  0.0192 </r>
        <r>  0.0000  0.0001  0.0104 </r>
        <r>  0.0000  0.0000  0.0063 </r>
        <r>  0.0000  0.0000  0.0071 </r>
        <r>  0.0000  0.0000  0.0002 </r>
        <r>  0.0000  0.0001  0.0000 </r>
        <r>  0.0000  0.0001  0.0000 </r>
        <r>  0.0000  0.0004  0.0000 </r>
        <r>  0.0000  0.0037  0.0000 </r>
        <r>  0.0000  0.0042  0.0000 </r>
        <r>  0.0000  0.0005  0.0000 </r>
        <r>  0.0000  0.0038  0.0000 </r>
        <r>  0.0000  0.0035  0.0000 </r>
        <r>  0.0000  0.0003  0.0000 </r>
        <r>  0.0000  0.0052  0.0000 </r>
        <r>  0.0000  0.0046  0.0000 </r>
        <r>  0.0000  0.0043  0.0000 </r>
        <r>  0.0000  0.0043  0.0000 </r>
        <r>  0.0000  0.0030  0.0000 </r>
        <r>  0.0000  0.0051  0.0000 </r>
        <r>  0.0000  0.0001  0.0000 </r>
        <r>  0.0000  0.0059  0.0000 </r>
        <r>  0.0000  0.0002  0.0000 </r>
        <r>  0.0000  0.0047  0.0000 </r>
        <r>  0.0000  0.0049  0.0000 </r>
        <r>  0.0000  0.0054  0.0000 </r>
        <r>  0.0000  0.0056  0.0000 </r>
        <r>  0.0000  0.0002  0.0000 </r>
        <r>  0.0000  0.0051  0.0000 </r>
        <r>  0.0000  0.0029  0.0000 </r>
        <r>  0.0000  0.0044  0.0000 </r>
       </set>
      </set>
     </set>
    </set>
   </array>
  </projected>
 </calculation>
 <structure name="finalpos" >
  <crystal>
   <varray name="basis" >
    <v>      12.22634592       0.00000000       0.00000000 </v>
    <v>       0.00000000      12.22634592       0.00000000 </v>
    <v>       0.00000000       0.00000000      12.22634592 </v>
   </varray>
   <i name="volume">   1827.63740156 </i>
   <varray name="rec_basis" >
    <v>       0.08179059       0.00000000       0.00000000 </v>
    <v>       0.00000000       0.08179059       0.00000000 </v>
    <v>       0.00000000       0.00000000       0.08179059 </v>
   </varray>
  </crystal>
  <varray name="positions" >
   <v>       0.99146159       0.99319371       0.99125509 </v>
   <v>       0.99230179       0.99360933       0.34168951 </v>
   <v>       0.00038525       0.00069242       0.66642915 </v>
   <v>       0.99106395       0.34285348       0.99060492 </v>
   <v>       0.99138988       0.34297621       0.33989848 </v>
   <v>       0.00026580       0.33348092       0.66573635 </v>
   <v>       0.00023569       0.66748242       0.00015656 </v>
   <v>       0.00026126       0.66811036       0.33312255 </v>
   <v>       0.99973048       0.66712611       0.66659643 </v>
   <v>       0.34160450       0.99307368       0.99236839 </v>
   <v>       0.34267207       0.99154699       0.34223093 </v>
   <v>       0.33326206       0.00039311       0.66720604 </v>
   <v>       0.34067586       0.34249966       0.99056087 </v>
   <v>       0.34165607       0.34156586       0.33979216 </v>
   <v>       0.33317237       0.33344497       0.66556388 </v>
   <v>       0.33300983       0.66757947       0.00024653 </v>
   <v>       0.33319514       0.66684035       0.33311727 </v>
   <v>       0.33362648       0.66710774       0.66662998 </v>
   <v>       0.66671313       0.00051882       0.00009039 </v>
   <v>       0.66729613       0.00029814       0.33309569 </v>
   <v>       0.66670308       0.00007409       0.66632434 </v>
   <v>       0.66645831       0.33334908       0.99996675 </v>
   <v>       0.66678374       0.33335001       0.33285536 </v>
   <v>       0.66670293       0.33384139       0.66636299 </v>
   <v>       0.66646357       0.66694321       0.99958404 </v>
   <v>       0.66649663       0.66681635       0.33346264 </v>
   <v>       0.66646486       0.66703400       0.66634320 </v>
   <v>       0.16720043       0.16748399       0.48476700 </v>
   <v>       0.16617591       0.16792247       0.84701114 </v>
   <v>       0.16619263       0.48655665       0.16533367 </v>
   <v>       0.16655177       0.50082110       0.49894296 </v>
   <v>       0.16636230       0.50134823       0.83202566 </v>
   <v>       0.16684386       0.84908585       0.16707839 </v>
   <v>       0.16726719       0.83383545       0.50076897 </v>
   <v>       0.16657598       0.83427537       0.83360092 </v>
   <v>       0.48578245       0.16696423       0.16623477 </v>
   <v>       0.50094252       0.16648012       0.50005392 </v>
   <v>       0.49994755       0.16747844       0.83280371 </v>
   <v>       0.49974629       0.50039140       0.16578087 </v>
   <v>       0.50013541       0.49988142       0.49947539 </v>
   <v>       0.50028097       0.50133424       0.83195478 </v>
   <v>       0.50067934       0.83328928       0.16715047 </v>
   <v>       0.50121187       0.83240189       0.50105016 </v>
   <v>       0.50031798       0.83378355       0.83358089 </v>
   <v>       0.84762321       0.16800348       0.16593903 </v>
   <v>       0.83348661       0.16773592       0.49960867 </v>
   <v>       0.83264522       0.16732031       0.83225991 </v>
   <v>       0.83256806       0.50161507       0.16603741 </v>
   <v>       0.83273905       0.50144102       0.49982449 </v>
   <v>       0.83227487       0.50147012       0.83201548 </v>
   <v>       0.83341666       0.83436262       0.16648266 </v>
   <v>       0.83362513       0.83383381       0.50024510 </v>
   <v>       0.83259914       0.83350485       0.83255767 </v>
  </varray>
 </structure>
</modeling>
