       N       E                     dE             d eps       ncg     rms           ort
DAV:   1    -0.228100353872E+05   -0.22810E+05   -0.34153E+05  2524   0.216E+03  
DAV:   2    -0.332234320131E+05   -0.10413E+05   -0.97039E+04  2524   0.545E+02  
DAV:   3    -0.357256390716E+05   -0.25022E+04   -0.23837E+04  2524   0.225E+02  
DAV:   4    -0.359383875551E+05   -0.21275E+03   -0.20905E+03  2524   0.694E+01  
DAV:   5    -0.765539533356E+03    0.35173E+05   -0.39109E+02  2524   0.884E+01  
SDA:   6    -0.437502603567E+03    0.32804E+03   -0.39109E+02  2524   0.106E+04   0.000E+00
CGA:   7    -0.641782824558E+03   -0.20428E+03   -0.20405E+03  2524   0.573E+02  -0.130E+02
CGA:   8    -0.665068435979E+03   -0.23286E+02   -0.23500E+02  2524   0.208E+02  -0.121E+01
CGA:   9    -0.672161607974E+03   -0.70932E+01   -0.71368E+01  2524   0.628E+01  -0.309E+00
CGA:  10    -0.673801427318E+03   -0.16398E+01   -0.16390E+01  2524   0.114E+01   0.157E-01
CGA:  11    -0.674171963256E+03   -0.37054E+00   -0.37040E+00  2524   0.229E+00   0.106E-02
CGA:  12    -0.674252908557E+03   -0.80945E-01   -0.80944E-01  2524   0.639E-01   0.164E-04
CGA:  13    -0.674274156753E+03   -0.21248E-01   -0.21235E-01  2524   0.243E-01   0.169E-03
CGA:  14    -0.674283341673E+03   -0.91849E-02   -0.91783E-02  2524   0.906E-02   0.571E-04
CGA:  15    -0.674286815420E+03   -0.34737E-02   -0.34719E-02  2524   0.361E-02   0.166E-04
CGA:  16    -0.674288059298E+03   -0.12439E-02   -0.12454E-02  2524   0.121E-02  -0.254E-04
CGA:  17    -0.674288488481E+03   -0.42918E-03   -0.43029E-03  2524   0.368E-03  -0.170E-04
CGA:  18    -0.674288612317E+03   -0.12384E-03   -0.12393E-03  2524   0.122E-03  -0.217E-05
CGA:  19    -0.674288646616E+03   -0.34299E-04   -0.34277E-04  2524   0.357E-04  -0.116E-05
CGA:  20    -0.674288656440E+03   -0.98243E-05   -0.98462E-05  2524   0.101E-04   0.979E-06
   1 F= -.67428866E+03 E0= -.67428866E+03  d E =-.674289E+03  mag=    -0.0000
       N       E                     dE             d eps       ncg     rms           ort
SDA:   1    -0.571306271675E+03    0.10298E+03    0.00000E+00  2524   0.260E+03   0.000E+00
CGA:   2    -0.652870240260E+03   -0.81564E+02   -0.81809E+02  2524   0.757E+02  -0.445E+01
CGA:   3    -0.671824323910E+03   -0.18954E+02   -0.18974E+02  2524   0.111E+02   0.412E+00
CGA:   4    -0.674462156808E+03   -0.26378E+01   -0.26476E+01  2524   0.280E+01   0.103E+00
CGA:   5    -0.675172336491E+03   -0.71018E+00   -0.71213E+00  2524   0.636E+00   0.326E-01
CGA:   6    -0.675419892508E+03   -0.24756E+00   -0.24693E+00  2524   0.241E+00   0.483E-02
CGA:   7    -0.675500137645E+03   -0.80245E-01   -0.80250E-01  2524   0.785E-01  -0.485E-04
CGA:   8    -0.675524046136E+03   -0.23908E-01   -0.23905E-01  2524   0.180E-01   0.292E-03
CGA:   9    -0.675528951877E+03   -0.49057E-02   -0.49061E-02  2524   0.368E-02   0.148E-04
CGA:  10    -0.675529923540E+03   -0.97166E-03   -0.97159E-03  2524   0.773E-03  -0.252E-05
CGA:  11    -0.675530148055E+03   -0.22451E-03   -0.22451E-03  2524   0.239E-03  -0.404E-05
CGA:  12    -0.675530221704E+03   -0.73649E-04   -0.73703E-04  2524   0.787E-04  -0.304E-05
CGA:  13    -0.675530245064E+03   -0.23359E-04   -0.23378E-04  2524   0.252E-04  -0.258E-05
CGA:  14    -0.675530251920E+03   -0.68565E-05   -0.68481E-05  2524   0.822E-05  -0.628E-06
   2 F= -.67553025E+03 E0= -.67553025E+03  d E =-.124160E+01  mag=    -0.0000
       N       E                     dE             d eps       ncg     rms           ort
SDA:   1    -0.673967147075E+03    0.15631E+01    0.00000E+00  2524   0.382E+01   0.000E+00
CGA:   2    -0.675312732423E+03   -0.13456E+01   -0.13460E+01  2524   0.806E+00  -0.443E-02
CGA:   3    -0.675524769474E+03   -0.21204E+00   -0.21217E+00  2524   0.105E+00   0.186E-02
CGA:   4    -0.675551433199E+03   -0.26664E-01   -0.26665E-01  2524   0.139E-01   0.105E-04
CGA:   5    -0.675555184997E+03   -0.37518E-02   -0.37518E-02  2524   0.257E-02   0.117E-06
CGA:   6    -0.675555927935E+03   -0.74294E-03   -0.74290E-03  2524   0.847E-03   0.121E-04
CGA:   7    -0.675556196513E+03   -0.26858E-03   -0.26854E-03  2524   0.315E-03   0.146E-05
CGA:   8    -0.675556292531E+03   -0.96019E-04   -0.96002E-04  2524   0.909E-04   0.115E-05
CGA:   9    -0.675556317260E+03   -0.24728E-04   -0.24729E-04  2524   0.224E-04   0.564E-09
CGA:  10    -0.675556323280E+03   -0.60205E-05   -0.60236E-05  2524   0.473E-05   0.152E-06
   3 F= -.67555632E+03 E0= -.67555632E+03  d E =-.126767E+01  mag=     0.0000
       N       E                     dE             d eps       ncg     rms           ort
SDA:   1    -0.669038882388E+03    0.65174E+01    0.00000E+00  2524   0.151E+02   0.000E+00
CGA:   2    -0.674734511887E+03   -0.56956E+01   -0.56876E+01  2524   0.331E+01   0.623E-01
CGA:   3    -0.675560504934E+03   -0.82599E+00   -0.82525E+00  2524   0.418E+00  -0.544E-02
CGA:   4    -0.675659364866E+03   -0.98860E-01   -0.98885E-01  2524   0.736E-01   0.236E-03
CGA:   5    -0.675677121786E+03   -0.17757E-01   -0.17763E-01  2524   0.143E-01   0.122E-03
CGA:   6    -0.675681171450E+03   -0.40497E-02   -0.40497E-02  2524   0.398E-02  -0.194E-04
CGA:   7    -0.675682543864E+03   -0.13724E-02   -0.13712E-02  2524   0.122E-02   0.182E-04
CGA:   8    -0.675682980466E+03   -0.43660E-03   -0.43637E-03  2524   0.393E-03   0.321E-05
CGA:   9    -0.675683079808E+03   -0.99342E-04   -0.99506E-04  2524   0.806E-04   0.405E-05
CGA:  10    -0.675683102009E+03   -0.22201E-04   -0.22189E-04  2524   0.202E-04  -0.726E-06
CGA:  11    -0.675683106840E+03   -0.48315E-05   -0.48339E-05  2524   0.672E-05   0.522E-07
   4 F= -.67568311E+03 E0= -.67568311E+03  d E =-.126784E+00  mag=     0.0000
       N       E                     dE             d eps       ncg     rms           ort
SDA:   1    -0.675062479294E+03    0.62062E+00    0.00000E+00  2524   0.142E+01   0.000E+00
CGA:   2    -0.675600921540E+03   -0.53844E+00   -0.53824E+00  2524   0.311E+00   0.133E-02
CGA:   3    -0.675679382938E+03   -0.78461E-01   -0.78444E-01  2524   0.380E-01  -0.173E-03
CGA:   4    -0.675688324679E+03   -0.89417E-02   -0.89420E-02  2524   0.666E-02   0.598E-05
CGA:   5    -0.675689994444E+03   -0.16698E-02   -0.16702E-02  2524   0.117E-02   0.151E-04
CGA:   6    -0.675690324549E+03   -0.33011E-03   -0.33012E-03  2524   0.353E-03  -0.409E-05
CGA:   7    -0.675690431101E+03   -0.10655E-03   -0.10651E-03  2524   0.124E-03   0.171E-05
CGA:   8    -0.675690469602E+03   -0.38501E-04   -0.38499E-04  2524   0.525E-04   0.757E-07
CGA:   9    -0.675690481462E+03   -0.11860E-04   -0.11878E-04  2524   0.144E-04   0.321E-06
CGA:  10    -0.675690484670E+03   -0.32083E-05   -0.32239E-05  2524   0.339E-05   0.284E-06
   5 F= -.67569048E+03 E0= -.67569048E+03  d E =-.134161E+00  mag=     0.0000
       N       E                     dE             d eps       ncg     rms           ort
SDA:   1    -0.673532729467E+03    0.21578E+01    0.00000E+00  2524   0.500E+01   0.000E+00
CGA:   2    -0.675376432799E+03   -0.18437E+01   -0.18421E+01  2524   0.123E+01   0.115E-01
CGA:   3    -0.675688336311E+03   -0.31190E+00   -0.31179E+00  2524   0.129E+00  -0.178E-02
CGA:   4    -0.675718624602E+03   -0.30288E-01   -0.30287E-01  2524   0.230E-01  -0.290E-04
CGA:   5    -0.675724157425E+03   -0.55328E-02   -0.55344E-02  2524   0.399E-02   0.466E-04
CGA:   6    -0.675725229391E+03   -0.10720E-02   -0.10719E-02  2524   0.115E-02  -0.146E-04
CGA:   7    -0.675725576932E+03   -0.34754E-03   -0.34741E-03  2524   0.402E-03   0.407E-05
CGA:   8    -0.675725685872E+03   -0.10894E-03   -0.10895E-03  2524   0.192E-03   0.254E-05
CGA:   9    -0.675725732071E+03   -0.46200E-04   -0.46205E-04  2524   0.440E-04   0.142E-06
CGA:  10    -0.675725743474E+03   -0.11403E-04   -0.11408E-04  2524   0.114E-04   0.480E-06
CGA:  11    -0.675725746259E+03   -0.27849E-05   -0.27823E-05  2524   0.299E-05  -0.946E-07
   6 F= -.67572575E+03 E0= -.67572575E+03  d E =-.352616E-01  mag=     0.0000
       N       E                     dE             d eps       ncg     rms           ort
SDA:   1    -0.675350188286E+03    0.37556E+00    0.00000E+00  2524   0.853E+00   0.000E+00
CGA:   2    -0.675668396948E+03   -0.31821E+00   -0.31810E+00  2524   0.210E+00   0.650E-03
CGA:   3    -0.675722519894E+03   -0.54123E-01   -0.54118E-01  2524   0.227E-01  -0.123E-03
CGA:   4    -0.675727673216E+03   -0.51533E-02   -0.51530E-02  2524   0.441E-02  -0.170E-05
CGA:   5    -0.675728776083E+03   -0.11029E-02   -0.11031E-02  2524   0.745E-03   0.104E-04
CGA:   6    -0.675728964216E+03   -0.18813E-03   -0.18810E-03  2524   0.262E-03  -0.205E-05
CGA:   7    -0.675729026829E+03   -0.62613E-04   -0.62590E-04  2524   0.980E-04  -0.831E-06
CGA:   8    -0.675729053014E+03   -0.26186E-04   -0.26183E-04  2524   0.354E-04   0.593E-06
CGA:   9    -0.675729062642E+03   -0.96276E-05   -0.96260E-05  2524   0.120E-04   0.241E-06
   7 F= -.67572906E+03 E0= -.67572906E+03  d E =-.385780E-01  mag=     0.0000
       N       E                     dE             d eps       ncg     rms           ort
SDA:   1    -0.675082777335E+03    0.64628E+00    0.00000E+00  2524   0.152E+01   0.000E+00
CGA:   2    -0.675628531926E+03   -0.54575E+00   -0.54567E+00  2524   0.349E+00   0.571E-03
CGA:   3    -0.675726002624E+03   -0.97471E-01   -0.97474E-01  2524   0.358E-01  -0.175E-03
CGA:   4    -0.675734374036E+03   -0.83714E-02   -0.83716E-02  2524   0.749E-02   0.374E-05
CGA:   5    -0.675736271052E+03   -0.18970E-02   -0.18972E-02  2524   0.131E-02   0.120E-04
CGA:   6    -0.675736635686E+03   -0.36463E-03   -0.36467E-03  2524   0.373E-03  -0.275E-05
CGA:   7    -0.675736747809E+03   -0.11212E-03   -0.11210E-03  2524   0.141E-03   0.591E-06
CGA:   8    -0.675736785076E+03   -0.37267E-04   -0.37274E-04  2524   0.511E-04   0.104E-05
CGA:   9    -0.675736796817E+03   -0.11741E-04   -0.11748E-04  2524   0.144E-04   0.161E-06
CGA:  10    -0.675736799962E+03   -0.31445E-05   -0.31429E-05  2524   0.456E-05  -0.343E-07
   8 F= -.67573680E+03 E0= -.67573680E+03  d E =-.773732E-02  mag=    -0.0000
       N       E                     dE             d eps       ncg     rms           ort
SDA:   1    -0.675733395780E+03    0.34010E-02    0.00000E+00  2524   0.777E-02   0.000E+00
CGA:   2    -0.675736234575E+03   -0.28388E-02   -0.28388E-02  2524   0.191E-02  -0.264E-06
CGA:   3    -0.675736759938E+03   -0.52536E-03   -0.52537E-03  2524   0.329E-03  -0.575E-06
CGA:   4    -0.675736819827E+03   -0.59888E-04   -0.59974E-04  2524   0.663E-04   0.995E-06
CGA:   5    -0.675736837674E+03   -0.17848E-04   -0.17846E-04  2524   0.150E-04   0.253E-06
CGA:   6    -0.675736841379E+03   -0.37041E-05   -0.37073E-05  2524   0.385E-05   0.204E-06
   9 F= -.67573684E+03 E0= -.67573684E+03  d E =-.777874E-02  mag=    -0.0000
       N       E                     dE             d eps       ncg     rms           ort
SDA:   1    -0.675556446798E+03    0.18039E+00    0.00000E+00  2524   0.378E+00   0.000E+00
CGA:   2    -0.675718109273E+03   -0.16166E+00   -0.16166E+00  2524   0.757E-01   0.309E-04
CGA:   3    -0.675738091088E+03   -0.19982E-01   -0.19982E-01  2524   0.552E-02   0.221E-04
CGA:   4    -0.675739496038E+03   -0.14050E-02   -0.14048E-02  2524   0.132E-02  -0.864E-05
CGA:   5    -0.675739791774E+03   -0.29574E-03   -0.29609E-03  2524   0.234E-03   0.708E-05
CGA:   6    -0.675739853020E+03   -0.61246E-04   -0.61239E-04  2524   0.724E-04  -0.923E-06
CGA:   7    -0.675739871079E+03   -0.18059E-04   -0.18044E-04  2524   0.270E-04  -0.862E-06
CGA:   8    -0.675739877985E+03   -0.69060E-05   -0.69101E-05  2524   0.947E-05   0.561E-06
  10 F= -.67573988E+03 E0= -.67573988E+03  d E =-.303661E-02  mag=    -0.0000
       N       E                     dE             d eps       ncg     rms           ort
SDA:   1    -0.675669312449E+03    0.70559E-01    0.00000E+00  2524   0.146E+00   0.000E+00
CGA:   2    -0.675731888670E+03   -0.62576E-01   -0.62574E-01  2524   0.294E-01   0.988E-05
CGA:   3    -0.675739725893E+03   -0.78372E-02   -0.78374E-02  2524   0.232E-02   0.100E-04
CGA:   4    -0.675740307237E+03   -0.58134E-03   -0.58127E-03  2524   0.572E-03  -0.240E-05
CGA:   5    -0.675740434907E+03   -0.12767E-03   -0.12780E-03  2524   0.118E-03   0.243E-05
CGA:   6    -0.675740460753E+03   -0.25846E-04   -0.25843E-04  2524   0.388E-04  -0.503E-07
CGA:   7    -0.675740469743E+03   -0.89904E-05   -0.89695E-05  2524   0.129E-04  -0.591E-06
  11 F= -.67574047E+03 E0= -.67574047E+03  d E =-.362836E-02  mag=    -0.0000
       N       E                     dE             d eps       ncg     rms           ort
SDA:   1    -0.675592207348E+03    0.14825E+00    0.00000E+00  2524   0.319E+00   0.000E+00
CGA:   2    -0.675722376067E+03   -0.13017E+00   -0.13017E+00  2524   0.652E-01  -0.155E-06
CGA:   3    -0.675740198871E+03   -0.17823E-01   -0.17823E-01  2524   0.565E-02   0.107E-04
CGA:   4    -0.675741568721E+03   -0.13699E-02   -0.13698E-02  2524   0.137E-02  -0.282E-05
CGA:   5    -0.675741888663E+03   -0.31994E-03   -0.32001E-03  2524   0.233E-03   0.161E-05
CGA:   6    -0.675741954951E+03   -0.66289E-04   -0.66285E-04  2524   0.696E-04   0.274E-06
CGA:   7    -0.675741974245E+03   -0.19294E-04   -0.19294E-04  2524   0.261E-04  -0.907E-07
CGA:   8    -0.675741981008E+03   -0.67632E-05   -0.67648E-05  2524   0.956E-05   0.139E-06
  12 F= -.67574198E+03 E0= -.67574198E+03  d E =-.151126E-02  mag=    -0.0000
