 vasp.6.5.1 10Mar25 (build May 13 2025 11:33:44) complex                         
 executed on              LinuxNV date 2026.05.04  08:59:37
 running    2 mpi-ranks, on    1 nodes
 distrk:  each k-point on    1 cores,    2 groups
 distr:  one band on NCORE=   1 cores,    1 groups
 Offloading initialized ...    2 GPUs detected


--------------------------------------------------------------------------------------------------------


 INCAR:
   ALGO = All
   PREC = Normal
   LREAL = Auto
   EDIFF = 1e-05
   ENCUT = 400.0
   LASPH = True
   NELM = 100
   ISIF = 2
   IBRION = 2
   EDIFFG = -0.03
   NSW = 300
   ISMEAR = 0
   SIGMA = 0.1
   ISPIN = 2
   LWAVE = True
   LCHARG = False
   LORBIT = 10
   LHFCALC = True
   PRECFOCK = Fast
   AEXX = 0.36
   HFSCREEN = 0.2
   TIME = 0.4
   NELECT = 962.0
   KPAR = 4

 POTCAR:    PAW_PBE Zn 06Sep2000                  
 POTCAR:    PAW_PBE O 08Apr2002                   
 POTCAR:    PAW_PBE Na 08Apr2002                  
 -----------------------------------------------------------------------------
|                                                                             |
|           W    W    AA    RRRRR   N    N  II  N    N   GGGG   !!!           |
|           W    W   A  A   R    R  NN   N  II  NN   N  G    G  !!!           |
|           W    W  A    A  R    R  N N  N  II  N N  N  G       !!!           |
|           W WW W  AAAAAA  RRRRR   N  N N  II  N  N N  G  GGG   !            |
|           WW  WW  A    A  R   R   N   NN  II  N   NN  G    G                |
|           W    W  A    A  R    R  N    N  II  N    N   GGGG   !!!           |
|                                                                             |
|     You requested a magnetic or noncollinear calculation, but did not       |
|     specify the initial magnetic moment with the MAGMOM tag. Note that      |
|     a default of 1 will be used for all atoms. This ferromagnetic setup     |
|     may break the symmetry of the crystal, in particular it may rule        |
|     out finding an antiferromagnetic solution. Thence, we recommend         |
|     setting the initial magnetic moment manually or verifying carefully     |
|     that this magnetic setup is desired.                                    |
|                                                                             |
 -----------------------------------------------------------------------------

 POTCAR:    PAW_PBE Zn 06Sep2000                  
   SHA256 =  501fddbd8274dd8e9725d4f3de27861d7f1e553a7e18441bc79fed8f346e7f23 Zn/POTCAR             
   COPYR  = (c) Copyright 06Sep2000 Georg Kresse                                                    
   COPYR  = This file is part of the software VASP. Any use, copying, and all other rights are regul
   COPYR  = If you do not have a valid VASP license, you may not use, copy or distribute this file. 
   VRHFIN =Zn: d10 p2                                                                               
   LEXCH  = PE                                                                                      
   EATOM  =  1748.8345 eV,  128.5357 Ry                                                             
                                                                                                    
   TITEL  = PAW_PBE Zn 06Sep2000                                                                    
   LULTRA =        F    use ultrasoft PP ?                                                          
   IUNSCR =        1    unscreen: 0-lin 1-nonlin 2-no                                               
   RPACOR =    2.000    partial core radius                                                         
   POMASS =   65.390; ZVAL   =   12.000    mass and valenz                                          
   RCORE  =    2.300    outmost cutoff radius                                                       
   RWIGS  =    2.400; RWIGS  =    1.270    wigner-seitz radius (au A)                               
   ENMAX  =  276.723; ENMIN  =  207.542 eV                                                          
   RCLOC  =    1.828    cutoff for local pot                                                        
   LCOR   =        T    correct aug charges                                                         
   LPAW   =        T    paw PP                                                                      
   EAUG   =  575.892                                                                                
   DEXC   =    0.000                                                                                
   RMAX   =    2.347    core radius for proj-oper                                                   
   RAUG   =    1.300    factor for augmentation sphere                                              
   RDEP   =    2.324    radius for radial grids                                                     
   RDEPT  =    1.788    core radius for aug-charge                                                  
                                                                                                    
   Atomic configuration                                                                             
    9 entries                                                                                       
     n  l   j            E        occ.                                                              
     1  0  0.50     -9524.6913   2.0000                                                             
     2  0  0.50     -1158.1882   2.0000                                                             
     2  1  1.50     -1003.8506   6.0000                                                             
     3  0  0.50      -129.2194   2.0000                                                             
     3  1  1.50       -83.3890   6.0000                                                             
     3  2  2.50       -10.1410  10.0000                                                             
     4  0  0.50        -5.9785   2.0000                                                             
     4  1  0.50        -4.0817   0.0000                                                             
     4  3  2.50        -1.3606   0.0000                                                             
   Description                                                                                      
     l       E           TYP  RCUT    TYP  RCUT                                                     
     2    -10.1410010     23  2.300                                                                 
     2    -11.5015836     23  2.300                                                                 
     0     -5.9785163     23  2.300                                                                 
     0      1.1858015     23  2.300                                                                 
     1     -2.7211652     23  2.300                                                                 
     1     13.2444212     23  2.300                                                                 
  local pseudopotential read in
  partial core-charges read in
  partial kinetic energy density read in
  atomic valenz-charges read in
  non local Contribution for L=            2  read in
    real space projection operators read in
  non local Contribution for L=            2  read in
    real space projection operators read in
  non local Contribution for L=            0  read in
    real space projection operators read in
  non local Contribution for L=            0  read in
    real space projection operators read in
  non local Contribution for L=            1  read in
    real space projection operators read in
  non local Contribution for L=            1  read in
    real space projection operators read in
    PAW grid and wavefunctions read in
 
   number of l-projection  operators is LMAX  =            6
   number of lm-projection operators is LMMAX =           18
 
 POTCAR:    PAW_PBE O 08Apr2002                   
   SHA256 =  818f92134a0a090dccd8ba1447fa70422a3b330e708bb4f08108d8ae51209ddf O/POTCAR              
   COPYR  = (c) Copyright 08Apr2002 Georg Kresse                                                    
   COPYR  = This file is part of the software VASP. Any use, copying, and all other rights are regul
   COPYR  = If you do not have a valid VASP license, you may not use, copy or distribute this file. 
   VRHFIN =O: s2p4                                                                                  
   LEXCH  = PE                                                                                      
   EATOM  =   432.3788 eV,   31.7789 Ry                                                             
                                                                                                    
   TITEL  = PAW_PBE O 08Apr2002                                                                     
   LULTRA =        F    use ultrasoft PP ?                                                          
   IUNSCR =        1    unscreen: 0-lin 1-nonlin 2-no                                               
   RPACOR =    1.200    partial core radius                                                         
   POMASS =   16.000; ZVAL   =    6.000    mass and valenz                                          
   RCORE  =    1.520    outmost cutoff radius                                                       
   RWIGS  =    1.550; RWIGS  =    0.820    wigner-seitz radius (au A)                               
   ENMAX  =  400.000; ENMIN  =  300.000 eV                                                          
   ICORE  =        2    local potential                                                             
   LCOR   =        T    correct aug charges                                                         
   LPAW   =        T    paw PP                                                                      
   EAUG   =  605.392                                                                                
   DEXC   =    0.000                                                                                
   RMAX   =    1.553    core radius for proj-oper                                                   
   RAUG   =    1.300    factor for augmentation sphere                                              
   RDEP   =    1.550    radius for radial grids                                                     
   RDEPT  =    1.329    core radius for aug-charge                                                  
                                                                                                    
   Atomic configuration                                                                             
    4 entries                                                                                       
     n  l   j            E        occ.                                                              
     1  0  0.50      -514.6923   2.0000                                                             
     2  0  0.50       -23.9615   2.0000                                                             
     2  1  0.50        -9.0305   4.0000                                                             
     3  2  1.50        -9.5241   0.0000                                                             
   Description                                                                                      
     l       E           TYP  RCUT    TYP  RCUT                                                     
     0    -23.9615318     23  1.200                                                                 
     0     -9.5240782     23  1.200                                                                 
     1     -9.0304911     23  1.520                                                                 
     1      8.1634956     23  1.520                                                                 
     2     -9.5240782      7  1.500                                                                 
  local pseudopotential read in
  partial core-charges read in
  partial kinetic energy density read in
  kinetic energy density of atom read in
  atomic valenz-charges read in
  non local Contribution for L=            0  read in
    real space projection operators read in
  non local Contribution for L=            0  read in
    real space projection operators read in
  non local Contribution for L=            1  read in
    real space projection operators read in
  non local Contribution for L=            1  read in
    real space projection operators read in
    PAW grid and wavefunctions read in
 
   number of l-projection  operators is LMAX  =            4
   number of lm-projection operators is LMMAX =            8
 
 POTCAR:    PAW_PBE Na 08Apr2002                  
   SHA256 =  28de979e29d3a0ce6b912090ec41d2d3fb15239b988ee49a7215736a384d2747 Na/POTCAR             
   COPYR  = (c) Copyright 08Apr2002 Georg Kresse                                                    
   COPYR  = This file is part of the software VASP. Any use, copying, and all other rights are regul
   COPYR  = If you do not have a valid VASP license, you may not use, copy or distribute this file. 
   VRHFIN =Na: s1p0                                                                                 
   LEXCH  = PE                                                                                      
   EATOM  =     5.1581 eV,    0.3791 Ry                                                             
                                                                                                    
   TITEL  = PAW_PBE Na 08Apr2002                                                                    
   LULTRA =        F    use ultrasoft PP ?                                                          
   IUNSCR =        1    unscreen: 0-lin 1-nonlin 2-no                                               
   RPACOR =    1.800    partial core radius                                                         
   POMASS =   22.990; ZVAL   =    1.000    mass and valenz                                          
   RCORE  =    2.200    outmost cutoff radius                                                       
   RWIGS  =    3.320; RWIGS  =    1.757    wigner-seitz radius (au A)                               
   ENMAX  =  101.968; ENMIN  =   76.476 eV                                                          
   ICORE  =        2    local potential                                                             
   LCOR   =        T    correct aug charges                                                         
   LPAW   =        T    paw PP                                                                      
   EAUG   =  250.695                                                                                
   DEXC   =    0.000                                                                                
   RMAX   =    2.245    core radius for proj-oper                                                   
   RAUG   =    1.300    factor for augmentation sphere                                              
   RDEP   =    2.259    radius for radial grids                                                     
   RDEPT  =    2.115    core radius for aug-charge                                                  
                                                                                                    
   Atomic configuration                                                                             
    6 entries                                                                                       
     n  l   j            E        occ.                                                              
     1  0  0.50     -1033.6933   2.0000                                                             
     2  0  0.50       -56.7526   2.0000                                                             
     2  1  1.50       -28.6721   6.0000                                                             
     3  0  0.50        -2.7440   1.0000                                                             
     3  1  0.50        -1.3606   0.0000                                                             
     3  2  1.50        -1.3606   0.0000                                                             
   Description                                                                                      
     l       E           TYP  RCUT    TYP  RCUT                                                     
     0     -2.7439560     23  2.200                                                                 
     0     27.2116520     23  2.200                                                                 
     1     -1.3605826     23  2.200                                                                 
     2     -1.3605826     23  2.200                                                                 
  local pseudopotential read in
  partial core-charges read in
  partial kinetic energy density read in
  atomic valenz-charges read in
  non local Contribution for L=            0  read in
    real space projection operators read in
  non local Contribution for L=            0  read in
    real space projection operators read in
  non local Contribution for L=            1  read in
    real space projection operators read in
    PAW grid and wavefunctions read in
 
   number of l-projection  operators is LMAX  =            3
   number of lm-projection operators is LMMAX =            5
 
 Optimization of the real space projectors (new method)

 maximal supplied QI-value         = 16.25
 optimisation between [QCUT,QGAM] = [ 10.24, 20.48] = [ 29.35,117.42] Ry 
 Optimized for a Real-space Cutoff    1.38 Angstroem

   l    n(q)    QCUT    max X(q) W(low)/X(q) W(high)/X(q)  e(spline) 
   2      7    10.239    46.356    0.21E-03    0.48E-03    0.10E-06
   2      7    10.239    41.843    0.21E-03    0.50E-03    0.10E-06
   0      8    10.239    48.958    0.37E-03    0.79E-04    0.11E-06
   0      8    10.239    32.776    0.35E-03    0.73E-04    0.10E-06
   1      8    10.239    17.787    0.49E-03    0.70E-03    0.14E-06
   1      8    10.239    14.435    0.42E-03    0.61E-03    0.13E-06
 Optimization of the real space projectors (new method)

 maximal supplied QI-value         = 24.76
 optimisation between [QCUT,QGAM] = [ 10.15, 20.30] = [ 28.85,115.39] Ry 
 Optimized for a Real-space Cutoff    1.38 Angstroem

   l    n(q)    QCUT    max X(q) W(low)/X(q) W(high)/X(q)  e(spline) 
   0      8    10.150    20.381    0.22E-03    0.32E-03    0.29E-06
   0      8    10.150    15.268    0.23E-03    0.35E-03    0.30E-06
   1      8    10.150     5.964    0.46E-03    0.53E-03    0.21E-06
   1      8    10.150     5.382    0.38E-03    0.45E-03    0.19E-06
 Optimization of the real space projectors (new method)

 maximal supplied QI-value         = 17.01
 optimisation between [QCUT,QGAM] = [ 10.20, 20.41] = [ 29.16,116.64] Ry 
 Optimized for a Real-space Cutoff    1.19 Angstroem

   l    n(q)    QCUT    max X(q) W(low)/X(q) W(high)/X(q)  e(spline) 
   0      7    10.205    45.123    0.22E-03    0.82E-03    0.11E-06
   0      7    10.205    12.364    0.17E-03    0.61E-03    0.75E-07
   1      7    10.205     8.302    0.37E-03    0.15E-03    0.27E-07
  PAW_PBE Zn 06Sep2000                  :
 energy of atom  1       EATOM=-1748.8345
 kinetic energy error for atom=    0.0107 (will be added to EATOM!!)
  PAW_PBE O 08Apr2002                   :
 energy of atom  2       EATOM= -432.3788
 kinetic energy error for atom=    0.1156 (will be added to EATOM!!)
  PAW_PBE Na 08Apr2002                  :
 energy of atom  3       EATOM=   -5.1581
 kinetic energy error for atom=    0.0001 (will be added to EATOM!!)
 
 
 POSCAR: Na1 Zn53 O54
  positions in direct lattice
  No initial velocities read in


 exchange-correlation table for PE
   RHO(1)=    0.500       N(1)  =     2000
   RHO(2)=  100.500       N(2)  =     4000
 


--------------------------------------------------------------------------------------------------------


 ion  position               nearest neighbor table
   1  0.111  0.222  0.333-  84 1.98  81 1.98  99 1.98  55 1.99
   2  0.111  0.222  0.667-  85 1.98  82 1.98 100 1.98  56 1.99
   3  0.111  0.556  0.000-  89 1.98 104 1.98  57 1.99  86 1.99 108 3.25
   4  0.111  0.556  0.333-  87 1.98 102 1.98  84 1.98  58 1.99
   5  0.111  0.556  0.667-  88 1.98 103 1.98  85 1.98  59 1.99
   6  0.111  0.889  0.000-  89 1.98 107 1.98  60 1.99  83 2.01 108 3.25
   7  0.111  0.889  0.333-  87 1.98  81 1.98 105 1.98  61 1.99
   8  0.111  0.889  0.667-  88 1.98  82 1.98 106 1.98  62 1.99
   9  0.444  0.222  0.000-  95 1.98  92 1.98  63 1.99  83 2.07 108 3.25
  10  0.444  0.222  0.333-  93 1.98  81 1.98  90 1.98  64 1.99
  11  0.444  0.222  0.667-  94 1.98  82 1.98  91 1.98  65 1.99
  12  0.444  0.556  0.000-  98 1.98  95 1.98  66 1.99  86 2.04 108 3.25
  13  0.444  0.556  0.333-  96 1.98  84 1.98  93 1.98  67 1.99
  14  0.444  0.556  0.667-  97 1.98  85 1.98  94 1.98  68 1.99
  15  0.444  0.889  0.000-  92 1.98  89 1.98  98 1.98  69 1.99
  16  0.444  0.889  0.333-  90 1.98  87 1.98  96 1.98  70 1.99
  17  0.444  0.889  0.667-  91 1.98  88 1.98  97 1.98  71 1.99
  18  0.778  0.222  0.000- 104 1.98  92 1.98  72 1.99 101 2.01 108 3.25
  19  0.778  0.222  0.333- 102 1.98  99 1.98  90 1.98  73 1.99
  20  0.778  0.222  0.667- 103 1.98 100 1.98  91 1.98  74 1.99
  21  0.778  0.556  0.000- 107 1.98  95 1.98 104 1.98  75 1.99
  22  0.778  0.556  0.333- 105 1.98  93 1.98 102 1.98  76 1.99
  23  0.778  0.556  0.667- 106 1.98  94 1.98 103 1.98  77 1.99
  24  0.778  0.889  0.000- 101 1.96 107 1.98  98 1.98  78 1.99 108 3.25
  25  0.778  0.889  0.333- 105 1.98  99 1.98  96 1.98  79 1.99
  26  0.778  0.889  0.667- 106 1.98 100 1.98  97 1.98  80 1.99
  27  0.222  0.111  0.167-  54 1.88  60 1.98  63 1.98  81 1.99 108 3.21
  28  0.222  0.111  0.500-  55 1.98  61 1.98  64 1.98  82 1.99
  29  0.222  0.111  0.833-  83 1.91  56 1.98  62 1.98  65 1.98 108 3.21
  30  0.222  0.444  0.167-  54 1.97  66 1.98  57 1.98  84 1.99 108 3.21
  31  0.222  0.444  0.500-  55 1.98  67 1.98  58 1.98  85 1.99
  32  0.222  0.444  0.833-  56 1.98  68 1.98  59 1.98  86 1.99 108 3.21
  33  0.222  0.778  0.167-  57 1.98  60 1.98  69 1.98  87 1.99
  34  0.222  0.778  0.500-  58 1.98  61 1.98  70 1.98  88 1.99
  35  0.222  0.778  0.833-  59 1.98  62 1.98  71 1.98  89 1.99
  36  0.556  0.111  0.167-  69 1.98  72 1.98  63 1.98  90 1.99
  37  0.556  0.111  0.500-  70 1.98  73 1.98  64 1.98  91 1.99
  38  0.556  0.111  0.833-  71 1.98  74 1.98  65 1.98  92 1.99
  39  0.556  0.444  0.167-  63 1.98  75 1.98  66 1.98  93 1.99
  40  0.556  0.444  0.500-  64 1.98  76 1.98  67 1.98  94 1.99
  41  0.556  0.444  0.833-  65 1.98  77 1.98  68 1.98  95 1.99
  42  0.556  0.778  0.167-  66 1.98  78 1.98  69 1.98  96 1.99
  43  0.556  0.778  0.500-  67 1.98  79 1.98  70 1.98  97 1.99
  44  0.556  0.778  0.833-  68 1.98  80 1.98  71 1.98  98 1.99
  45  0.889  0.111  0.167-  72 1.98  78 1.98  99 1.99  54 2.00 108 3.21
  46  0.889  0.111  0.500-  73 1.98  79 1.98  55 1.98 100 1.99
  47  0.889  0.111  0.833-  74 1.98  80 1.98  56 1.98 101 2.01 108 3.21
  48  0.889  0.444  0.167-  72 1.98  57 1.98  75 1.98 102 1.99
  49  0.889  0.444  0.500-  73 1.98  58 1.98  76 1.98 103 1.99
  50  0.889  0.444  0.833-  74 1.98  59 1.98  77 1.98 104 1.99
  51  0.889  0.778  0.167-  75 1.98  78 1.98  60 1.98 105 1.99
  52  0.889  0.778  0.500-  76 1.98  79 1.98  61 1.98 106 1.99
  53  0.889  0.778  0.833-  77 1.98  80 1.98  62 1.98 107 1.99
  54  0.117  0.219  0.134-  27 1.88  30 1.97  45 2.00 108 2.09
  55  0.111  0.222  0.460-  31 1.98  28 1.98  46 1.98   1 1.99
  56  0.111  0.222  0.794-  32 1.98  29 1.98  47 1.98   2 1.99
  57  0.111  0.556  0.127-  33 1.98  48 1.98  30 1.98   3 1.99
  58  0.111  0.556  0.460-  34 1.98  49 1.98  31 1.98   4 1.99
  59  0.111  0.556  0.794-  35 1.98  50 1.98  32 1.98   5 1.99
  60  0.111  0.889  0.127-  33 1.98  27 1.98  51 1.98   6 1.99
  61  0.111  0.889  0.460-  34 1.98  28 1.98  52 1.98   7 1.99
  62  0.111  0.889  0.794-  35 1.98  29 1.98  53 1.98   8 1.99
  63  0.444  0.222  0.127-  39 1.98  27 1.98  36 1.98   9 1.99
  64  0.444  0.222  0.460-  40 1.98  28 1.98  37 1.98  10 1.99
  65  0.444  0.222  0.794-  41 1.98  29 1.98  38 1.98  11 1.99
  66  0.444  0.556  0.127-  42 1.98  30 1.98  39 1.98  12 1.99
  67  0.444  0.556  0.460-  43 1.98  31 1.98  40 1.98  13 1.99
  68  0.444  0.556  0.794-  44 1.98  32 1.98  41 1.98  14 1.99
  69  0.444  0.889  0.127-  36 1.98  33 1.98  42 1.98  15 1.99
  70  0.444  0.889  0.460-  37 1.98  34 1.98  43 1.98  16 1.99
  71  0.444  0.889  0.794-  38 1.98  35 1.98  44 1.98  17 1.99
  72  0.778  0.222  0.127-  48 1.98  45 1.98  36 1.98  18 1.99
  73  0.778  0.222  0.460-  49 1.98  46 1.98  37 1.98  19 1.99
  74  0.778  0.222  0.794-  50 1.98  47 1.98  38 1.98  20 1.99
  75  0.778  0.556  0.127-  51 1.98  39 1.98  48 1.98  21 1.99
  76  0.778  0.556  0.460-  52 1.98  40 1.98  49 1.98  22 1.99
  77  0.778  0.556  0.794-  53 1.98  41 1.98  50 1.98  23 1.99
  78  0.778  0.889  0.127-  51 1.98  45 1.98  42 1.98  24 1.99
  79  0.778  0.889  0.460-  52 1.98  46 1.98  43 1.98  25 1.99
  80  0.778  0.889  0.794-  53 1.98  47 1.98  44 1.98  26 1.99
  81  0.222  0.111  0.294-   1 1.98   7 1.98  10 1.98  27 1.99
  82  0.222  0.111  0.627-   2 1.98   8 1.98  11 1.98  28 1.99
  83  0.213  0.113  0.956-  29 1.91 108 1.92   6 2.01   9 2.07
  84  0.222  0.444  0.294-   1 1.98  13 1.98   4 1.98  30 1.99
  85  0.222  0.444  0.627-   2 1.98  14 1.98   5 1.98  31 1.99
  86  0.215  0.435  0.961- 108 1.90   3 1.99  32 1.99  12 2.04
  87  0.222  0.778  0.294-   4 1.98   7 1.98  16 1.98  33 1.99
  88  0.222  0.778  0.627-   5 1.98   8 1.98  17 1.98  34 1.99
  89  0.222  0.778  0.960-   3 1.98   6 1.98  15 1.98  35 1.99
  90  0.556  0.111  0.294-  16 1.98  19 1.98  10 1.98  36 1.99
  91  0.556  0.111  0.627-  17 1.98  20 1.98  11 1.98  37 1.99
  92  0.556  0.111  0.960-  15 1.98  18 1.98   9 1.98  38 1.99
  93  0.556  0.444  0.294-  10 1.98  22 1.98  13 1.98  39 1.99
  94  0.556  0.444  0.627-  11 1.98  23 1.98  14 1.98  40 1.99
  95  0.556  0.444  0.960-   9 1.98  21 1.98  12 1.98  41 1.99
  96  0.556  0.778  0.294-  13 1.98  25 1.98  16 1.98  42 1.99
  97  0.556  0.778  0.627-  14 1.98  26 1.98  17 1.98  43 1.99
  98  0.556  0.778  0.960-  12 1.98  24 1.98  15 1.98  44 1.99
  99  0.889  0.111  0.294-  19 1.98  25 1.98   1 1.98  45 1.99
 100  0.889  0.111  0.627-  20 1.98  26 1.98   2 1.98  46 1.99
 101  0.893  0.110  0.962- 108 1.94  24 1.96  47 2.01  18 2.01
 102  0.889  0.444  0.294-  19 1.98   4 1.98  22 1.98  48 1.99
 103  0.889  0.444  0.627-  20 1.98   5 1.98  23 1.98  49 1.99
 104  0.889  0.444  0.960-  18 1.98   3 1.98  21 1.98  50 1.99
 105  0.889  0.778  0.294-  22 1.98  25 1.98   7 1.98  51 1.99
 106  0.889  0.778  0.627-  23 1.98  26 1.98   8 1.98  52 1.99
 107  0.889  0.778  0.960-  21 1.98  24 1.98   6 1.98  53 1.99
 108  0.111  0.222  0.000-  86 1.90  83 1.92 101 1.94  54 2.09  30 3.21  27 3.21  45 3.21  32 3.21
                            29 3.21  47 3.21   6 3.25   9 3.25  18 3.25  24 3.25  12 3.25   3 3.25
 
  LATTYP: Found a hexagonal cell.
 ALAT       =     9.7481175735
 C/A-ratio  =     1.6035510008
  
  Lattice vectors:
  
 A1 = (   9.7481175735,   0.0000000000,   0.0000000000)
 A2 = (  -4.8740587867,   8.4421174577,   0.0000000000)
 A3 = (   0.0000000000,   0.0000000000,  15.6316036913)


Analysis of symmetry for initial positions (statically):
=====================================================================
 Subroutine PRICEL returns:
 Original cell was already a primitive cell.
 

 Routine SETGRP: Setting up the symmetry group for a 
 hexagonal supercell.


 Subroutine GETGRP returns: Found  1 space group operations
 (whereof  1 operations were pure point group operations)
 out of a pool of 24 trial point group operations.


The static configuration has the point symmetry C_1 .


Analysis of symmetry for dynamics (positions and initial velocities):
=====================================================================
 Subroutine PRICEL returns:
 Original cell was already a primitive cell.
 

 Routine SETGRP: Setting up the symmetry group for a 
 hexagonal supercell.


 Subroutine GETGRP returns: Found  1 space group operations
 (whereof  1 operations were pure point group operations)
 out of a pool of 24 trial point group operations.


The dynamic configuration has the point symmetry C_1 .


Analysis of structural, dynamic, and magnetic symmetry:
=====================================================================
 Subroutine PRICEL returns:
 Original cell was already a primitive cell.
 

 Routine SETGRP: Setting up the symmetry group for a 
 hexagonal supercell.


 Subroutine GETGRP returns: Found  1 space group operations
 (whereof  1 operations were pure point group operations)
 out of a pool of 24 trial point group operations.


The overall configuration has the point symmetry C_1 .


 Subroutine INISYM returns: Found  1 space group operations
 (whereof  1 operations are pure point group operations),
 and found     1 'primitive' translations


----------------------------------------------------------------------------------------

                                     Primitive cell                                     

  volume of cell :    1286.3990

  direct lattice vectors                    reciprocal lattice vectors
     9.748117574  0.000000000  0.000000000     0.102583908  0.059226847 -0.000000000
    -4.874058787  8.442117458  0.000000000     0.000000000  0.118453694  0.000000000
     0.000000000  0.000000000 15.631603691     0.000000000 -0.000000000  0.063972963

  length of vectors
     9.748117574  9.748117573 15.631603691     0.118453694  0.118453694  0.063972963

  position of ions in fractional coordinates (direct lattice)
     0.111111111  0.222222222  0.333480727
     0.111111111  0.222222222  0.666814061
     0.111111111  0.555555556  0.000147394
     0.111111111  0.555555556  0.333480727
     0.111111111  0.555555556  0.666814061
     0.111111111  0.888888889  0.000147394
     0.111111111  0.888888889  0.333480727
     0.111111111  0.888888889  0.666814061
     0.444444444  0.222222222  0.000147394
     0.444444444  0.222222222  0.333480727
     0.444444444  0.222222222  0.666814061
     0.444444444  0.555555556  0.000147394
     0.444444444  0.555555556  0.333480727
     0.444444444  0.555555556  0.666814061
     0.444444444  0.888888889  0.000147394
     0.444444444  0.888888889  0.333480727
     0.444444444  0.888888889  0.666814061
     0.777777778  0.222222222  0.000147394
     0.777777778  0.222222222  0.333480727
     0.777777778  0.222222222  0.666814061
     0.777777778  0.555555556  0.000147394
     0.777777778  0.555555556  0.333480727
     0.777777778  0.555555556  0.666814061
     0.777777778  0.888888889  0.000147394
     0.777777778  0.888888889  0.333480727
     0.777777778  0.888888889  0.666814061
     0.222222222  0.111111111  0.166814061
     0.222222222  0.111111111  0.500147394
     0.222222222  0.111111111  0.833480727
     0.222222222  0.444444444  0.166814061
     0.222222222  0.444444444  0.500147394
     0.222222222  0.444444444  0.833480727
     0.222222222  0.777777778  0.166814061
     0.222222222  0.777777778  0.500147394
     0.222222222  0.777777778  0.833480727
     0.555555556  0.111111111  0.166814061
     0.555555556  0.111111111  0.500147394
     0.555555556  0.111111111  0.833480727
     0.555555556  0.444444444  0.166814061
     0.555555556  0.444444444  0.500147394
     0.555555556  0.444444444  0.833480727
     0.555555556  0.777777778  0.166814061
     0.555555556  0.777777778  0.500147394
     0.555555556  0.777777778  0.833480727
     0.888888889  0.111111111  0.166814061
     0.888888889  0.111111111  0.500147394
     0.888888889  0.111111111  0.833480727
     0.888888889  0.444444444  0.166814061
     0.888888889  0.444444444  0.500147394
     0.888888889  0.444444444  0.833480727
     0.888888889  0.777777778  0.166814061
     0.888888889  0.777777778  0.500147394
     0.888888889  0.777777778  0.833480727
     0.117020172  0.219407719  0.133599003
     0.111111111  0.222222222  0.460485940
     0.111111111  0.222222222  0.793819273
     0.111111111  0.555555556  0.127152606
     0.111111111  0.555555556  0.460485940
     0.111111111  0.555555556  0.793819273
     0.111111111  0.888888889  0.127152606
     0.111111111  0.888888889  0.460485940
     0.111111111  0.888888889  0.793819273
     0.444444444  0.222222222  0.127152606
     0.444444444  0.222222222  0.460485940
     0.444444444  0.222222222  0.793819273
     0.444444444  0.555555556  0.127152606
     0.444444444  0.555555556  0.460485940
     0.444444444  0.555555556  0.793819273
     0.444444444  0.888888889  0.127152606
     0.444444444  0.888888889  0.460485940
     0.444444444  0.888888889  0.793819273
     0.777777778  0.222222222  0.127152606
     0.777777778  0.222222222  0.460485940
     0.777777778  0.222222222  0.793819273
     0.777777778  0.555555556  0.127152606
     0.777777778  0.555555556  0.460485940
     0.777777778  0.555555556  0.793819273
     0.777777778  0.888888889  0.127152606
     0.777777778  0.888888889  0.460485940
     0.777777778  0.888888889  0.793819273
     0.222222222  0.111111111  0.293819273
     0.222222222  0.111111111  0.627152606
     0.213232959  0.112675751  0.955774268
     0.222222222  0.444444444  0.293819273
     0.222222222  0.444444444  0.627152606
     0.214733808  0.435168711  0.960782419
     0.222222222  0.777777778  0.293819273
     0.222222222  0.777777778  0.627152606
     0.222222222  0.777777778  0.960485940
     0.555555556  0.111111111  0.293819273
     0.555555556  0.111111111  0.627152606
     0.555555556  0.111111111  0.960485940
     0.555555556  0.444444444  0.293819273
     0.555555556  0.444444444  0.627152606
     0.555555556  0.444444444  0.960485940
     0.555555556  0.777777778  0.293819273
     0.555555556  0.777777778  0.627152606
     0.555555556  0.777777778  0.960485940
     0.888888889  0.111111111  0.293819273
     0.888888889  0.111111111  0.627152606
     0.892856861  0.110409242  0.961795029
     0.888888889  0.444444444  0.293819273
     0.888888889  0.444444444  0.627152606
     0.888888889  0.444444444  0.960485940
     0.888888889  0.777777778  0.293819273
     0.888888889  0.777777778  0.627152606
     0.888888889  0.777777778  0.960485940
     0.111111111  0.222222222  0.000147394

  ion indices of the primitive-cell ions
   primitive index   ion index
                 1           1
                 2           2
                 3           3
                 4           4
                 5           5
                 6           6
                 7           7
                 8           8
                 9           9
                10          10
                11          11
                12          12
                13          13
                14          14
                15          15
                16          16
                17          17
                18          18
                19          19
                20          20
                21          21
                22          22
                23          23
                24          24
                25          25
                26          26
                27          27
                28          28
                29          29
                30          30
                31          31
                32          32
                33          33
                34          34
                35          35
                36          36
                37          37
                38          38
                39          39
                40          40
                41          41
                42          42
                43          43
                44          44
                45          45
                46          46
                47          47
                48          48
                49          49
                50          50
                51          51
                52          52
                53          53
                54          54
                55          55
                56          56
                57          57
                58          58
                59          59
                60          60
                61          61
                62          62
                63          63
                64          64
                65          65
                66          66
                67          67
                68          68
                69          69
                70          70
                71          71
                72          72
                73          73
                74          74
                75          75
                76          76
                77          77
                78          78
                79          79
                80          80
                81          81
                82          82
                83          83
                84          84
                85          85
                86          86
                87          87
                88          88
                89          89
                90          90
                91          91
                92          92
                93          93
                94          94
                95          95
                96          96
                97          97
                98          98
                99          99
               100         100
               101         101
               102         102
               103         103
               104         104
               105         105
               106         106
               107         107
               108         108

----------------------------------------------------------------------------------------

 
 
 KPOINTS: Num irrep kpoints: 4                    

Automatic generation of k-mesh.
 Grid dimensions read from file:
 generate k-points for:    2    2    1

 Generating k-lattice:

  Cartesian coordinates                     Fractional coordinates (reciprocal lattice)
     0.051291954  0.029613424 -0.000000000     0.500000000  0.000000000  0.000000000
     0.000000000  0.059226847  0.000000000     0.000000000  0.500000000  0.000000000
     0.000000000 -0.000000000  0.063972963     0.000000000  0.000000000  1.000000000

  Length of vectors
     0.059226847  0.059226847  0.063972963

  Shift w.r.t. Gamma in fractional coordinates (k-lattice)
     0.000000000  0.000000000  0.000000000

 
 Subroutine IBZKPT returns following result:
 ===========================================
 
 Found      4 irreducible k-points:
 
 Following reciprocal coordinates:
            Coordinates               Weight
  0.000000  0.000000  0.000000      1.000000
  0.500000  0.000000  0.000000      1.000000
  0.000000  0.500000  0.000000      1.000000
  0.500000  0.500000  0.000000      1.000000
 
 Following cartesian coordinates:
            Coordinates               Weight
  0.000000  0.000000  0.000000      1.000000
  0.051292  0.029613  0.000000      1.000000
  0.000000  0.059227  0.000000      1.000000
  0.051292  0.088840  0.000000      1.000000
 
 
 Subroutine IBZKPT_HF returns following result:
 ==============================================
 
 Found      4 k-points in 1st BZ
 the following      4 k-points will be used (e.g. in the exchange kernel)
 Following reciprocal coordinates:   # in IRBZ
  0.000000  0.000000  0.000000    0.25000000   1 t-inv F
  0.500000  0.000000  0.000000    0.25000000   2 t-inv F
  0.000000  0.500000  0.000000    0.25000000   3 t-inv F
  0.500000  0.500000  0.000000    0.25000000   4 t-inv F


--------------------------------------------------------------------------------------------------------




 Dimension of arrays:
   k-points           NKPTS =      4   k-points in BZ     NKDIM =      4   number of bands    NBANDS=    631
   number of dos      NEDOS =    301   number of ions     NIONS =    108
   non local maximal  LDIM  =      6   non local SUM 2l+1 LMDIM =     18
   total plane-waves  NPLWV = 184320
   max r-space proj   IRMAX =   1629   max aug-charges    IRDMAX=   7175
   dimension x,y,z NGX =    48 NGY =   48 NGZ =   80
   dimension x,y,z NGXF=    96 NGYF=   96 NGZF=  160
   support grid    NGXF=    96 NGYF=   96 NGZF=  160
   ions per type =              53  54   1
   NGX,Y,Z   is equivalent  to a cutoff of   8.19,  8.19,  8.51 a.u.
   NGXF,Y,Z  is equivalent  to a cutoff of  16.37, 16.37, 17.02 a.u.

 SYSTEM =  unknown system                          
 POSCAR =  Na1 Zn53 O54                            

 Startparameter for this run:
   NWRITE =      2    write-flag & timer
   PREC   = normal    normal or accurate (medium, high low for compatibility)
   ISTART =      0    job   : 0-new  1-cont  2-samecut
   ICHARG =      2    charge: 1-file 2-atom 10-const
   ISPIN  =      2    spin polarized calculation?
   LNONCOLLINEAR =      F non collinear calculations
   LSORBIT =      F    spin-orbit coupling
   INIWAV =      1    electr: 0-lowe 1-rand  2-diag
   LASPH  =      T    aspherical Exc in radial PAW
 Electronic Relaxation 1
   ENCUT  =  400.0 eV  29.40 Ry    5.42 a.u.  15.90 15.90 25.49*2*pi/ulx,y,z
   ENINI  =  400.0     initial cutoff
   ENAUG  =  605.4 eV  augmentation charge cutoff
   NELM   =    100;   NELMIN=  2; NELMDL= -5     # of ELM steps 
   EDIFF  = 0.1E-04   stopping-criterion for ELM
   LREAL  =      T    real-space projection
   NLSPLINE    = F    spline interpolate recip. space projectors
   LCOMPAT=      F    compatible to vasp.4.4
   GGA_COMPAT  = T    GGA compatible to vasp.4.4-vasp.4.6
   LMAXPAW     = -100 max onsite density
   LMAXMIX     =    2 max onsite mixed and CHGCAR
   VOSKOWN=      0    Vosko Wilk Nusair interpolation
   ROPT   =   -0.00050  -0.00050  -0.00050
 Ionic relaxation
   EDIFFG = -.3E-01   stopping-criterion for IOM
   NSW    =    300    number of steps for IOM
   NBLOCK =      1;   KBLOCK =    300    inner block; outer block 
   IBRION =      2    ionic relax: 0-MD 1-quasi-New 2-CG
   NFREE  =      1    steps in history (QN), initial steepest desc. (CG)
   ISIF   =      2    stress and relaxation
   IWAVPR =     11    prediction:  0-non 1-charg 2-wave 3-comb
   ISYM   =      3    0-nonsym 1-usesym 2-fastsym
   LCORR  =      T    Harris-Foulkes like correction to forces

   POTIM  = 0.5000    time-step for ionic-motion
   TEIN   =    0.0    initial temperature
   TEBEG  =    0.0;   TEEND  =   0.0 temperature during run
   SMASS  =  -3.00    Nose mass-parameter (am)
   estimated Nose-frequenzy (Omega)   =  0.10E-29 period in steps = 0.13E+47 mass=  -0.217E-26a.u.
   SCALEE = 1.0000    scale energy and forces
   NPACO  =    256;   APACO  = 10.0  distance and # of slots for P.C.
   PSTRESS=    0.0 pullay stress

  Mass of Ions in am
   POMASS =  65.39 16.00 22.99
  Ionic Valenz
   ZVAL   =  12.00  6.00  1.00
  Atomic Wigner-Seitz radii
   RWIGS  =  -1.00 -1.00 -1.00
  virtual crystal weights 
   VCA    =   1.00  1.00  1.00
   NELECT =     962.0000    total number of electrons
   NUPDOWN=      -1.0000    fix difference up-down

 DOS related values:
   EMIN   =  10.00;   EMAX   =-10.00  energy-range for DOS
   EFERMI =   0.00;   METHOD = LEGACY      
   ISMEAR =     0;   SIGMA  =   0.10  broadening in eV -4-tet -1-fermi 0-gaus
   EFERMI_NEDOS =   21; number of points for ismear=-14 and -15

 Electronic relaxation 2 (details)
   IALGO  =     58    algorithm
   LDIAG  =      T    sub-space diagonalisation (order eigenvalues)
   LSUBROT=      F    optimize rotation matrix (better conditioning)
   LROBUST=      F    robust break criterion during scf (extrapolated energy error)
   ISEARCH=      0    line search for conjugate gradient (0, 1=use gradient)
   TURBO    =      0    0=normal 1=particle mesh
   IRESTART =      0    0=no restart 2=restart with 2 vectors
   NREBOOT  =      0    no. of reboots
   NMIN     =      0    reboot dimension
   EREF     =   0.00    reference energy to select bands
   IMIX   =      4    mixing-type and parameters
     AMIX     =   0.40;   BMIX     =  1.00
     AMIX_MAG =   1.60;   BMIX_MAG =  1.00
     AMIN     =   0.10
     WC   =   100.;   INIMIX=   1;  MIXPRE=   1;  MAXMIX= -45

 Intra band minimization:
   WEIMIN = 0.0010     energy-eigenvalue tresh-hold
   EBREAK =  0.40E-08  absolut break condition
   DEPER  =   0.30     relativ break condition  

   TIME   =   0.40     timestep for ELM

  volume/ion in A,a.u.               =      11.91        80.38
  Fermi-wavevector in a.u.,A,eV,Ry     =   1.485963  2.808063 30.042829  2.208086
  Thomas-Fermi vector in A             =   2.599309
 
 Write flags
   LWAVE        =      T    write WAVECAR
   LDOWNSAMPLE  =      F    k-point downsampling of WAVECAR
   LCHARG       =      F    write CHGCAR
   LVTOT        =      F    write LOCPOT, total local potential
   LVHAR        =      F    write LOCPOT, Hartree potential only
   WRT_POTENTIAL= false  ! write potential to hdf5 file
   LELF         =      F    write electronic localiz. function (ELF)
   LORBIT       =     10    0 simple, 1 ext, 2 COOP (PROOUT), +10 PAW based schemes


 Python interface
   PLUGINS active      =      F    recompile with -DPLUGINS to activate
 
 Dipole corrections
   LMONO      =      F    monopole corrections only (constant potential shift)
   LDIPOL     =      F    correct potential (dipole corrections)
   IDIPOL     =      0    1-x, 2-y, 3-z, 4-all directions 
   EPSILON    =  1.0000000 bulk dielectric constant
   LVACPOTAV  =      F  vacuum potentials using an averaging scheme for the charge density
   VACPOTFLAT =  0.1000000 required flatness to determine vacuum potential
 
Coulomb truncation method
  LTRUNCATE          =      F  Coulomb kernel truncation to be used

 
 Exchange correlation treatment:
   GGA     = PE    functional components
   XC_C    = 1    coefficients multiplying the functional components
   LIBXC   =     F    Libxc                    
   VOSKOWN =     0    Vosko Wilk Nusair interpolation
   EXXOEP  =     0    0=HF, 1=EXX-LHF (local Hartree Fock) 2=EXX OEP
   LHFCALC =     T    Hartree Fock is set to
   LSYMGRAD=     F    symmetrize gradient (conserves proper symmetry)
   PRECFOCK=fast      Normal, Fast or Accurate (Low or Medium for compatibility)
   LRHFCALC=     F    long range Hartree Fock
   LRSCOR  =     F    long range correlation only (use DFT for short range part)
   LTHOMAS =     F    Thomas Fermi screening in HF
   LMODELHF=     F    short range full HF, long range fraction AEXX
   FOCKCORR=     1    mode to apply convergence corrections
   LFOCKACE=     T    use Adeptively-Compressed-Exchange operator
   ENCUT4O =  -1.0   cutoff for four orbital integrals eV
   LMAXFOCK=     4    L truncation for augmentation on plane wave grid
   LMAXFOCKAE=  -1    L truncation for all-electron charge restoration on plane wave grid
   NMAXFOCKAE=   1    number of basis functions for all-electron charge restoration
   LFOCKAEDFT=     F  apply the AE augmentation even for DFT
   NKREDX  =     1    reduce k-point grid by
   NKREDY  =     1    reduce k-point grid by
   NKREDZ  =     1    reduce k-point grid by
   SHIFTRED=     F    shift reduced grid of Gamma
   HFKIDENT=     F    idential grid for each k-point
   ODDONLY =     F    use only odd q-grid points
   EVENONLY=     F    use only even q-grid points
   HFALPHA =   -1.0000 decay constant for conv. correction
   MCALPHA =    0.0000 extent of test-charge in conv. correction in multipole expansion
   AEXX    =    0.3600 exact exchange contribution
   HFSCREEN=    0.2000 screening length (either q_TF or 0.3 A-1)
   HFSCREENC=   0.2000 screening length for correlation (either q_TF or 0.3 A-1)
   HFRCUT  =    0.0000 spherical cutoff for potential kernel
   ALDAX   =    0.6400 LDA exchange part
   AGGAX   =    0.6400 GGA exchange part
   AMGGAX  =    0.6400 meta-GGA exchange part
   ALDAC   =    1.0000 LDA correlation
   AGGAC   =    1.0000 GGA correlation
   AMGGAC  =    1.0000 meta-GGA correlation
   ENCUTFOCK=  -1.0 apply spherical cutoff to Coloumb kernel
   NBANDSGWLOW=     1    first orbital included in HF term
   NBLOCK_FOCK=    64    blocking factor in FOCK_ACC

 Parameters of functionals:
   PE:
     No parameter
 
 Van der Waals corrections
   IVDW    =     0    specifies the selected vdW correction

 Linear response parameters
   LEPSILON=     F    determine dielectric tensor
   LRPA    =     F    only Hartree local field effects (RPA)
   LNABLA  =     F    use nabla operator in PAW spheres
   LVEL    =     F    velocity operator in full k-point grid
   CSHIFT  =0.1000    complex shift for real part using Kramers Kronig
   OMEGAMAX=  -1.0    maximum frequency
   DEG_THRESHOLD= 0.2000000E-02 threshold for treating states as degnerate
   RTIME   =   -0.100 relaxation time in fs
  (WPLASMAI=    0.000 imaginary part of plasma frequency in eV, 0.658/RTIME)
   DFIELD  = 0.0000000 0.0000000 0.0000000 field for delta impulse in time
 
  Optional k-point grid parameters
   LKPOINTS_OPT  =     F    use optional k-point grid
   KPOINTS_OPT_MODE=     1    mode for optional k-point grid
 
 Orbital magnetization related:
   ORBITALMAG=     F  switch on orbital magnetization
   LCHIMAG   =     F  perturbation theory with respect to B field
   DQ        =  0.001000  dq finite difference perturbation B field
   LLRAUG    =     F  two centre corrections for induced B field
   LBONE     =     F  B-component reconstruction in AE one-centre
   LVGVCALC  =     T  calculate vGv susceptibility
   LVGVAPPL  =     F  apply vGv susceptibility instead of pGv for G=0

 Random number generation:
   RANDOM_GENERATOR = DEFAULT
   PCG_SEED         = not used


--------------------------------------------------------------------------------------------------------


 conjugate gradient relaxation of ions
 charge density and potential will be updated during run
 spin polarized calculation
 Conjugate gradient for all bands (Freysoldt, et al. PRB 79, 241103 (2009))
 preconditioned conjugated gradient                                        
 perform sub-space diagonalisation
    before iterative eigenvector-optimisation
 modified Broyden-mixing scheme, WC =      100.0
 initial mixing is a Kerker type mixing with AMIX =  0.4000 and BMIX =      1.0000
 Hartree-type preconditioning will be used
 using additional bands           150
 real space projection scheme for non local part
 use partial core corrections
 no Harris-corrections to forces 
 use gradient corrections 
 use of overlap-Matrix (Vanderbilt PP)
 Gauss-broadening in eV      SIGMA  =   0.10


--------------------------------------------------------------------------------------------------------


  energy-cutoff  :      400.00
  volume of cell :     1286.40
      direct lattice vectors                 reciprocal lattice vectors
     9.748117574  0.000000000  0.000000000     0.102583908  0.059226847 -0.000000000
    -4.874058787  8.442117458  0.000000000     0.000000000  0.118453694  0.000000000
     0.000000000  0.000000000 15.631603691     0.000000000 -0.000000000  0.063972963

  length of vectors
     9.748117574  9.748117573 15.631603691     0.118453694  0.118453694  0.063972963


 
 k-points in units of 2pi/SCALE and weight: Num irrep kpoints: 4                    
   0.00000000  0.00000000  0.00000000       0.250
   0.05129195  0.02961342  0.00000000       0.250
   0.00000000  0.05922685  0.00000000       0.250
   0.05129195  0.08884027  0.00000000       0.250
 
 k-points in reciprocal lattice and weights: Num irrep kpoints: 4                    
   0.00000000  0.00000000  0.00000000       0.250
   0.50000000  0.00000000  0.00000000       0.250
   0.00000000  0.50000000  0.00000000       0.250
   0.50000000  0.50000000  0.00000000       0.250
 
 position of ions in fractional coordinates (direct lattice) 
   0.11111111  0.22222222  0.33348073
   0.11111111  0.22222222  0.66681406
   0.11111111  0.55555556  0.00014739
   0.11111111  0.55555556  0.33348073
   0.11111111  0.55555556  0.66681406
   0.11111111  0.88888889  0.00014739
   0.11111111  0.88888889  0.33348073
   0.11111111  0.88888889  0.66681406
   0.44444444  0.22222222  0.00014739
   0.44444444  0.22222222  0.33348073
   0.44444444  0.22222222  0.66681406
   0.44444444  0.55555556  0.00014739
   0.44444444  0.55555556  0.33348073
   0.44444444  0.55555556  0.66681406
   0.44444444  0.88888889  0.00014739
   0.44444444  0.88888889  0.33348073
   0.44444444  0.88888889  0.66681406
   0.77777778  0.22222222  0.00014739
   0.77777778  0.22222222  0.33348073
   0.77777778  0.22222222  0.66681406
   0.77777778  0.55555556  0.00014739
   0.77777778  0.55555556  0.33348073
   0.77777778  0.55555556  0.66681406
   0.77777778  0.88888889  0.00014739
   0.77777778  0.88888889  0.33348073
   0.77777778  0.88888889  0.66681406
   0.22222222  0.11111111  0.16681406
   0.22222222  0.11111111  0.50014739
   0.22222222  0.11111111  0.83348073
   0.22222222  0.44444444  0.16681406
   0.22222222  0.44444444  0.50014739
   0.22222222  0.44444444  0.83348073
   0.22222222  0.77777778  0.16681406
   0.22222222  0.77777778  0.50014739
   0.22222222  0.77777778  0.83348073
   0.55555556  0.11111111  0.16681406
   0.55555556  0.11111111  0.50014739
   0.55555556  0.11111111  0.83348073
   0.55555556  0.44444444  0.16681406
   0.55555556  0.44444444  0.50014739
   0.55555556  0.44444444  0.83348073
   0.55555556  0.77777778  0.16681406
   0.55555556  0.77777778  0.50014739
   0.55555556  0.77777778  0.83348073
   0.88888889  0.11111111  0.16681406
   0.88888889  0.11111111  0.50014739
   0.88888889  0.11111111  0.83348073
   0.88888889  0.44444444  0.16681406
   0.88888889  0.44444444  0.50014739
   0.88888889  0.44444444  0.83348073
   0.88888889  0.77777778  0.16681406
   0.88888889  0.77777778  0.50014739
   0.88888889  0.77777778  0.83348073
   0.11702017  0.21940772  0.13359900
   0.11111111  0.22222222  0.46048594
   0.11111111  0.22222222  0.79381927
   0.11111111  0.55555556  0.12715261
   0.11111111  0.55555556  0.46048594
   0.11111111  0.55555556  0.79381927
   0.11111111  0.88888889  0.12715261
   0.11111111  0.88888889  0.46048594
   0.11111111  0.88888889  0.79381927
   0.44444444  0.22222222  0.12715261
   0.44444444  0.22222222  0.46048594
   0.44444444  0.22222222  0.79381927
   0.44444444  0.55555556  0.12715261
   0.44444444  0.55555556  0.46048594
   0.44444444  0.55555556  0.79381927
   0.44444444  0.88888889  0.12715261
   0.44444444  0.88888889  0.46048594
   0.44444444  0.88888889  0.79381927
   0.77777778  0.22222222  0.12715261
   0.77777778  0.22222222  0.46048594
   0.77777778  0.22222222  0.79381927
   0.77777778  0.55555556  0.12715261
   0.77777778  0.55555556  0.46048594
   0.77777778  0.55555556  0.79381927
   0.77777778  0.88888889  0.12715261
   0.77777778  0.88888889  0.46048594
   0.77777778  0.88888889  0.79381927
   0.22222222  0.11111111  0.29381927
   0.22222222  0.11111111  0.62715261
   0.21323296  0.11267575  0.95577427
   0.22222222  0.44444444  0.29381927
   0.22222222  0.44444444  0.62715261
   0.21473381  0.43516871  0.96078242
   0.22222222  0.77777778  0.29381927
   0.22222222  0.77777778  0.62715261
   0.22222222  0.77777778  0.96048594
   0.55555556  0.11111111  0.29381927
   0.55555556  0.11111111  0.62715261
   0.55555556  0.11111111  0.96048594
   0.55555556  0.44444444  0.29381927
   0.55555556  0.44444444  0.62715261
   0.55555556  0.44444444  0.96048594
   0.55555556  0.77777778  0.29381927
   0.55555556  0.77777778  0.62715261
   0.55555556  0.77777778  0.96048594
   0.88888889  0.11111111  0.29381927
   0.88888889  0.11111111  0.62715261
   0.89285686  0.11040924  0.96179503
   0.88888889  0.44444444  0.29381927
   0.88888889  0.44444444  0.62715261
   0.88888889  0.44444444  0.96048594
   0.88888889  0.77777778  0.29381927
   0.88888889  0.77777778  0.62715261
   0.88888889  0.77777778  0.96048594
   0.11111111  0.22222222  0.00014739
 
 position of ions in cartesian coordinates  (Angst):
   0.00000000  1.87602610  5.21283857
   0.00000000  1.87602610 10.42337313
  -1.62468626  4.69006525  0.00230400
  -1.62468626  4.69006525  5.21283857
  -1.62468626  4.69006525 10.42337313
  -3.24937252  7.50410441  0.00230400
  -3.24937252  7.50410441  5.21283857
  -3.24937252  7.50410441 10.42337313
   3.24937252  1.87602610  0.00230400
   3.24937252  1.87602610  5.21283857
   3.24937252  1.87602610 10.42337313
   1.62468626  4.69006525  0.00230400
   1.62468626  4.69006525  5.21283857
   1.62468626  4.69006525 10.42337313
  -0.00000000  7.50410441  0.00230400
  -0.00000000  7.50410441  5.21283857
  -0.00000000  7.50410441 10.42337313
   6.49874505  1.87602610  0.00230400
   6.49874505  1.87602610  5.21283857
   6.49874505  1.87602610 10.42337313
   4.87405879  4.69006525  0.00230400
   4.87405879  4.69006525  5.21283857
   4.87405879  4.69006525 10.42337313
   3.24937252  7.50410441  0.00230400
   3.24937252  7.50410441  5.21283857
   3.24937252  7.50410441 10.42337313
   1.62468626  0.93801305  2.60757128
   1.62468626  0.93801305  7.81810585
   1.62468626  0.93801305 13.02864041
   0.00000000  3.75205220  2.60757128
   0.00000000  3.75205220  7.81810585
   0.00000000  3.75205220 13.02864041
  -1.62468626  6.56609136  2.60757128
  -1.62468626  6.56609136  7.81810585
  -1.62468626  6.56609136 13.02864041
   4.87405879  0.93801305  2.60757128
   4.87405879  0.93801305  7.81810585
   4.87405879  0.93801305 13.02864041
   3.24937253  3.75205220  2.60757128
   3.24937253  3.75205220  7.81810585
   3.24937253  3.75205220 13.02864041
   1.62468626  6.56609136  2.60757128
   1.62468626  6.56609136  7.81810585
   1.62468626  6.56609136 13.02864041
   8.12343131  0.93801305  2.60757128
   8.12343131  0.93801305  7.81810585
   8.12343131  0.93801305 13.02864041
   6.49874505  3.75205220  2.60757128
   6.49874505  3.75205220  7.81810585
   6.49874505  3.75205220 13.02864041
   4.87405879  6.56609136  2.60757128
   4.87405879  6.56609136  7.81810585
   4.87405879  6.56609136 13.02864041
   0.07132028  1.85226573  2.08836667
   0.00000000  1.87602610  7.19813371
   0.00000000  1.87602610 12.40866827
  -1.62468626  4.69006525  1.98759915
  -1.62468626  4.69006525  7.19813371
  -1.62468626  4.69006525 12.40866827
  -3.24937252  7.50410441  1.98759915
  -3.24937252  7.50410441  7.19813371
  -3.24937252  7.50410441 12.40866827
   3.24937252  1.87602610  1.98759915
   3.24937252  1.87602610  7.19813371
   3.24937252  1.87602610 12.40866827
   1.62468626  4.69006525  1.98759915
   1.62468626  4.69006525  7.19813371
   1.62468626  4.69006525 12.40866827
  -0.00000000  7.50410441  1.98759915
  -0.00000000  7.50410441  7.19813371
  -0.00000000  7.50410441 12.40866827
   6.49874505  1.87602610  1.98759915
   6.49874505  1.87602610  7.19813371
   6.49874505  1.87602610 12.40866827
   4.87405879  4.69006525  1.98759915
   4.87405879  4.69006525  7.19813371
   4.87405879  4.69006525 12.40866827
   3.24937252  7.50410441  1.98759915
   3.24937252  7.50410441  7.19813371
   3.24937252  7.50410441 12.40866827
   1.62468626  0.93801305  4.59286643
   1.62468626  0.93801305  9.80340099
   1.52943171  0.95122193 14.94028458
   0.00000000  3.75205220  4.59286643
   0.00000000  3.75205220  9.80340099
  -0.02778747  3.67374537 15.01857001
  -1.62468626  6.56609136  4.59286643
  -1.62468626  6.56609136  9.80340099
  -1.62468626  6.56609136 15.01393556
   4.87405879  0.93801305  4.59286643
   4.87405879  0.93801305  9.80340099
   4.87405879  0.93801305 15.01393556
   3.24937253  3.75205220  4.59286643
   3.24937253  3.75205220  9.80340099
   3.24937253  3.75205220 15.01393556
   1.62468626  6.56609136  4.59286643
   1.62468626  6.56609136  9.80340099
   1.62468626  6.56609136 15.01393556
   8.12343131  0.93801305  4.59286643
   8.12343131  0.93801305  9.80340099
   8.16553252  0.93208779 15.03439873
   6.49874505  3.75205220  4.59286643
   6.49874505  3.75205220  9.80340099
   6.49874505  3.75205220 15.01393556
   4.87405879  6.56609136  4.59286643
   4.87405879  6.56609136  9.80340099
   4.87405879  6.56609136 15.01393556
   0.00000000  1.87602610  0.00230400
 


--------------------------------------------------------------------------------------------------------


 k-point     1 :   0.0000 0.0000 0.0000  plane waves:   23295
 k-point     2 :   0.5000 0.0000 0.0000  plane waves:   23392
 k-point     3 :   0.0000 0.5000 0.0000  plane waves:   23392
 k-point     4 :   0.5000 0.5000 0.0000  plane waves:   23392

 maximum and minimum number of plane-waves per node :     23392    23295

 maximum number of plane-waves:     23392
 maximum index in each direction: 
   IXMAX=   15   IYMAX=   15   IZMAX=   25
   IXMIN=  -16   IYMIN=  -16   IZMIN=  -25


 serial   3D FFT for wavefunctions
 parallel 3D FFT for charge:
    minimum data exchange during FFTs selected (reduces bandwidth)


 FFT grid for exact exchange (Hartree Fock) 
  NGX = 36; NGY = 36; NGZ = 54

 
 Radii for the augmentation spheres in the non-local exchange
 for species   1 augmentation radius   1.285 (default was   0.952)
       energy cutoff for augmentation   1600.0
 for species   2 augmentation radius   0.974 (default was   0.722)
       energy cutoff for augmentation   1600.0
 for species   3 augmentation radius   1.514 (default was   1.121)
       energy cutoff for augmentation   1600.0
 Maximum index for augmentation-charges in exchange           791
  SETUP_FOCK is finished

 total amount of memory used by VASP MPI-rank0  6265277. kBytes
=======================================================================

   base                                    :      30000. kBytes
   nonlr-proj                              :      30002. kBytes
   fftplans                                :      50796. kBytes
   grid                                    :     145907. kBytes
   one-center                              :       3359. kBytes
   HF                                      :        194. kBytes
   wavefun                                 :    6005019. kBytes
 
     INWAV:  cpu time      0.0001: real time      0.0002
 Broyden mixing: mesh for mixing (old mesh)
   NGX = 31   NGY = 31   NGZ = 51
  (NGX  = 96   NGY  = 96   NGZ  =160)
  gives a total of  49011 points

 initial charge density was supplied:
 charge density of overlapping atoms calculated
 number of electron     961.0000000 magnetization     108.0000000
 keeping initial charge density in first step


--------------------------------------------------------------------------------------------------------


 Maximum index for non-local projection operator          1554
 Maximum index for augmentation-charges          6753 (set IRDMAX)


--------------------------------------------------------------------------------------------------------


 First call to EWALD:  gamma=   0.163
 Maximum number of real-space cells   3x   3x   2
 Maximum number of reciprocal cells   3x   3x   4

    FEWALD:  cpu time      0.3413: real time      0.3422


--------------------------------------- Ionic step        1  -------------------------------------------




--------------------------------------- Iteration      1(   1)  ---------------------------------------


    POTLOK:  cpu time      0.0366: real time      0.0368
    SETDIJ:  cpu time      4.6442: real time      4.6570
    TRIAL :  cpu time      2.6877: real time      3.5375
    CORREC:  cpu time      0.0012: real time      0.0012
    --------------------------------------------
      LOOP:  cpu time      8.2857: real time      9.1515

 eigenvalue-minimisations  : 10096
 total energy-change (2. order) :-0.2281004E+05  (-0.3415255E+05)
 number of electron     961.0000000 magnetization     108.0000000
 augmentation part      961.0000000 magnetization     108.0000000

 Free energy of the ion-electron system (eV)
  ---------------------------------------------------
  alpha Z        PSCENC =      6142.85744291
  Ewald energy   TEWEN  =    -78108.94951981
  -Hartree energ DENC   =    -34875.94815755
  -exchange      EXHF   =         0.00000000
  -V(xc)+E(xc)   XCENC  =      4501.72414850
  PAW double counting   =     95867.48440194  -136843.28661525
  entropy T*S    EENTRO =        -0.04757180
  eigenvalues    EBANDS =      4837.83750466
  atomic energy  EATOM  =    115668.29297923
  ---------------------------------------------------
  free energy    TOTEN  =    -22810.03538718 eV

  energy without entropy =   -22809.98781538  energy(sigma->0) =   -22810.01160128
  exchange ACFDT corr.  =         0.00000000  see jH, gK, PRB 81, 115126


--------------------------------------------------------------------------------------------------------




--------------------------------------- Iteration      1(   2)  ---------------------------------------


    TRIAL :  cpu time      2.2856: real time      2.2927
    CORREC:  cpu time      0.0014: real time      0.0014
    --------------------------------------------
      LOOP:  cpu time      2.2872: real time      2.2946

 eigenvalue-minimisations  : 10096
 total energy-change (2. order) :-0.1041340E+05  (-0.9703878E+04)
 number of electron     961.0000000 magnetization     108.0000000
 augmentation part      961.0000000 magnetization     108.0000000

 Free energy of the ion-electron system (eV)
  ---------------------------------------------------
  alpha Z        PSCENC =      6142.85744291
  Ewald energy   TEWEN  =    -78108.94951981
  -Hartree energ DENC   =    -34875.94815755
  -exchange      EXHF   =         0.00000000
  -V(xc)+E(xc)   XCENC  =      4501.72414850
  PAW double counting   =     95867.48440194  -136843.28661525
  entropy T*S    EENTRO =        -0.04695259
  eigenvalues    EBANDS =     -5575.55974043
  atomic energy  EATOM  =    115668.29297923
  ---------------------------------------------------
  free energy    TOTEN  =    -33223.43201306 eV

  energy without entropy =   -33223.38506047  energy(sigma->0) =   -33223.40853676
  exchange ACFDT corr.  =         0.00000000  see jH, gK, PRB 81, 115126


--------------------------------------------------------------------------------------------------------




--------------------------------------- Iteration      1(   3)  ---------------------------------------


    TRIAL :  cpu time      2.3575: real time      2.3648
    CORREC:  cpu time      0.0013: real time      0.0013
    --------------------------------------------
      LOOP:  cpu time      2.3589: real time      2.3665

 eigenvalue-minimisations  : 10576
 total energy-change (2. order) :-0.2502207E+04  (-0.2383740E+04)
 number of electron     961.0000000 magnetization     108.0000000
 augmentation part      961.0000000 magnetization     108.0000000

 Free energy of the ion-electron system (eV)
  ---------------------------------------------------
  alpha Z        PSCENC =      6142.85744291
  Ewald energy   TEWEN  =    -78108.94951981
  -Hartree energ DENC   =    -34875.94815755
  -exchange      EXHF   =         0.00000000
  -V(xc)+E(xc)   XCENC  =      4501.72414850
  PAW double counting   =     95867.48440194  -136843.28661525
  entropy T*S    EENTRO =        -0.00000000
  eigenvalues    EBANDS =     -8077.81375153
  atomic energy  EATOM  =    115668.29297923
  ---------------------------------------------------
  free energy    TOTEN  =    -35725.63907157 eV

  energy without entropy =   -35725.63907157  energy(sigma->0) =   -35725.63907157
  exchange ACFDT corr.  =         0.00000000  see jH, gK, PRB 81, 115126


--------------------------------------------------------------------------------------------------------




--------------------------------------- Iteration      1(   4)  ---------------------------------------


    TRIAL :  cpu time      2.5184: real time      2.5261
    CORREC:  cpu time      0.0013: real time      0.0013
    --------------------------------------------
      LOOP:  cpu time      2.5199: real time      2.5279

 eigenvalue-minimisations  : 11504
 total energy-change (2. order) :-0.2127485E+03  (-0.2090457E+03)
 number of electron     961.0000000 magnetization     108.0000000
 augmentation part      961.0000000 magnetization     108.0000000

 Free energy of the ion-electron system (eV)
  ---------------------------------------------------
  alpha Z        PSCENC =      6142.85744291
  Ewald energy   TEWEN  =    -78108.94951981
  -Hartree energ DENC   =    -34875.94815755
  -exchange      EXHF   =         0.00000000
  -V(xc)+E(xc)   XCENC  =      4501.72414850
  PAW double counting   =     95867.48440194  -136843.28661525
  entropy T*S    EENTRO =        -0.00000000
  eigenvalues    EBANDS =     -8290.56223508
  atomic energy  EATOM  =    115668.29297923
  ---------------------------------------------------
  free energy    TOTEN  =    -35938.38755512 eV

  energy without entropy =   -35938.38755512  energy(sigma->0) =   -35938.38755512
  exchange ACFDT corr.  =         0.00000000  see jH, gK, PRB 81, 115126


--------------------------------------------------------------------------------------------------------




--------------------------------------- Iteration      1(   5)  ---------------------------------------


    POTLOK:  cpu time      2.5445: real time      2.5505
    SETDIJ:  cpu time     16.0605: real time     16.1038
    TRIAL :  cpu time    104.4873: real time    104.8057
    CORREC:  cpu time      0.0012: real time      0.0012
    CHARGE:  cpu time      0.4577: real time      0.4731
    --------------------------------------------
      LOOP:  cpu time    123.5513: real time    123.9349

 eigenvalue-minimisations  : 12612
 total energy-change (2. order) : 0.3517285E+05  (-0.3910947E+02)
 number of electron     962.0001797 magnetization      -0.0000015
 augmentation part      486.0692216 magnetization       2.7545544

 Free energy of the ion-electron system (eV)
  ---------------------------------------------------
  alpha Z        PSCENC =      6142.85744291
  Ewald energy   TEWEN  =    -78108.94951981
  -Hartree energ DENC   =    -34875.94815755
  -exchange      EXHF   =      4300.46335583
  -V(xc)+E(xc)   XCENC  =      2955.78437091
  PAW double counting   =     97359.79960525  -105766.28794197
  entropy T*S    EENTRO =        -0.00000000
  eigenvalues    EBANDS =     -8441.55166816
  atomic energy  EATOM  =    115668.29297923
  ---------------------------------------------------
  free energy    TOTEN  =      -765.53953336 eV

  energy without entropy =     -765.53953336  energy(sigma->0) =     -765.53953336
  exchange ACFDT corr.  =        -0.00000000  see jH, gK, PRB 81, 115126


--------------------------------------------------------------------------------------------------------




--------------------------------------- Iteration      1(   6)  ---------------------------------------


    POTLOK:  cpu time      2.4972: real time      2.5032
    SETDIJ:  cpu time     16.1452: real time     16.1924
    TRIAL :  cpu time    104.1226: real time    104.4204
    CORREC:  cpu time    121.8911: real time    122.7606
    CHARGE:  cpu time      0.2709: real time      0.2751
    --------------------------------------------
      LOOP:  cpu time    244.9272: real time    246.1526

 eigenvalue-minimisations  :     0
 total energy-change (2. order) : 0.3280369E+03  (-0.2040478E+03)
 number of electron     962.0001922 magnetization      -0.0000014
 augmentation part      473.0293394 magnetization       1.9774499

 Free energy of the ion-electron system (eV)
  ---------------------------------------------------
  alpha Z        PSCENC =      6142.85744291
  Ewald energy   TEWEN  =    -78108.94951981
  -Hartree energ DENC   =    -38564.09258628
  -exchange      EXHF   =      4284.85598151
  -V(xc)+E(xc)   XCENC  =      3116.55073336
  PAW double counting   =    115647.85509921  -124493.83235346
  entropy T*S    EENTRO =        -0.00000000
  eigenvalues    EBANDS =     -4131.04038022
  atomic energy  EATOM  =    115668.29297923
  ---------------------------------------------------
  free energy    TOTEN  =      -437.50260357 eV

  energy without entropy =     -437.50260357  energy(sigma->0) =     -437.50260357
  exchange ACFDT corr.  =        -0.00000000  see jH, gK, PRB 81, 115126


--------------------------------------------------------------------------------------------------------




--------------------------------------- Iteration      1(   7)  ---------------------------------------


    POTLOK:  cpu time      2.5326: real time      2.5622
    SETDIJ:  cpu time     16.3052: real time     16.3725
    TRIAL :  cpu time    104.4707: real time    104.9965
    CORREC:  cpu time    121.9208: real time    122.7419
    CHARGE:  cpu time      0.2684: real time      0.2728
    --------------------------------------------
      LOOP:  cpu time    245.4981: real time    246.9478

 eigenvalue-minimisations  :     0
 total energy-change (2. order) :-0.2042802E+03  (-0.2350031E+02)
 number of electron     962.0001960 magnetization      -0.0000012
 augmentation part      469.6584189 magnetization       0.9493879

 Free energy of the ion-electron system (eV)
  ---------------------------------------------------
  alpha Z        PSCENC =      6142.85744291
  Ewald energy   TEWEN  =    -78108.94951981
  -Hartree energ DENC   =    -36229.34618881
  -exchange      EXHF   =      4102.74639556
  -V(xc)+E(xc)   XCENC  =      3013.58099408
  PAW double counting   =    116763.55108853  -125369.08175510
  entropy T*S    EENTRO =        -0.00000000
  eigenvalues    EBANDS =     -6625.43426114
  atomic energy  EATOM  =    115668.29297923
  ---------------------------------------------------
  free energy    TOTEN  =      -641.78282456 eV

  energy without entropy =     -641.78282456  energy(sigma->0) =     -641.78282456
  exchange ACFDT corr.  =        -0.00000000  see jH, gK, PRB 81, 115126


--------------------------------------------------------------------------------------------------------




--------------------------------------- Iteration      1(   8)  ---------------------------------------


    POTLOK:  cpu time      2.5502: real time      2.5704
    SETDIJ:  cpu time     16.2925: real time     16.3461
    TRIAL :  cpu time    104.6168: real time    105.1428
    CORREC:  cpu time    122.2829: real time    122.6868
    CHARGE:  cpu time      0.2683: real time      0.2691
    --------------------------------------------
      LOOP:  cpu time    246.0112: real time    247.0167

 eigenvalue-minimisations  :     0
 total energy-change (2. order) :-0.2328561E+02  (-0.7136822E+01)
 number of electron     962.0001957 magnetization      -0.0000008
 augmentation part      469.3568255 magnetization       0.5573847

 Free energy of the ion-electron system (eV)
  ---------------------------------------------------
  alpha Z        PSCENC =      6142.85744291
  Ewald energy   TEWEN  =    -78108.94951981
  -Hartree energ DENC   =    -36064.78744857
  -exchange      EXHF   =      4084.52840914
  -V(xc)+E(xc)   XCENC  =      3004.48461247
  PAW double counting   =    117032.84869876  -125623.59518622
  entropy T*S    EENTRO =        -0.00000000
  eigenvalues    EBANDS =     -6800.74842388
  atomic energy  EATOM  =    115668.29297923
  ---------------------------------------------------
  free energy    TOTEN  =      -665.06843598 eV

  energy without entropy =     -665.06843598  energy(sigma->0) =     -665.06843598
  exchange ACFDT corr.  =        -0.00000000  see jH, gK, PRB 81, 115126


--------------------------------------------------------------------------------------------------------




--------------------------------------- Iteration      1(   9)  ---------------------------------------


    POTLOK:  cpu time      2.5630: real time      2.5693
    SETDIJ:  cpu time     16.1584: real time     16.2332
    TRIAL :  cpu time    104.3234: real time    104.9764
    CORREC:  cpu time    121.6520: real time    122.0228
    CHARGE:  cpu time      0.2652: real time      0.2660
    --------------------------------------------
      LOOP:  cpu time    244.9626: real time    246.0711

 eigenvalue-minimisations  :     0
 total energy-change (2. order) :-0.7093172E+01  (-0.1638988E+01)
 number of electron     962.0001949 magnetization      -0.0000006
 augmentation part      469.1358818 magnetization       0.4824612

 Free energy of the ion-electron system (eV)
  ---------------------------------------------------
  alpha Z        PSCENC =      6142.85744291
  Ewald energy   TEWEN  =    -78108.94951981
  -Hartree energ DENC   =    -36011.05825330
  -exchange      EXHF   =      4074.56139622
  -V(xc)+E(xc)   XCENC  =      3001.92666825
  PAW double counting   =    116983.21578810  -125607.71322769
  entropy T*S    EENTRO =        -0.00000000
  eigenvalues    EBANDS =     -6815.29488187
  atomic energy  EATOM  =    115668.29297923
  ---------------------------------------------------
  free energy    TOTEN  =      -672.16160797 eV

  energy without entropy =     -672.16160797  energy(sigma->0) =     -672.16160797
  exchange ACFDT corr.  =        -0.00000000  see jH, gK, PRB 81, 115126


--------------------------------------------------------------------------------------------------------




--------------------------------------- Iteration      1(  10)  ---------------------------------------


    POTLOK:  cpu time      2.5240: real time      2.5302
    SETDIJ:  cpu time     16.4231: real time     16.4655
    TRIAL :  cpu time    104.3868: real time    105.0344
    CORREC:  cpu time    122.1286: real time    122.6082
    CHARGE:  cpu time      0.2674: real time      0.2682
    --------------------------------------------
      LOOP:  cpu time    245.7302: real time    246.9081

 eigenvalue-minimisations  :     0
 total energy-change (2. order) :-0.1639819E+01  (-0.3703983E+00)
 number of electron     962.0001946 magnetization      -0.0000004
 augmentation part      469.2239060 magnetization       0.4095004

 Free energy of the ion-electron system (eV)
  ---------------------------------------------------
  alpha Z        PSCENC =      6142.85744291
  Ewald energy   TEWEN  =    -78108.94951981
  -Hartree energ DENC   =    -35961.38828853
  -exchange      EXHF   =      4070.30622269
  -V(xc)+E(xc)   XCENC  =      3000.59232393
  PAW double counting   =    116810.39871874  -125422.45607417
  entropy T*S    EENTRO =        -0.00000000
  eigenvalues    EBANDS =     -6873.45523231
  atomic energy  EATOM  =    115668.29297923
  ---------------------------------------------------
  free energy    TOTEN  =      -673.80142732 eV

  energy without entropy =     -673.80142732  energy(sigma->0) =     -673.80142732
  exchange ACFDT corr.  =        -0.00000000  see jH, gK, PRB 81, 115126


--------------------------------------------------------------------------------------------------------




--------------------------------------- Iteration      1(  11)  ---------------------------------------


    POTLOK:  cpu time      2.5717: real time      2.5783
    SETDIJ:  cpu time     16.3271: real time     16.3707
    TRIAL :  cpu time    104.5972: real time    104.9096
    CORREC:  cpu time    122.1245: real time    122.9973
    CHARGE:  cpu time      0.2664: real time      0.2674
    --------------------------------------------
      LOOP:  cpu time    245.8873: real time    247.1245

 eigenvalue-minimisations  :     0
 total energy-change (2. order) :-0.3705359E+00  (-0.8094361E-01)
 number of electron     962.0001946 magnetization      -0.0000003
 augmentation part      469.2404946 magnetization       0.2910916

 Free energy of the ion-electron system (eV)
  ---------------------------------------------------
  alpha Z        PSCENC =      6142.85744291
  Ewald energy   TEWEN  =    -78108.94951981
  -Hartree energ DENC   =    -35965.24683116
[...]
      3.24198      7.50592     15.63066         0.007266      0.014092      0.008481
      3.24827      7.49907      5.20910         0.000188     -0.002127      0.006917
      3.24878      7.50356     10.42291         0.002128      0.000460     -0.010979
      1.63064      0.93455      2.61910        -0.020553      0.004151     -0.001479
      1.62108      0.94002      7.80685         0.000419      0.001200     -0.004823
      1.63153      0.93259     13.03560        -0.012907     -0.000498      0.012672
      0.00269      3.74898      2.61649        -0.007436     -0.004912      0.005559
      0.00002      3.74796      7.80659         0.000270      0.001688     -0.010797
     -0.00104      3.75944     13.04306        -0.004042     -0.012501     -0.003240
     -1.62152      6.56423      2.59732        -0.011172     -0.006021      0.003843
     -1.62341      6.56631      7.81618         0.004599      0.000565     -0.000410
     -1.62709      6.56487     13.04476        -0.015531     -0.008419      0.001556
      4.87705      0.93682      2.59651         0.000404      0.005923      0.004808
      4.87458      0.93688      7.81685         0.000032     -0.004524     -0.002126
      4.87320      0.94077     13.04490         0.001744      0.009337     -0.002903
      3.24603      3.74764      2.59796        -0.006485      0.002066      0.006622
      3.25027      3.75297      7.81672         0.002398      0.003570     -0.004276
      3.24462      3.74922     13.03637        -0.007479     -0.004185      0.001800
      1.62407      6.56602      2.59862         0.012420     -0.007054      0.001666
      1.62379      6.56659      7.81716        -0.003997      0.001385     -0.006343
      1.62636      6.56410     13.04570         0.009010     -0.004198     -0.005101
      8.12796      0.93685      2.61622         0.001737      0.000721      0.006308
      8.12684      0.93997      7.80633        -0.000191      0.000508     -0.010237
      8.11526      0.93242     13.04426         0.009893      0.005572     -0.008918
      6.50285      3.74927      2.60096         0.013459     -0.004432      0.001070
      6.49766      3.75242      7.81693        -0.001945      0.001174     -0.007531
      6.50215      3.74955     13.03734         0.008568     -0.003410     -0.000166
      4.87613      6.56895      2.59989        -0.001580      0.008125      0.004996
      4.87350      6.56475      7.81617        -0.001634     -0.006021     -0.004320
      4.87389      6.56934     13.03660         0.001536      0.011245      0.002178
      0.00560      1.87300      2.21031        -0.005008     -0.000323     -0.001014
     -0.00009      1.87602      7.18378         0.002845     -0.001384     -0.008088
     -0.00241      1.87548     12.39969         0.002305     -0.000436      0.006676
     -1.62670      4.69147      2.00187         0.005696     -0.004690      0.004150
     -1.62834      4.69167      7.20000         0.002640      0.000943      0.003551
     -1.63677      4.69494     12.38990         0.003297     -0.006297     -0.004421
     -3.24583      7.49692      2.00013        -0.001983      0.008461      0.006874
     -3.24952      7.49975      7.20148        -0.000053      0.004132     -0.001551
     -3.25145      7.48966     12.38698        -0.001753      0.003402      0.001451
      3.25660      1.87538      1.99910        -0.005938     -0.000819      0.001882
      3.25318      1.87819      7.20132        -0.004395     -0.001884     -0.001316
      3.25908      1.88340     12.38744        -0.000828      0.002184      0.006309
      1.62880      4.69352      2.00110        -0.003051     -0.007836      0.000489
      1.62799      4.69231      7.19984        -0.000579     -0.002325      0.003969
      1.63470      4.69433     12.39033        -0.001265     -0.000557     -0.004646
      0.00085      7.50352      1.99237         0.001397      0.002685     -0.010885
      0.00013      7.50422      7.19279        -0.002105      0.000499     -0.005316
     -0.00040      7.50414     12.40872         0.003009     -0.000586      0.018294
      6.49711      1.87682      2.00181         0.001656     -0.008449      0.002082
      6.49537      1.87803      7.19952         0.000685     -0.001185      0.004949
      6.48862      1.88319     12.39086         0.001206     -0.003590     -0.008170
      4.87475      4.68885      1.99940        -0.002724     -0.003442     -0.000708
      4.87409      4.68974      7.19312        -0.002988      0.002023     -0.004909
      4.87359      4.68919     12.41049        -0.004134     -0.003323      0.017615
      3.24916      7.49719      2.00212        -0.001546      0.010738      0.000891
      3.24887      7.50017      7.19968         0.002063      0.000455      0.004685
      3.25054      7.49055     12.39031        -0.006226      0.004427     -0.008538
      1.64565      0.92611      4.62929        -0.007593      0.002608     -0.004248
      1.62478      0.93782      9.79221        -0.009063      0.004730     -0.007102
      1.76162      0.85385     14.95373         0.006593      0.011776      0.000811
      0.00072      3.77303      4.62725         0.000895     -0.007779     -0.001226
     -0.00005      3.75275      9.79125        -0.001102     -0.010689     -0.000368
     -0.00399      3.91026     14.96063         0.015382     -0.001996     -0.011859
     -1.62335      6.56582      4.59461        -0.000584      0.000570      0.003103
     -1.62085      6.56751      9.79535         0.001906      0.000008      0.004069
     -1.62618      6.56413     15.01779         0.000966      0.002583      0.004868
      4.87492      0.93717      4.59390         0.000073      0.000123      0.002441
      4.87476      0.93429      9.79585        -0.000253     -0.003548      0.005501
      4.87187      0.93695     15.01751        -0.000811      0.008795      0.006838
      3.25124      3.75260      4.59557        -0.001048     -0.001822      0.003708
      3.25199      3.75430      9.79586         0.003511      0.002665      0.004484
      3.25311      3.75423     15.02008        -0.000566     -0.006936      0.004197
      1.62371      6.56651      4.59522         0.002644     -0.000268     -0.000417
      1.62166      6.56762      9.79603        -0.002834      0.001781      0.005576
      1.62286      6.56331     15.01837         0.003897     -0.003903      0.000998
      8.10610      0.92722      4.62711         0.006076      0.000566     -0.002162
      8.12240      0.93734      9.79094         0.008252      0.004203      0.000902
      7.97897      0.85289     14.96089         0.004943      0.007493     -0.009494
      6.49677      3.75310      4.59750         0.002299     -0.002231     -0.000130
      6.49590      3.75323      9.79615        -0.003952      0.003105      0.004836
      6.49058      3.75421     15.02076        -0.001326     -0.002990      0.002196
      4.87447      6.56360      4.59704        -0.000080      0.002342      0.002479
      4.87321      6.56221      9.79543        -0.001061     -0.005235      0.002897
      4.87253      6.55598     15.02027         0.000690      0.005445      0.003421
     -0.00352      1.87155      0.01867         0.007902     -0.000207     -0.000256
 -----------------------------------------------------------------------------------
    total drift:                                0.035073     -0.007582      1.147962


--------------------------------------------------------------------------------------------------------



  FREE ENERGIE OF THE ION-ELECTRON SYSTEM (eV)
  ---------------------------------------------------
  free  energy   TOTEN  =      -675.74198101 eV

  energy  without entropy=     -675.74198101  energy(sigma->0) =     -675.74198101
 d Force = 0.1459623E-02[ 0.379E-03, 0.254E-02]  d Energy = 0.1511265E-02-0.516E-04
 d Force =-0.1857895E+01[-0.188E+01,-0.184E+01]  d Ewald  =-0.1857887E+01-0.779E-05
 


--------------------------------------------------------------------------------------------------------


    POTLOK:  cpu time     19.1986: real time     19.4734


--------------------------------------------------------------------------------------------------------


 Conjugate gradient step on ions:
 trial-energy change:   -0.001511  1 .order   -0.001460   -0.002540   -0.000379
  (g-gl).g = 0.183E-02      g.g   = 0.193E-02  gl.gl    = 0.381E-02
 g(Force)  = 0.193E-02   g(Stress)= 0.000E+00 ortho     = 0.118E-03
 gamma     =   0.47972
 trial     =   1.27743
 opt step  =   1.46974  (harmonic =   1.50146) maximal distance =0.00305582
 next E    =  -675.742010   (d E  =  -0.00154)


--------------------------------------------------------------------------------------------------------


  
 reached required accuracy - stopping structural energy minimisation
 writing wavefunctions
     LOOP+:  cpu time   2373.9510: real time   2399.5736
    4ORBIT:  cpu time      0.0001: real time      0.0185



 total charge

# of ion       s       p       d       tot
------------------------------------------
    1        0.407   0.469   9.948  10.825
    2        0.412   0.479   9.949  10.840
    3        0.421   0.497   9.956  10.874
    4        0.415   0.486   9.953  10.853
    5        0.413   0.482   9.951  10.846
    6        0.421   0.496   9.956  10.873
    7        0.415   0.486   9.953  10.853
    8        0.413   0.482   9.951  10.847
    9        0.421   0.496   9.955  10.872
   10        0.415   0.486   9.953  10.854
   11        0.413   0.483   9.951  10.847
   12        0.421   0.496   9.956  10.873
   13        0.415   0.486   9.953  10.854
   14        0.413   0.482   9.951  10.846
   15        0.411   0.478   9.949  10.838
   16        0.413   0.482   9.951  10.847
   17        0.413   0.481   9.950  10.844
   18        0.421   0.496   9.956  10.873
   19        0.415   0.486   9.953  10.854
   20        0.413   0.482   9.951  10.846
   21        0.415   0.486   9.952  10.853
   22        0.414   0.485   9.952  10.851
   23        0.412   0.480   9.950  10.842
   24        0.421   0.497   9.956  10.873
   25        0.415   0.486   9.953  10.853
   26        0.413   0.482   9.951  10.846
   27        0.418   0.490   9.953  10.862
   28        0.412   0.479   9.950  10.841
   29        0.416   0.486   9.951  10.853
   30        0.418   0.490   9.953  10.862
   31        0.412   0.479   9.950  10.841
   32        0.416   0.486   9.951  10.853
   33        0.415   0.485   9.952  10.851
   34        0.414   0.483   9.951  10.849
   35        0.411   0.477   9.949  10.837
   36        0.415   0.485   9.952  10.851
   37        0.414   0.483   9.951  10.849
   38        0.411   0.477   9.949  10.837
   39        0.414   0.483   9.951  10.847
   40        0.414   0.484   9.951  10.849
   41        0.412   0.479   9.949  10.839
   42        0.415   0.485   9.952  10.852
   43        0.414   0.483   9.951  10.849
   44        0.411   0.477   9.949  10.837
   45        0.418   0.490   9.953  10.861
   46        0.412   0.480   9.950  10.842
   47        0.416   0.486   9.951  10.853
   48        0.414   0.483   9.951  10.848
   49        0.414   0.483   9.951  10.848
   50        0.412   0.479   9.949  10.840
   51        0.414   0.483   9.951  10.848
   52        0.414   0.483   9.951  10.849
   53        0.412   0.479   9.949  10.840
   54        1.573   3.546   0.000   5.120
   55        1.574   3.527   0.000   5.101
   56        1.574   3.522   0.000   5.096
   57        1.574   3.529   0.000   5.103
   58        1.574   3.530   0.000   5.104
   59        1.574   3.529   0.000   5.103
   60        1.574   3.529   0.000   5.103
   61        1.574   3.530   0.000   5.104
   62        1.574   3.529   0.000   5.103
   63        1.574   3.529   0.000   5.104
   64        1.574   3.530   0.000   5.104
   65        1.574   3.529   0.000   5.104
   66        1.574   3.529   0.000   5.104
   67        1.574   3.530   0.000   5.104
   68        1.574   3.529   0.000   5.103
   69        1.574   3.530   0.000   5.104
   70        1.574   3.529   0.000   5.103
   71        1.574   3.528   0.000   5.102
   72        1.574   3.529   0.000   5.103
   73        1.574   3.530   0.000   5.104
   74        1.574   3.529   0.000   5.103
   75        1.574   3.530   0.000   5.104
   76        1.574   3.529   0.000   5.104
   77        1.574   3.528   0.000   5.103
   78        1.574   3.529   0.000   5.103
   79        1.574   3.530   0.000   5.104
   80        1.574   3.529   0.000   5.103
   81        1.575   3.533   0.000   5.108
   82        1.574   3.527   0.000   5.101
   83        1.574   3.549   0.000   5.123
   84        1.575   3.533   0.000   5.108
   85        1.574   3.527   0.000   5.102
   86        1.574   3.549   0.000   5.123
   87        1.574   3.530   0.000   5.105
   88        1.574   3.529   0.000   5.104
   89        1.575   3.535   0.000   5.110
   90        1.574   3.530   0.000   5.105
   91        1.574   3.529   0.000   5.104
   92        1.575   3.535   0.000   5.110
   93        1.574   3.530   0.000   5.104
   94        1.574   3.529   0.000   5.104
   95        1.574   3.528   0.000   5.102
   96        1.574   3.531   0.000   5.105
   97        1.574   3.530   0.000   5.104
   98        1.575   3.535   0.000   5.110
   99        1.575   3.533   0.000   5.108
  100        1.574   3.527   0.000   5.102
  101        1.574   3.550   0.000   5.123
  102        1.574   3.530   0.000   5.104
  103        1.574   3.529   0.000   5.103
  104        1.574   3.528   0.000   5.102
  105        1.574   3.530   0.000   5.104
  106        1.574   3.529   0.000   5.104
  107        1.574   3.528   0.000   5.102
  108        0.100   0.076   0.000   0.176
--------------------------------------------------
tot        107.082 216.416 527.430 850.928



 magnetization (x)

# of ion       s       p       d       tot
------------------------------------------
    1        0.000   0.000  -0.000   0.000
    2        0.000   0.000   0.000   0.000
    3       -0.000   0.000  -0.000  -0.000
    4        0.000   0.000  -0.000   0.000
    5        0.000   0.000   0.000   0.000
    6        0.000   0.000  -0.000   0.000
    7        0.000  -0.000  -0.000   0.000
    8        0.000   0.000  -0.000   0.000
    9        0.000   0.000   0.000   0.000
   10        0.000  -0.000  -0.000  -0.000
   11        0.000  -0.000  -0.000  -0.000
   12       -0.000  -0.000   0.000   0.000
   13        0.000  -0.000  -0.000   0.000
   14        0.000   0.000  -0.000   0.000
   15        0.000   0.000   0.000   0.000
   16        0.000   0.000  -0.000   0.000
   17       -0.000  -0.000  -0.000  -0.000
   18       -0.000   0.000  -0.000  -0.000
   19        0.000   0.000  -0.000   0.000
   20       -0.000   0.000   0.000   0.000
   21        0.000   0.000   0.000   0.000
   22        0.000   0.000  -0.000   0.000
   23        0.000   0.000  -0.000   0.000
   24        0.000   0.000  -0.000  -0.000
   25        0.000   0.000  -0.000   0.000
   26       -0.000  -0.000   0.000  -0.000
   27        0.000   0.000  -0.000   0.000
   28       -0.000  -0.000  -0.000  -0.000
   29        0.000   0.000  -0.000   0.000
   30       -0.000  -0.000   0.000  -0.000
   31        0.000   0.000   0.000   0.000
   32       -0.000   0.000   0.000   0.000
   33        0.000  -0.000  -0.000  -0.000
   34       -0.000  -0.000   0.000  -0.000
   35        0.000  -0.000  -0.000   0.000
   36       -0.000  -0.000   0.000  -0.000
   37        0.000   0.000   0.000   0.000
   38        0.000   0.000  -0.000   0.000
   39       -0.000  -0.000   0.000  -0.000
   40        0.000   0.000  -0.000  -0.000
   41       -0.000  -0.000  -0.000  -0.000
   42       -0.000  -0.000  -0.000  -0.000
   43       -0.000  -0.000   0.000  -0.000
   44       -0.000  -0.000  -0.000  -0.000
   45        0.000   0.000  -0.000   0.000
   46        0.000   0.000  -0.000   0.000
   47        0.000   0.000   0.000   0.000
   48       -0.000  -0.000  -0.000  -0.000
   49        0.000   0.000  -0.000   0.000
   50        0.000   0.000   0.000   0.000
   51       -0.000  -0.000  -0.000  -0.000
   52        0.000   0.000  -0.000   0.000
   53       -0.000  -0.000   0.000  -0.000
   54        0.000   0.000   0.000   0.000
   55        0.000   0.000   0.000   0.000
   56        0.000  -0.000   0.000  -0.000
   57       -0.000   0.000   0.000   0.000
   58        0.000   0.000   0.000   0.000
   59       -0.000  -0.000   0.000  -0.000
   60        0.000   0.000   0.000   0.000
   61        0.000  -0.000   0.000   0.000
   62        0.000  -0.000   0.000  -0.000
   63       -0.000  -0.000   0.000  -0.000
   64        0.000  -0.000   0.000  -0.000
   65       -0.000  -0.000   0.000  -0.000
   66        0.000   0.000   0.000   0.000
   67       -0.000  -0.000   0.000  -0.000
   68        0.000   0.000   0.000   0.000
   69       -0.000  -0.000   0.000  -0.000
   70       -0.000  -0.000   0.000  -0.000
   71        0.000   0.000   0.000   0.000
   72       -0.000   0.000   0.000   0.000
   73        0.000  -0.000   0.000  -0.000
   74       -0.000  -0.000   0.000  -0.000
   75       -0.000   0.000   0.000   0.000
   76        0.000   0.000   0.000   0.000
   77       -0.000   0.000   0.000   0.000
   78        0.000   0.000   0.000   0.000
   79        0.000   0.000   0.000   0.000
   80        0.000   0.000   0.000   0.000
   81        0.000  -0.000   0.000   0.000
   82        0.000  -0.000   0.000  -0.000
   83       -0.000  -0.000   0.000  -0.000
   84        0.000   0.000   0.000   0.000
   85       -0.000  -0.000   0.000  -0.000
   86        0.000   0.000   0.000   0.000
   87       -0.000  -0.000   0.000  -0.000
   88        0.000   0.000   0.000   0.000
   89       -0.000  -0.000   0.000  -0.000
   90       -0.000  -0.000   0.000  -0.000
   91        0.000   0.000   0.000   0.000
   92       -0.000   0.000   0.000  -0.000
   93        0.000   0.000   0.000   0.000
   94        0.000   0.000   0.000   0.000
   95        0.000   0.000   0.000   0.000
   96       -0.000  -0.000   0.000  -0.000
   97        0.000   0.000   0.000   0.000
   98       -0.000   0.000   0.000   0.000
   99       -0.000  -0.000   0.000  -0.000
  100        0.000  -0.000   0.000  -0.000
  101        0.000  -0.000   0.000  -0.000
  102       -0.000  -0.000   0.000  -0.000
  103       -0.000  -0.000   0.000  -0.000
  104       -0.000  -0.000   0.000  -0.000
  105       -0.000  -0.000   0.000  -0.000
  106       -0.000  -0.000   0.000  -0.000
  107       -0.000  -0.000   0.000  -0.000
  108       -0.000  -0.000   0.000  -0.000
--------------------------------------------------
tot          0.000  -0.000  -0.000  -0.000
 

 total amount of memory used by VASP MPI-rank0  6621683. kBytes
=======================================================================

   base                                    :      30000. kBytes
   nonlr-proj                              :     192326. kBytes
   fftplans                                :      50796. kBytes
   grid                                    :     145907. kBytes
   one-center                              :       3359. kBytes
   HF                                      :        194. kBytes
   wavefun                                 :    6005019. kBytes
   fock_wrk                                :     194082. kBytes
 
  
  
 General timing and accounting informations for this job:
 ========================================================
  
                  Total CPU time used (sec):    35668.160
                            User time (sec):    35618.690
                          System time (sec):       49.468
                         Elapsed time (sec):    35906.113
  
                   Maximum memory used (kb):    10451500.
                   Average memory used (kb):          N/A
  
                          Minor page faults:       887952
                          Major page faults:        85220
                 Voluntary context switches:      1102906
