 running    2 mpi-ranks, on    1 nodes
 distrk:  each k-point on    1 cores,    2 groups
 distr:  one band on    1 cores,    1 groups
 Offloading initialized ...    2 GPUs detected
 vasp.6.5.1 10Mar25 (build May 13 2025 11:33:44) complex                         
 POSCAR found type information on POSCAR ZnO Na
 POSCAR found :  3 types and     108 ions
 -----------------------------------------------------------------------------
|                                                                             |
|           W    W    AA    RRRRR   N    N  II  N    N   GGGG   !!!           |
|           W    W   A  A   R    R  NN   N  II  NN   N  G    G  !!!           |
|           W    W  A    A  R    R  N N  N  II  N N  N  G       !!!           |
|           W WW W  AAAAAA  RRRRR   N  N N  II  N  N N  G  GGG   !            |
|           WW  WW  A    A  R   R   N   NN  II  N   NN  G    G                |
|           W    W  A    A  R    R  N    N  II  N    N   GGGG   !!!           |
|                                                                             |
|     You requested a magnetic or noncollinear calculation, but did not       |
|     specify the initial magnetic moment with the MAGMOM tag. Note that      |
|     a default of 1 will be used for all atoms. This ferromagnetic setup     |
|     may break the symmetry of the crystal, in particular it may rule        |
|     out finding an antiferromagnetic solution. Thence, we recommend         |
|     setting the initial magnetic moment manually or verifying carefully     |
|     that this magnetic setup is desired.                                    |
|                                                                             |
 -----------------------------------------------------------------------------

 scaLAPACK will be used selectively (only on CPU)
 LDA part: xc-table for (Slater+PW92), standard interpolation
 POSCAR, INCAR and KPOINTS ok, starting setup
 FFT: planning ... GRIDC
 FFT: planning ... GRID_SOFT
 FFT: planning ... GRID
 WAVECAR not read
 entering main loop
       N       E                     dE             d eps       ncg     rms           ort
DAV:   1    -0.228100353872E+05   -0.22810E+05   -0.34153E+05  2524   0.216E+03  
DAV:   2    -0.332234320131E+05   -0.10413E+05   -0.97039E+04  2524   0.545E+02  
DAV:   3    -0.357256390716E+05   -0.25022E+04   -0.23837E+04  2524   0.225E+02  
DAV:   4    -0.359383875551E+05   -0.21275E+03   -0.20905E+03  2524   0.694E+01  
DAV:   5    -0.765539533356E+03    0.35173E+05   -0.39109E+02  2524   0.884E+01  
SDA:   6    -0.437502603567E+03    0.32804E+03   -0.39109E+02  2524   0.106E+04   0.000E+00
 gam= 0.000 g(H,U,f)=  0.813E+03 0.244E+03 0.689E-14 ort(H,U,f) = 0.000E+00 0.000E+00 0.000E+00
 gam= 0.000 trial= 0.400  step=  0.3861 mean=  0.4000
CGA:   7    -0.641782824558E+03   -0.20428E+03   -0.20405E+03  2524   0.573E+02  -0.130E+02
 gam= 0.054 g(H,U,f)=  0.347E+02 0.226E+02 0.591E-13 ort(H,U,f) =-0.938E+02 0.808E+02 0.269E-12
 gam= 0.054 trial= 0.399  step=  0.8307 mean=  0.3986
CGA:   8    -0.665068435979E+03   -0.23286E+02   -0.23500E+02  2524   0.208E+02  -0.121E+01
 gam= 0.363 g(H,U,f)=  0.172E+02 0.360E+01 0.893E-15 ort(H,U,f) =-0.122E+02 0.110E+02 0.480E-13
 gam= 0.363 trial= 0.442  step=  0.7008 mean=  0.4418
CGA:   9    -0.672161607974E+03   -0.70932E+01   -0.71368E+01  2524   0.628E+01  -0.309E+00
 gam= 0.302 g(H,U,f)=  0.598E+01 0.307E+00 0.972E-14 ort(H,U,f) =-0.171E+01 0.140E+01-0.211E-13
 gam= 0.302 trial= 0.468  step=  0.5295 mean=  0.4677
CGA:  10    -0.673801427318E+03   -0.16398E+01   -0.16390E+01  2524   0.114E+01   0.157E-01
 gam= 0.181 g(H,U,f)=  0.108E+01 0.621E-01 0.534E-15 ort(H,U,f) =-0.921E-01 0.108E+00 0.157E-14
 gam= 0.181 trial= 0.474  step=  0.6481 mean=  0.4739
CGA:  11    -0.674171963256E+03   -0.37054E+00   -0.37040E+00  2524   0.229E+00   0.106E-02
 gam= 0.201 g(H,U,f)=  0.197E+00 0.320E-01 0.467E-15 ort(H,U,f) =-0.417E-01 0.427E-01 0.838E-15
 gam= 0.201 trial= 0.491  step=  0.7056 mean=  0.4913
CGA:  12    -0.674252908557E+03   -0.80945E-01   -0.80944E-01  2524   0.639E-01   0.164E-04
 gam= 0.279 g(H,U,f)=  0.492E-01 0.147E-01 0.812E-15 ort(H,U,f) =-0.260E-01 0.261E-01 0.217E-14
 gam= 0.279 trial= 0.513  step=  0.6646 mean=  0.5127
CGA:  13    -0.674274156753E+03   -0.21248E-01   -0.21235E-01  2524   0.243E-01   0.169E-03
 gam= 0.380 g(H,U,f)=  0.189E-01 0.537E-02 0.252E-16 ort(H,U,f) =-0.114E-01 0.115E-01 0.152E-15
 gam= 0.380 trial= 0.528  step=  0.7537 mean=  0.5279
CGA:  14    -0.674283341673E+03   -0.91849E-02   -0.91783E-02  2524   0.906E-02   0.571E-04
 gam= 0.373 g(H,U,f)=  0.737E-02 0.169E-02 0.341E-16 ort(H,U,f) =-0.498E-02 0.504E-02-0.683E-15
 gam= 0.373 trial= 0.551  step=  0.7645 mean=  0.5505
CGA:  15    -0.674286815420E+03   -0.34737E-02   -0.34719E-02  2524   0.361E-02   0.166E-04
 gam= 0.398 g(H,U,f)=  0.310E-02 0.509E-03 0.264E-14 ort(H,U,f) =-0.149E-02 0.151E-02 0.134E-13
 gam= 0.398 trial= 0.572  step=  0.6885 mean=  0.5719
CGA:  16    -0.674288059298E+03   -0.12439E-02   -0.12454E-02  2524   0.121E-02  -0.254E-04
 gam= 0.336 g(H,U,f)=  0.103E-02 0.179E-03 0.617E-17 ort(H,U,f) =-0.510E-03 0.484E-03 0.363E-18
 gam= 0.336 trial= 0.584  step=  0.7140 mean=  0.5836
CGA:  17    -0.674288488481E+03   -0.42918E-03   -0.43029E-03  2524   0.368E-03  -0.170E-04
 gam= 0.303 g(H,U,f)=  0.321E-03 0.471E-04 0.180E-16 ort(H,U,f) =-0.154E-03 0.137E-03 0.349E-16
 gam= 0.303 trial= 0.597  step=  0.6837 mean=  0.5966
CGA:  18    -0.674288612317E+03   -0.12384E-03   -0.12393E-03  2524   0.122E-03  -0.217E-05
 gam= 0.330 g(H,U,f)=  0.109E-03 0.127E-04 0.660E-17 ort(H,U,f) =-0.388E-04 0.366E-04 0.278E-16
 gam= 0.330 trial= 0.605  step=  0.5676 mean=  0.6053
CGA:  19    -0.674288646616E+03   -0.34299E-04   -0.34277E-04  2524   0.357E-04  -0.116E-05
 gam= 0.294 g(H,U,f)=  0.333E-04 0.241E-05 0.773E-18 ort(H,U,f) =-0.929E-05 0.812E-05 0.674E-17
 gam= 0.294 trial= 0.602  step=  0.5569 mean=  0.6015
CGA:  20    -0.674288656440E+03   -0.98243E-05   -0.98462E-05  2524   0.101E-04   0.979E-06
 gam= 0.282 g(H,U,f)=  0.951E-05 0.562E-06 0.170E-19 ort(H,U,f) =-0.436E-06 0.142E-05 0.123E-18
 gam= 0.282 trial= 0.597  step=  0.5260 mean=  0.5971
 final diagonalization occupied
   1 F= -.67428866E+03 E0= -.67428866E+03  d E =-.674289E+03  mag=    -0.0000
 curvature:   0.00 expect dE= 0.000E+00 dE for cont linesearch  0.000E+00
 trial: gam= 0.00000 g(F)=  0.301E+01 g(S)=  0.000E+00 ort = 0.000E+00 (trialstep = 0.100E+01)
 search vector abs. value=  0.301E+01
 bond charge predicted
 wavefunctions rotated
 writing wavefunctions
       N       E                     dE             d eps       ncg     rms           ort
SDA:   1    -0.571306271675E+03    0.10298E+03    0.00000E+00  2524   0.260E+03   0.000E+00
 gam= 0.000 g(H,U,f)=  0.217E+03 0.435E+02 0.147E-02 ort(H,U,f) = 0.000E+00 0.000E+00 0.000E+00
 gam= 0.000 trial= 0.590  step=  0.6283 mean=  0.5900
CGA:   2    -0.652870240260E+03   -0.81564E+02   -0.81809E+02  2524   0.757E+02  -0.445E+01
 gam= 0.291 g(H,U,f)=  0.721E+02 0.359E+01 0.234E-11 ort(H,U,f) = 0.163E+01-0.608E+01-0.545E-11
 gam= 0.291 trial= 0.594  step=  0.5101 mean=  0.5938
CGA:   3    -0.671824323910E+03   -0.18954E+02   -0.18974E+02  2524   0.111E+02   0.412E+00
 gam= 0.147 g(H,U,f)=  0.101E+02 0.108E+01 0.794E-13 ort(H,U,f) =-0.507E+00 0.919E+00 0.100E-12
 gam= 0.147 trial= 0.585  step=  0.4725 mean=  0.5854
CGA:   4    -0.674462156808E+03   -0.26378E+01   -0.26476E+01  2524   0.280E+01   0.103E+00
 gam= 0.251 g(H,U,f)=  0.222E+01 0.575E+00 0.530E-11 ort(H,U,f) =-0.634E+00 0.737E+00 0.354E-11
 gam= 0.251 trial= 0.574  step=  0.5042 mean=  0.5741
CGA:   5    -0.675172336491E+03   -0.71018E+00   -0.71213E+00  2524   0.636E+00   0.326E-01
 gam= 0.227 g(H,U,f)=  0.420E+00 0.216E+00 0.464E-13 ort(H,U,f) =-0.377E+00 0.409E+00 0.114E-12
 gam= 0.227 trial= 0.567  step=  0.7680 mean=  0.5671
CGA:   6    -0.675419892508E+03   -0.24756E+00   -0.24693E+00  2524   0.241E+00   0.483E-02
 gam= 0.378 g(H,U,f)=  0.184E+00 0.563E-01 0.576E-13 ort(H,U,f) =-0.149E+00 0.154E+00 0.237E-12
 gam= 0.378 trial= 0.587  step=  0.6623 mean=  0.5872
CGA:   7    -0.675500137645E+03   -0.80245E-01   -0.80250E-01  2524   0.785E-01  -0.485E-04
 gam= 0.326 g(H,U,f)=  0.685E-01 0.999E-02 0.177E-15 ort(H,U,f) =-0.386E-01 0.386E-01 0.382E-15
 gam= 0.326 trial= 0.595  step=  0.6090 mean=  0.5947
CGA:   8    -0.675524046136E+03   -0.23908E-01   -0.23905E-01  2524   0.180E-01   0.292E-03
 gam= 0.230 g(H,U,f)=  0.165E-01 0.157E-02 0.262E-14 ort(H,U,f) =-0.543E-02 0.572E-02 0.116E-13
 gam= 0.230 trial= 0.596  step=  0.5418 mean=  0.5962
CGA:   9    -0.675528951877E+03   -0.49057E-02   -0.49061E-02  2524   0.368E-02   0.148E-04
 gam= 0.204 g(H,U,f)=  0.332E-02 0.357E-03 0.245E-16 ort(H,U,f) =-0.862E-03 0.877E-03 0.105E-15
 gam= 0.204 trial= 0.591  step=  0.5278 mean=  0.5907
CGA:  10    -0.675529923540E+03   -0.97166E-03   -0.97159E-03  2524   0.773E-03  -0.252E-05
 gam= 0.210 g(H,U,f)=  0.627E-03 0.145E-03 0.831E-20 ort(H,U,f) =-0.264E-03 0.261E-03 0.859E-20
 gam= 0.210 trial= 0.584  step=  0.5814 mean=  0.5844
CGA:  11    -0.675530148055E+03   -0.22451E-03   -0.22451E-03  2524   0.239E-03  -0.404E-05
 gam= 0.309 g(H,U,f)=  0.184E-03 0.552E-04 0.265E-19 ort(H,U,f) =-0.116E-03 0.112E-03 0.232E-19
 gam= 0.309 trial= 0.584  step=  0.6196 mean=  0.5841
CGA:  12    -0.675530221704E+03   -0.73649E-04   -0.73703E-04  2524   0.787E-04  -0.304E-05
 gam= 0.329 g(H,U,f)=  0.643E-04 0.144E-04 0.169E-19 ort(H,U,f) =-0.459E-04 0.429E-04 0.340E-19
 gam= 0.329 trial= 0.588  step=  0.6018 mean=  0.5877
CGA:  13    -0.675530245064E+03   -0.23359E-04   -0.23378E-04  2524   0.252E-04  -0.258E-05
 gam= 0.320 g(H,U,f)=  0.220E-04 0.317E-05 0.230E-20 ort(H,U,f) =-0.131E-04 0.105E-04 0.127E-19
 gam= 0.320 trial= 0.589  step=  0.5625 mean=  0.5891
CGA:  14    -0.675530251920E+03   -0.68565E-05   -0.68481E-05  2524   0.822E-05  -0.628E-06
 gam= 0.326 g(H,U,f)=  0.757E-05 0.652E-06 0.902E-22 ort(H,U,f) =-0.269E-05 0.207E-05 0.141E-20
 gam= 0.326 trial= 0.586  step=  0.4912 mean=  0.5864
 final diagonalization occupied
   2 F= -.67553025E+03 E0= -.67553025E+03  d E =-.124160E+01  mag=    -0.0000
 trial-energy change:   -1.241595  1 .order   -1.304767   -3.008996    0.399463
 step:   0.8702(harm=  0.8828)  dis= 0.16108  next Energy=  -675.556306 (dE=-0.127E+01)
 bond charge predicted
 wavefunctions rotated
 writing wavefunctions
       N       E                     dE             d eps       ncg     rms           ort
SDA:   1    -0.673967147075E+03    0.15631E+01    0.00000E+00  2524   0.382E+01   0.000E+00
 gam= 0.000 g(H,U,f)=  0.377E+01 0.457E-01 0.112E-15 ort(H,U,f) = 0.000E+00 0.000E+00 0.000E+00
 gam= 0.000 trial= 0.577  step=  0.7052 mean=  0.5769
CGA:   2    -0.675312732423E+03   -0.13456E+01   -0.13460E+01  2524   0.806E+00  -0.443E-02
 gam= 0.211 g(H,U,f)=  0.779E+00 0.271E-01 0.195E-16 ort(H,U,f) = 0.186E-01-0.231E-01-0.101E-15
 gam= 0.211 trial= 0.590  step=  0.5269 mean=  0.5897
CGA:   3    -0.675524769474E+03   -0.21204E+00   -0.21217E+00  2524   0.105E+00   0.186E-02
 gam= 0.130 g(H,U,f)=  0.100E+00 0.421E-02 0.101E-15 ort(H,U,f) =-0.318E-02 0.504E-02 0.127E-15
 gam= 0.130 trial= 0.583  step=  0.5087 mean=  0.5835
CGA:   4    -0.675551433199E+03   -0.26664E-01   -0.26665E-01  2524   0.139E-01   0.105E-04
 gam= 0.133 g(H,U,f)=  0.124E-01 0.151E-02 0.993E-16 ort(H,U,f) =-0.185E-02 0.186E-02-0.168E-15
 gam= 0.133 trial= 0.576  step=  0.5410 mean=  0.5760
CGA:   5    -0.675555184997E+03   -0.37518E-02   -0.37518E-02  2524   0.257E-02   0.117E-06
 gam= 0.185 g(H,U,f)=  0.192E-02 0.651E-03 0.126E-17 ort(H,U,f) =-0.111E-02 0.111E-02 0.877E-17
 gam= 0.185 trial= 0.572  step=  0.5782 mean=  0.5725
CGA:   6    -0.675555927935E+03   -0.74294E-03   -0.74290E-03  2524   0.847E-03   0.121E-04
 gam= 0.330 g(H,U,f)=  0.586E-03 0.261E-03 0.996E-17 ort(H,U,f) =-0.487E-03 0.499E-03-0.868E-17
 gam= 0.330 trial= 0.573  step=  0.6310 mean=  0.5730
CGA:   7    -0.675556196513E+03   -0.26858E-03   -0.26854E-03  2524   0.315E-03   0.146E-05
 gam= 0.372 g(H,U,f)=  0.250E-03 0.648E-04 0.505E-17 ort(H,U,f) =-0.191E-03 0.192E-03-0.627E-17
 gam= 0.372 trial= 0.579  step=  0.6088 mean=  0.5788
CGA:   8    -0.675556292531E+03   -0.96019E-04   -0.96002E-04  2524   0.909E-04   0.115E-05
 gam= 0.289 g(H,U,f)=  0.802E-04 0.108E-04 0.265E-17 ort(H,U,f) =-0.497E-04 0.508E-04 0.218E-17
 gam= 0.289 trial= 0.582  step=  0.5420 mean=  0.5818
CGA:   9    -0.675556317260E+03   -0.24728E-04   -0.24729E-04  2524   0.224E-04   0.564E-09
 gam= 0.246 g(H,U,f)=  0.192E-04 0.317E-05 0.168E-17 ort(H,U,f) =-0.679E-05 0.679E-05-0.285E-17
 gam= 0.246 trial= 0.578  step=  0.5381 mean=  0.5778
CGA:  10    -0.675556323280E+03   -0.60205E-05   -0.60236E-05  2524   0.473E-05   0.152E-06
 gam= 0.211 g(H,U,f)=  0.384E-05 0.891E-06 0.129E-19 ort(H,U,f) =-0.178E-05 0.193E-05 0.933E-19
 gam= 0.211 trial= 0.574  step=  0.5197 mean=  0.5739
 final diagonalization occupied
   3 F= -.67555632E+03 E0= -.67555632E+03  d E =-.126767E+01  mag=     0.0000
 curvature:  -0.44 expect dE=-0.925E-01 dE for cont linesearch -0.104E-05
 trial: gam= 0.06955 g(F)=  0.212E+00 g(S)=  0.000E+00 ort = 0.268E-02 (trialstep = 0.974E+00)
 search vector abs. value=  0.227E+00
 bond charge predicted
 wavefunctions rotated
 writing wavefunctions
       N       E                     dE             d eps       ncg     rms           ort
SDA:   1    -0.669038882388E+03    0.65174E+01    0.00000E+00  2524   0.151E+02   0.000E+00
 gam= 0.000 g(H,U,f)=  0.149E+02 0.199E+00 0.755E-16 ort(H,U,f) = 0.000E+00 0.000E+00 0.000E+00
 gam= 0.000 trial= 0.568  step=  0.7513 mean=  0.5685
CGA:   2    -0.674734511887E+03   -0.56956E+01   -0.56876E+01  2524   0.331E+01   0.623E-01
 gam= 0.218 g(H,U,f)=  0.319E+01 0.116E+00 0.317E-14 ort(H,U,f) = 0.173E+00-0.110E+00-0.541E-14
 gam= 0.218 trial= 0.587  step=  0.4971 mean=  0.5867
CGA:   3    -0.675560504934E+03   -0.82599E+00   -0.82525E+00  2524   0.418E+00  -0.544E-02
 gam= 0.126 g(H,U,f)=  0.398E+00 0.205E-01 0.207E-14 ort(H,U,f) =-0.272E-01 0.217E-01 0.433E-15
 gam= 0.126 trial= 0.578  step=  0.4737 mean=  0.5778
CGA:   4    -0.675659364866E+03   -0.98860E-01   -0.98885E-01  2524   0.736E-01   0.236E-03
 gam= 0.176 g(H,U,f)=  0.654E-01 0.821E-02 0.137E-16 ort(H,U,f) =-0.109E-01 0.112E-01-0.141E-16
 gam= 0.176 trial= 0.567  step=  0.4824 mean=  0.5674
CGA:   5    -0.675677121786E+03   -0.17757E-01   -0.17763E-01  2524   0.143E-01   0.122E-03
 gam= 0.194 g(H,U,f)=  0.114E-01 0.296E-02 0.423E-16 ort(H,U,f) =-0.541E-02 0.553E-02 0.209E-16
 gam= 0.194 trial= 0.559  step=  0.5649 mean=  0.5589
CGA:   6    -0.675681171450E+03   -0.40497E-02   -0.40497E-02  2524   0.398E-02  -0.194E-04
 gam= 0.278 g(H,U,f)=  0.264E-02 0.134E-02 0.936E-17 ort(H,U,f) =-0.266E-02 0.264E-02 0.188E-16
 gam= 0.278 trial= 0.559  step=  0.6898 mean=  0.5595
CGA:   7    -0.675682543864E+03   -0.13724E-02   -0.13712E-02  2524   0.122E-02   0.182E-04
 gam= 0.306 g(H,U,f)=  0.944E-03 0.272E-03 0.129E-17 ort(H,U,f) =-0.831E-03 0.849E-03 0.472E-17
 gam= 0.306 trial= 0.573  step=  0.7143 mean=  0.5725
CGA:   8    -0.675682980466E+03   -0.43660E-03   -0.43637E-03  2524   0.393E-03   0.321E-05
 gam= 0.323 g(H,U,f)=  0.344E-03 0.484E-04 0.941E-18 ort(H,U,f) =-0.168E-03 0.171E-03-0.749E-18
 gam= 0.323 trial= 0.587  step=  0.5053 mean=  0.5867
CGA:   9    -0.675683079808E+03   -0.99342E-04   -0.99506E-04  2524   0.806E-04   0.405E-05
 gam= 0.205 g(H,U,f)=  0.716E-04 0.902E-05 0.572E-18 ort(H,U,f) =-0.283E-04 0.323E-04-0.320E-18
 gam= 0.205 trial= 0.579  step=  0.5450 mean=  0.5785
CGA:  10    -0.675683102009E+03   -0.22201E-04   -0.22189E-04  2524   0.202E-04  -0.726E-06
 gam= 0.251 g(H,U,f)=  0.173E-04 0.295E-05 0.751E-20 ort(H,U,f) =-0.793E-05 0.721E-05 0.572E-19
 gam= 0.251 trial= 0.575  step=  0.4823 mean=  0.5752
CGA:  11    -0.675683106840E+03   -0.48315E-05   -0.48339E-05  2524   0.672E-05   0.522E-07
 gam= 0.332 g(H,U,f)=  0.520E-05 0.152E-05 0.143E-19 ort(H,U,f) =-0.298E-05 0.303E-05-0.309E-19
 gam= 0.332 trial= 0.566  step=  0.4927 mean=  0.5659
 final diagonalization occupied
   4 F= -.67568311E+03 E0= -.67568311E+03  d E =-.126784E+00  mag=     0.0000
 trial-energy change:   -0.126784  1 .order   -0.127198   -0.206634   -0.047762
 step:   1.2730(harm=  1.2669)  dis= 0.05857  next Energy=  -675.690424 (dE=-0.134E+00)
 bond charge predicted
 wavefunctions rotated
 writing wavefunctions
       N       E                     dE             d eps       ncg     rms           ort
SDA:   1    -0.675062479294E+03    0.62062E+00    0.00000E+00  2524   0.142E+01   0.000E+00
 gam= 0.000 g(H,U,f)=  0.140E+01 0.201E-01 0.413E-14 ort(H,U,f) = 0.000E+00 0.000E+00 0.000E+00
 gam= 0.000 trial= 0.559  step=  0.7601 mean=  0.5586
CGA:   2    -0.675600921540E+03   -0.53844E+00   -0.53824E+00  2524   0.311E+00   0.133E-02
 gam= 0.220 g(H,U,f)=  0.301E+00 0.101E-01 0.480E-15 ort(H,U,f) = 0.127E-01-0.113E-01-0.451E-14
 gam= 0.220 trial= 0.579  step=  0.5039 mean=  0.5787
CGA:   3    -0.675679382938E+03   -0.78461E-01   -0.78444E-01  2524   0.380E-01  -0.173E-03
 gam= 0.122 g(H,U,f)=  0.365E-01 0.148E-02 0.409E-16 ort(H,U,f) =-0.173E-02 0.155E-02-0.239E-15
 gam= 0.122 trial= 0.571  step=  0.4707 mean=  0.5713
CGA:   4    -0.675688324679E+03   -0.89417E-02   -0.89420E-02  2524   0.666E-02   0.598E-05
 gam= 0.175 g(H,U,f)=  0.604E-02 0.620E-03 0.592E-15 ort(H,U,f) =-0.889E-03 0.895E-03 0.315E-16
 gam= 0.175 trial= 0.561  step=  0.5014 mean=  0.5612
CGA:   5    -0.675689994444E+03   -0.16698E-02   -0.16702E-02  2524   0.117E-02   0.151E-04
 gam= 0.175 g(H,U,f)=  0.941E-03 0.227E-03 0.278E-16 ort(H,U,f) =-0.426E-03 0.441E-03 0.141E-15
 gam= 0.175 trial= 0.555  step=  0.5637 mean=  0.5552
CGA:   6    -0.675690324549E+03   -0.33011E-03   -0.33012E-03  2524   0.353E-03  -0.409E-05
 gam= 0.302 g(H,U,f)=  0.246E-03 0.107E-03 0.102E-17 ort(H,U,f) =-0.204E-03 0.200E-03-0.198E-17
 gam= 0.302 trial= 0.556  step=  0.6056 mean=  0.5561
CGA:   7    -0.675690431101E+03   -0.10655E-03   -0.10651E-03  2524   0.124E-03   0.171E-05
 gam= 0.350 g(H,U,f)=  0.966E-04 0.271E-04 0.413E-17 ort(H,U,f) =-0.779E-04 0.796E-04 0.690E-17
 gam= 0.350 trial= 0.561  step=  0.6195 mean=  0.5610
CGA:   8    -0.675690469602E+03   -0.38501E-04   -0.38499E-04  2524   0.525E-04   0.757E-07
 gam= 0.424 g(H,U,f)=  0.464E-04 0.611E-05 0.492E-17 ort(H,U,f) =-0.211E-04 0.212E-04 0.732E-17
 gam= 0.424 trial= 0.567  step=  0.4523 mean=  0.5669
CGA:   9    -0.675690481462E+03   -0.11860E-04   -0.11878E-04  2524   0.144E-04   0.321E-06
 gam= 0.274 g(H,U,f)=  0.133E-04 0.109E-05 0.108E-17 ort(H,U,f) =-0.501E-05 0.533E-05-0.379E-17
 gam= 0.274 trial= 0.555  step=  0.4456 mean=  0.5554
CGA:  10    -0.675690484670E+03   -0.32083E-05   -0.32239E-05  2524   0.339E-05   0.284E-06
 gam= 0.236 g(H,U,f)=  0.300E-05 0.386E-06 0.206E-17 ort(H,U,f) =-0.705E-06 0.989E-06 0.400E-19
 gam= 0.236 trial= 0.544  step=  0.5360 mean=  0.5444
 final diagonalization occupied
   5 F= -.67569048E+03 E0= -.67569048E+03  d E =-.134161E+00  mag=     0.0000
 curvature:  -0.68 expect dE=-0.357E-01 dE for cont linesearch -0.456E-07
 trial: gam= 0.27929 g(F)=  0.528E-01 g(S)=  0.000E+00 ort =-0.124E-03 (trialstep = 0.103E+01)
 search vector abs. value=  0.704E-01
 bond charge predicted
 wavefunctions rotated
 writing wavefunctions
       N       E                     dE             d eps       ncg     rms           ort
SDA:   1    -0.673532729467E+03    0.21578E+01    0.00000E+00  2524   0.500E+01   0.000E+00
 gam= 0.000 g(H,U,f)=  0.491E+01 0.853E-01 0.936E-15 ort(H,U,f) = 0.000E+00 0.000E+00 0.000E+00
 gam= 0.000 trial= 0.544  step=  0.7375 mean=  0.5436
CGA:   2    -0.675376432799E+03   -0.18437E+01   -0.18421E+01  2524   0.123E+01   0.115E-01
 gam= 0.247 g(H,U,f)=  0.117E+01 0.604E-01 0.596E-13 ort(H,U,f) = 0.714E-01-0.599E-01-0.634E-13
 gam= 0.247 trial= 0.563  step=  0.5047 mean=  0.5630
CGA:   3    -0.675688336311E+03   -0.31190E+00   -0.31179E+00  2524   0.129E+00  -0.178E-02
 gam= 0.105 g(H,U,f)=  0.122E+00 0.733E-02 0.120E-12 ort(H,U,f) =-0.127E-01 0.109E-01 0.272E-12
 gam= 0.105 trial= 0.557  step=  0.4694 mean=  0.5571
CGA:   4    -0.675718624602E+03   -0.30288E-01   -0.30287E-01  2524   0.230E-01  -0.290E-04
 gam= 0.178 g(H,U,f)=  0.212E-01 0.177E-02 0.210E-15 ort(H,U,f) =-0.298E-02 0.295E-02 0.236E-14
 gam= 0.178 trial= 0.548  step=  0.4815 mean=  0.5484
CGA:   5    -0.675724157425E+03   -0.55328E-02   -0.55344E-02  2524   0.399E-02   0.466E-04
 gam= 0.173 g(H,U,f)=  0.321E-02 0.782E-03 0.314E-15 ort(H,U,f) =-0.138E-02 0.142E-02 0.579E-15
 gam= 0.173 trial= 0.542  step=  0.5365 mean=  0.5417
CGA:   6    -0.675725229391E+03   -0.10720E-02   -0.10719E-02  2524   0.115E-02  -0.146E-04
 gam= 0.288 g(H,U,f)=  0.815E-03 0.334E-03 0.957E-16 ort(H,U,f) =-0.661E-03 0.646E-03 0.187E-15
 gam= 0.288 trial= 0.541  step=  0.6068 mean=  0.5412
CGA:   7    -0.675725576932E+03   -0.34754E-03   -0.34741E-03  2524   0.402E-03   0.407E-05
 gam= 0.350 g(H,U,f)=  0.316E-03 0.862E-04 0.130E-17 ort(H,U,f) =-0.244E-03 0.248E-03 0.148E-16
 gam= 0.350 trial= 0.548  step=  0.5398 mean=  0.5477
CGA:   8    -0.675725685872E+03   -0.10894E-03   -0.10895E-03  2524   0.192E-03   0.254E-05
 gam= 0.477 g(H,U,f)=  0.166E-03 0.259E-04 0.168E-17 ort(H,U,f) =-0.776E-04 0.802E-04-0.702E-17
 gam= 0.477 trial= 0.547  step=  0.4786 mean=  0.5469
CGA:   9    -0.675725732071E+03   -0.46200E-04   -0.46205E-04  2524   0.440E-04   0.142E-06
 gam= 0.229 g(H,U,f)=  0.393E-04 0.469E-05 0.601E-18 ort(H,U,f) =-0.226E-04 0.227E-04-0.100E-17
 gam= 0.229 trial= 0.540  step=  0.5178 mean=  0.5401
CGA:  10    -0.675725743474E+03   -0.11403E-04   -0.11408E-04  2524   0.114E-04   0.480E-06
 gam= 0.258 g(H,U,f)=  0.103E-04 0.112E-05 0.460E-21 ort(H,U,f) =-0.298E-05 0.346E-05 0.105E-19
 gam= 0.258 trial= 0.538  step=  0.4838 mean=  0.5379
CGA:  11    -0.675725746259E+03   -0.27849E-05   -0.27823E-05  2524   0.299E-05  -0.946E-07
 gam= 0.263 g(H,U,f)=  0.250E-05 0.494E-06 0.403E-19 ort(H,U,f) =-0.118E-05 0.109E-05 0.305E-19
 gam= 0.263 trial= 0.532  step=  0.5242 mean=  0.5325
 final diagonalization occupied
   6 F= -.67572575E+03 E0= -.67572575E+03  d E =-.352616E-01  mag=     0.0000
 trial-energy change:   -0.035262  1 .order   -0.035274   -0.054542   -0.016007
 step:   1.4633(harm=  1.4633)  dis= 0.03038  next Energy=  -675.729083 (dE=-0.386E-01)
 bond charge predicted
 wavefunctions rotated
 writing wavefunctions
       N       E                     dE             d eps       ncg     rms           ort
SDA:   1    -0.675350188286E+03    0.37556E+00    0.00000E+00  2524   0.853E+00   0.000E+00
 gam= 0.000 g(H,U,f)=  0.838E+00 0.153E-01 0.158E-14 ort(H,U,f) = 0.000E+00 0.000E+00 0.000E+00
 gam= 0.000 trial= 0.532  step=  0.7458 mean=  0.5316
CGA:   2    -0.675668396948E+03   -0.31821E+00   -0.31810E+00  2524   0.210E+00   0.650E-03
 gam= 0.246 g(H,U,f)=  0.200E+00 0.104E-01 0.333E-13 ort(H,U,f) = 0.114E-01-0.108E-01-0.177E-13
 gam= 0.246 trial= 0.553  step=  0.5145 mean=  0.5531
CGA:   3    -0.675722519894E+03   -0.54123E-01   -0.54118E-01  2524   0.227E-01  -0.123E-03
 gam= 0.108 g(H,U,f)=  0.216E-01 0.114E-02 0.612E-15 ort(H,U,f) =-0.195E-02 0.183E-02 0.168E-14
 gam= 0.108 trial= 0.549  step=  0.4535 mean=  0.5492
CGA:   4    -0.675727673216E+03   -0.51533E-02   -0.51530E-02  2524   0.441E-02  -0.170E-05
 gam= 0.194 g(H,U,f)=  0.410E-02 0.306E-03 0.740E-17 ort(H,U,f) =-0.570E-03 0.569E-03 0.622E-16
 gam= 0.194 trial= 0.540  step=  0.5005 mean=  0.5396
CGA:   5    -0.675728776083E+03   -0.11029E-02   -0.11031E-02  2524   0.745E-03   0.104E-04
 gam= 0.169 g(H,U,f)=  0.620E-03 0.125E-03 0.307E-17 ort(H,U,f) =-0.244E-03 0.254E-03 0.111E-16
 gam= 0.169 trial= 0.536  step=  0.5037 mean=  0.5357
CGA:   6    -0.675728964216E+03   -0.18813E-03   -0.18810E-03  2524   0.262E-03  -0.205E-05
 gam= 0.352 g(H,U,f)=  0.205E-03 0.575E-04 0.406E-17 ort(H,U,f) =-0.113E-03 0.111E-03 0.541E-17
 gam= 0.352 trial= 0.533  step=  0.4789 mean=  0.5325
CGA:   7    -0.675729026829E+03   -0.62613E-04   -0.62590E-04  2524   0.980E-04  -0.831E-06
 gam= 0.374 g(H,U,f)=  0.775E-04 0.205E-04 0.401E-18 ort(H,U,f) =-0.574E-04 0.566E-04 0.180E-17
 gam= 0.374 trial= 0.527  step=  0.5358 mean=  0.5272
CGA:   8    -0.675729053014E+03   -0.26186E-04   -0.26183E-04  2524   0.354E-04   0.593E-06
 gam= 0.361 g(H,U,f)=  0.295E-04 0.591E-05 0.201E-18 ort(H,U,f) =-0.176E-04 0.182E-04-0.749E-18
 gam= 0.361 trial= 0.528  step=  0.5410 mean=  0.5280
CGA:   9    -0.675729062642E+03   -0.96276E-05   -0.96260E-05  2524   0.120E-04   0.241E-06
 gam= 0.340 g(H,U,f)=  0.109E-04 0.110E-05 0.551E-19 ort(H,U,f) =-0.440E-05 0.464E-05-0.366E-19
 gam= 0.340 trial= 0.529  step=  0.4250 mean=  0.5293
 final diagonalization occupied
   7 F= -.67572906E+03 E0= -.67572906E+03  d E =-.385780E-01  mag=     0.0000
 curvature:  -0.98 expect dE=-0.126E-01 dE for cont linesearch -0.213E-05
 trial: gam= 0.26404 g(F)=  0.129E-01 g(S)=  0.000E+00 ort =-0.392E-03 (trialstep = 0.112E+01)
 search vector abs. value=  0.176E-01
 bond charge predicted
 wavefunctions rotated
 writing wavefunctions
       N       E                     dE             d eps       ncg     rms           ort
SDA:   1    -0.675082777335E+03    0.64628E+00    0.00000E+00  2524   0.152E+01   0.000E+00
 gam= 0.000 g(H,U,f)=  0.149E+01 0.339E-01 0.843E-14 ort(H,U,f) = 0.000E+00 0.000E+00 0.000E+00
 gam= 0.000 trial= 0.519  step=  0.7158 mean=  0.5189
CGA:   2    -0.675628531926E+03   -0.54575E+00   -0.54567E+00  2524   0.349E+00   0.571E-03
 gam= 0.229 g(H,U,f)=  0.324E+00 0.252E-01 0.718E-16 ort(H,U,f) = 0.259E-01-0.253E-01 0.251E-16
 gam= 0.229 trial= 0.539  step=  0.5583 mean=  0.5386
CGA:   3    -0.675726002624E+03   -0.97471E-01   -0.97474E-01  2524   0.358E-01  -0.175E-03
 gam= 0.103 g(H,U,f)=  0.336E-01 0.224E-02 0.176E-14 ort(H,U,f) =-0.426E-02 0.408E-02 0.714E-14
 gam= 0.103 trial= 0.541  step=  0.4674 mean=  0.5405
CGA:   4    -0.675734374036E+03   -0.83714E-02   -0.83716E-02  2524   0.749E-02   0.374E-05
 gam= 0.209 g(H,U,f)=  0.673E-02 0.765E-03 0.610E-17 ort(H,U,f) =-0.130E-02 0.130E-02 0.982E-16
 gam= 0.209 trial= 0.533  step=  0.5065 mean=  0.5332
CGA:   5    -0.675736271052E+03   -0.18970E-02   -0.18972E-02  2524   0.131E-02   0.120E-04
 gam= 0.174 g(H,U,f)=  0.106E-02 0.249E-03 0.108E-16 ort(H,U,f) =-0.553E-03 0.565E-03 0.306E-16
 gam= 0.174 trial= 0.531  step=  0.5577 mean=  0.5306
CGA:   6    -0.675736635686E+03   -0.36463E-03   -0.36467E-03  2524   0.373E-03  -0.275E-05
 gam= 0.285 g(H,U,f)=  0.271E-03 0.102E-03 0.117E-16 ort(H,U,f) =-0.217E-03 0.214E-03 0.155E-16
 gam= 0.285 trial= 0.533  step=  0.6030 mean=  0.5333
CGA:   7    -0.675736747809E+03   -0.11212E-03   -0.11210E-03  2524   0.141E-03   0.591E-06
 gam= 0.379 g(H,U,f)=  0.116E-03 0.251E-04 0.419E-18 ort(H,U,f) =-0.726E-04 0.732E-04-0.285E-17
 gam= 0.379 trial= 0.540  step=  0.5270 mean=  0.5402
CGA:   8    -0.675736785076E+03   -0.37267E-04   -0.37274E-04  2524   0.511E-04   0.104E-05
 gam= 0.362 g(H,U,f)=  0.445E-04 0.657E-05 0.824E-18 ort(H,U,f) =-0.203E-04 0.214E-04-0.921E-18
 gam= 0.362 trial= 0.539  step=  0.4567 mean=  0.5389
CGA:   9    -0.675736796817E+03   -0.11741E-04   -0.11748E-04  2524   0.144E-04   0.161E-06
 gam= 0.282 g(H,U,f)=  0.130E-04 0.141E-05 0.726E-20 ort(H,U,f) =-0.519E-05 0.535E-05-0.437E-19
 gam= 0.282 trial= 0.531  step=  0.4353 mean=  0.5307
CGA:  10    -0.675736799962E+03   -0.31445E-05   -0.31429E-05  2524   0.456E-05  -0.343E-07
 gam= 0.317 g(H,U,f)=  0.403E-05 0.533E-06 0.484E-20 ort(H,U,f) =-0.150E-05 0.147E-05-0.448E-20
 gam= 0.317 trial= 0.521  step=  0.4724 mean=  0.5212
 final diagonalization occupied
   8 F= -.67573680E+03 E0= -.67573680E+03  d E =-.773732E-02  mag=    -0.0000
 trial-energy change:   -0.007737  1 .order   -0.007665   -0.014328   -0.001001
 step:   1.2010(harm=  1.2039)  dis= 0.00906  next Energy=  -675.736836 (dE=-0.777E-02)
 bond charge predicted
 wavefunctions rotated
 writing wavefunctions
       N       E                     dE             d eps       ncg     rms           ort
SDA:   1    -0.675733395780E+03    0.34010E-02    0.00000E+00  2524   0.777E-02   0.000E+00
 gam= 0.000 g(H,U,f)=  0.759E-02 0.176E-03 0.871E-16 ort(H,U,f) = 0.000E+00 0.000E+00 0.000E+00
 gam= 0.000 trial= 0.516  step=  0.7309 mean=  0.5163
CGA:   2    -0.675736234575E+03   -0.28388E-02   -0.28388E-02  2524   0.191E-02  -0.264E-06
 gam= 0.245 g(H,U,f)=  0.178E-02 0.127E-03 0.115E-15 ort(H,U,f) = 0.129E-03-0.130E-03-0.118E-15
 gam= 0.245 trial= 0.538  step=  0.5511 mean=  0.5377
CGA:   3    -0.675736759938E+03   -0.52536E-03   -0.52537E-03  2524   0.329E-03  -0.575E-06
 gam= 0.173 g(H,U,f)=  0.313E-03 0.165E-04 0.424E-17 ort(H,U,f) =-0.275E-04 0.269E-04 0.150E-16
 gam= 0.173 trial= 0.539  step=  0.3642 mean=  0.5391
CGA:   4    -0.675736819827E+03   -0.59888E-04   -0.59974E-04  2524   0.663E-04   0.995E-06
 gam= 0.201 g(H,U,f)=  0.612E-04 0.512E-05 0.598E-19 ort(H,U,f) =-0.899E-05 0.999E-05 0.790E-18
 gam= 0.201 trial= 0.522  step=  0.5366 mean=  0.5216
CGA:   5    -0.675736837674E+03   -0.17848E-04   -0.17846E-04  2524   0.150E-04   0.253E-06
 gam= 0.226 g(H,U,f)=  0.134E-04 0.161E-05 0.209E-19 ort(H,U,f) =-0.332E-05 0.357E-05-0.128E-18
 gam= 0.226 trial= 0.523  step=  0.4920 mean=  0.5231
CGA:   6    -0.675736841379E+03   -0.37041E-05   -0.37073E-05  2524   0.385E-05   0.204E-06
 gam= 0.256 g(H,U,f)=  0.325E-05 0.600E-06 0.347E-19 ort(H,U,f) =-0.121E-05 0.141E-05 0.106E-19
 gam= 0.256 trial= 0.520  step=  0.5259 mean=  0.5200
 final diagonalization occupied
   9 F= -.67573684E+03 E0= -.67573684E+03  d E =-.777874E-02  mag=    -0.0000
 curvature:  -0.83 expect dE=-0.315E-02 dE for cont linesearch -0.153E-05
 trial: gam= 0.28499 g(F)=  0.381E-02 g(S)=  0.000E+00 ort = 0.181E-03 (trialstep = 0.114E+01)
 search vector abs. value=  0.534E-02
 bond charge predicted
 wavefunctions rotated
 writing wavefunctions
       N       E                     dE             d eps       ncg     rms           ort
SDA:   1    -0.675556446798E+03    0.18039E+00    0.00000E+00  2524   0.378E+00   0.000E+00
 gam= 0.000 g(H,U,f)=  0.370E+00 0.739E-02 0.881E-14 ort(H,U,f) = 0.000E+00 0.000E+00 0.000E+00
 gam= 0.000 trial= 0.521  step=  0.8558 mean=  0.5206
CGA:   2    -0.675718109273E+03   -0.16166E+00   -0.16166E+00  2524   0.757E-01   0.309E-04
 gam= 0.200 g(H,U,f)=  0.674E-01 0.832E-02 0.275E-16 ort(H,U,f) = 0.734E-02-0.731E-02-0.159E-17
 gam= 0.200 trial= 0.554  step=  0.5277 mean=  0.5541
CGA:   3    -0.675738091088E+03   -0.19982E-01   -0.19982E-01  2524   0.552E-02   0.221E-04
 gam= 0.073 g(H,U,f)=  0.529E-02 0.226E-03 0.145E-15 ort(H,U,f) =-0.355E-03 0.377E-03 0.212E-14
 gam= 0.073 trial= 0.551  step=  0.5089 mean=  0.5515
CGA:   4    -0.675739496038E+03   -0.14050E-02   -0.14048E-02  2524   0.132E-02  -0.864E-05
 gam= 0.240 g(H,U,f)=  0.124E-02 0.822E-04 0.112E-16 ort(H,U,f) =-0.123E-03 0.114E-03 0.719E-16
 gam= 0.240 trial= 0.547  step=  0.4480 mean=  0.5472
CGA:   5    -0.675739791774E+03   -0.29574E-03   -0.29609E-03  2524   0.234E-03   0.708E-05
 gam= 0.176 g(H,U,f)=  0.202E-03 0.319E-04 0.162E-16 ort(H,U,f) =-0.576E-04 0.647E-04 0.326E-16
 gam= 0.176 trial= 0.537  step=  0.5214 mean=  0.5373
CGA:   6    -0.675739853020E+03   -0.61246E-04   -0.61239E-04  2524   0.724E-04  -0.923E-06
 gam= 0.310 g(H,U,f)=  0.584E-04 0.140E-04 0.194E-17 ort(H,U,f) =-0.274E-04 0.265E-04 0.734E-17
 gam= 0.310 trial= 0.536  step=  0.5002 mean=  0.5357
CGA:   7    -0.675739871079E+03   -0.18059E-04   -0.18044E-04  2524   0.270E-04  -0.862E-06
 gam= 0.373 g(H,U,f)=  0.215E-04 0.555E-05 0.588E-19 ort(H,U,f) =-0.143E-04 0.135E-04-0.722E-18
 gam= 0.373 trial= 0.532  step=  0.5176 mean=  0.5321
CGA:   8    -0.675739877985E+03   -0.69060E-05   -0.69101E-05  2524   0.947E-05   0.561E-06
 gam= 0.350 g(H,U,f)=  0.788E-05 0.159E-05 0.194E-18 ort(H,U,f) =-0.461E-05 0.517E-05-0.383E-18
 gam= 0.350 trial= 0.531  step=  0.5297 mean=  0.5307
 final diagonalization occupied
  10 F= -.67573988E+03 E0= -.67573988E+03  d E =-.303661E-02  mag=    -0.0000
 trial-energy change:   -0.003037  1 .order   -0.003034   -0.004385   -0.001682
 step:   1.8432(harm=  1.8432)  dis= 0.00575  next Energy=  -675.740399 (dE=-0.356E-02)
 bond charge predicted
 wavefunctions rotated
 writing wavefunctions
       N       E                     dE             d eps       ncg     rms           ort
SDA:   1    -0.675669312449E+03    0.70559E-01    0.00000E+00  2524   0.146E+00   0.000E+00
 gam= 0.000 g(H,U,f)=  0.144E+00 0.286E-02 0.598E-14 ort(H,U,f) = 0.000E+00 0.000E+00 0.000E+00
 gam= 0.000 trial= 0.531  step=  0.8549 mean=  0.5306
CGA:   2    -0.675731888670E+03   -0.62576E-01   -0.62574E-01  2524   0.294E-01   0.988E-05
 gam= 0.201 g(H,U,f)=  0.263E-01 0.319E-02 0.870E-13 ort(H,U,f) = 0.282E-02-0.281E-02-0.651E-13
 gam= 0.201 trial= 0.563  step=  0.5323 mean=  0.5630
CGA:   3    -0.675739725893E+03   -0.78372E-02   -0.78374E-02  2524   0.232E-02   0.100E-04
 gam= 0.079 g(H,U,f)=  0.223E-02 0.869E-04 0.619E-16 ort(H,U,f) =-0.138E-03 0.148E-03 0.942E-15
 gam= 0.079 trial= 0.560  step=  0.5014 mean=  0.5600
CGA:   4    -0.675740307237E+03   -0.58134E-03   -0.58127E-03  2524   0.572E-03  -0.240E-05
 gam= 0.247 g(H,U,f)=  0.541E-03 0.308E-04 0.383E-17 ort(H,U,f) =-0.472E-04 0.448E-04 0.309E-16
 gam= 0.247 trial= 0.554  step=  0.4476 mean=  0.5541
CGA:   5    -0.675740434907E+03   -0.12767E-03   -0.12780E-03  2524   0.118E-03   0.243E-05
 gam= 0.206 g(H,U,f)=  0.106E-03 0.122E-04 0.662E-17 ort(H,U,f) =-0.228E-04 0.253E-04 0.146E-16
 gam= 0.206 trial= 0.543  step=  0.4370 mean=  0.5434
CGA:   6    -0.675740460753E+03   -0.25846E-04   -0.25843E-04  2524   0.388E-04  -0.503E-07
 gam= 0.330 g(H,U,f)=  0.329E-04 0.595E-05 0.167E-17 ort(H,U,f) =-0.117E-04 0.116E-04 0.476E-17
 gam= 0.330 trial= 0.533  step=  0.4622 mean=  0.5328
CGA:   7    -0.675740469743E+03   -0.89904E-05   -0.89695E-05  2524   0.129E-04  -0.591E-06
 gam= 0.332 g(H,U,f)=  0.102E-04 0.266E-05 0.471E-21 ort(H,U,f) =-0.681E-05 0.621E-05 0.539E-20
 gam= 0.332 trial= 0.526  step=  0.5251 mean=  0.5257
 final diagonalization occupied
  11 F= -.67574047E+03 E0= -.67574047E+03  d E =-.362836E-02  mag=    -0.0000
 curvature:  -1.28 expect dE=-0.246E-02 dE for cont linesearch -0.333E-05
 trial: gam= 0.47972 g(F)=  0.193E-02 g(S)=  0.000E+00 ort = 0.118E-03 (trialstep = 0.128E+01)
 search vector abs. value=  0.327E-02
 bond charge predicted
 wavefunctions rotated
 writing wavefunctions
       N       E                     dE             d eps       ncg     rms           ort
SDA:   1    -0.675592207348E+03    0.14825E+00    0.00000E+00  2524   0.319E+00   0.000E+00
 gam= 0.000 g(H,U,f)=  0.314E+00 0.526E-02 0.172E-13 ort(H,U,f) = 0.000E+00 0.000E+00 0.000E+00
 gam= 0.000 trial= 0.526  step=  0.8156 mean=  0.5257
CGA:   2    -0.675722376067E+03   -0.13017E+00   -0.13017E+00  2524   0.652E-01  -0.155E-06
 gam= 0.204 g(H,U,f)=  0.580E-01 0.715E-02 0.172E-17 ort(H,U,f) = 0.520E-02-0.520E-02-0.360E-17
 gam= 0.204 trial= 0.555  step=  0.5471 mean=  0.5547
CGA:   3    -0.675740198871E+03   -0.17823E-01   -0.17823E-01  2524   0.565E-02   0.107E-04
 gam= 0.087 g(H,U,f)=  0.540E-02 0.244E-03 0.880E-16 ort(H,U,f) =-0.490E-03 0.500E-03 0.180E-14
 gam= 0.087 trial= 0.554  step=  0.4851 mean=  0.5539
CGA:   4    -0.675741568721E+03   -0.13699E-02   -0.13698E-02  2524   0.137E-02  -0.282E-05
 gam= 0.243 g(H,U,f)=  0.127E-02 0.105E-03 0.536E-17 ort(H,U,f) =-0.158E-03 0.155E-03 0.515E-16
 gam= 0.243 trial= 0.547  step=  0.4665 mean=  0.5470
CGA:   5    -0.675741888663E+03   -0.31994E-03   -0.32001E-03  2524   0.233E-03   0.161E-05
 gam= 0.169 g(H,U,f)=  0.194E-03 0.386E-04 0.246E-16 ort(H,U,f) =-0.807E-04 0.823E-04 0.365E-16
 gam= 0.169 trial= 0.539  step=  0.5691 mean=  0.5390
CGA:   6    -0.675741954951E+03   -0.66289E-04   -0.66285E-04  2524   0.696E-04   0.274E-06
 gam= 0.299 g(H,U,f)=  0.540E-04 0.156E-04 0.191E-17 ort(H,U,f) =-0.322E-04 0.324E-04 0.817E-17
 gam= 0.299 trial= 0.542  step=  0.5541 mean=  0.5420
CGA:   7    -0.675741974245E+03   -0.19294E-04   -0.19294E-04  2524   0.261E-04  -0.907E-07
 gam= 0.375 g(H,U,f)=  0.210E-04 0.504E-05 0.465E-19 ort(H,U,f) =-0.136E-04 0.135E-04-0.665E-18
 gam= 0.375 trial= 0.543  step=  0.5199 mean=  0.5432
CGA:   8    -0.675741981008E+03   -0.67632E-05   -0.67648E-05  2524   0.956E-05   0.139E-06
 gam= 0.367 g(H,U,f)=  0.824E-05 0.132E-05 0.111E-18 ort(H,U,f) =-0.443E-05 0.457E-05-0.312E-18
 gam= 0.367 trial= 0.541  step=  0.4973 mean=  0.5409
 final diagonalization occupied
  12 F= -.67574198E+03 E0= -.67574198E+03  d E =-.151126E-02  mag=    -0.0000
 trial-energy change:   -0.001511  1 .order   -0.001460   -0.002540   -0.000379
 step:   1.4697(harm=  1.5015)  dis= 0.00306  next Energy=  -675.742010 (dE=-0.154E-02)
 reached required accuracy - stopping structural energy minimisation
 writing wavefunctions
