       N       E                     dE             d eps       ncg     rms          rms(c)
DAV:   1     0.233510401749E+04    0.23351E+04   -0.12261E+05  1136   0.750E+02
DAV:   2     0.341526029758E+02   -0.23010E+04   -0.22270E+04  1392   0.198E+02
DAV:   3    -0.174557343935E+03   -0.20871E+03   -0.20754E+03  1344   0.669E+01
DAV:   4    -0.178025543054E+03   -0.34682E+01   -0.34597E+01  1328   0.100E+01
DAV:   5    -0.178104823876E+03   -0.79281E-01   -0.79231E-01  1312   0.139E+00    0.250E+01
DAV:   6    -0.171826043508E+03    0.62788E+01   -0.30911E+01  1248   0.675E+00    0.138E+01
DAV:   7    -0.174766876181E+03   -0.29408E+01   -0.61486E+00  1328   0.338E+00    0.956E+00
DAV:   8    -0.177169556439E+03   -0.24027E+01   -0.15726E+00  1296   0.178E+00    0.529E+00
DAV:   9    -0.178605427822E+03   -0.14359E+01   -0.12937E+00  1264   0.144E+00    0.141E+00
DAV:  10    -0.178727742964E+03   -0.12232E+00   -0.15522E-01  1280   0.534E-01    0.996E-01
DAV:  11    -0.178749154542E+03   -0.21412E-01   -0.46385E-02  1384   0.255E-01    0.734E-01
DAV:  12    -0.178764031569E+03   -0.14877E-01   -0.11473E-02  1280   0.168E-01    0.412E-01
DAV:  13    -0.178776519187E+03   -0.12488E-01   -0.12929E-02  1264   0.155E-01    0.232E-01
DAV:  14    -0.178777171210E+03   -0.65202E-03   -0.25886E-03  1352   0.724E-02    0.102E-01
DAV:  15    -0.178777328118E+03   -0.15691E-03   -0.58223E-04  1264   0.354E-02    0.671E-02
DAV:  16    -0.178777393533E+03   -0.65415E-04   -0.17737E-04  1160   0.197E-02    0.415E-02
DAV:  17    -0.178777433619E+03   -0.40085E-04   -0.73231E-05  1056   0.116E-02    0.286E-02
DAV:  18    -0.178777448041E+03   -0.14422E-04   -0.25292E-05   936   0.775E-03    0.209E-02
DAV:  19    -0.178777462573E+03   -0.14532E-04   -0.17037E-05   912   0.639E-03    0.158E-02
DAV:  20    -0.178777471418E+03   -0.88448E-05   -0.15667E-05   896   0.568E-03
   1 F= -.17877747E+03 E0= -.17871268E+03  d E =-.178777E+03  mag=     0.4223
       N       E                     dE             d eps       ncg     rms          rms(c)
DAV:   1    -0.178831751986E+03   -0.54289E-01   -0.67593E+00  1136   0.323E+00    0.975E-01
DAV:   2    -0.178853553509E+03   -0.21802E-01   -0.24077E-01  1224   0.618E-01    0.448E-01
DAV:   3    -0.178852653947E+03    0.89956E-03   -0.26626E-03  1352   0.843E-02    0.297E-01
DAV:   4    -0.178852406237E+03    0.24771E-03   -0.43309E-04  1344   0.351E-02    0.241E-01
DAV:   5    -0.178851958541E+03    0.44770E-03   -0.24746E-03  1312   0.720E-02    0.132E-01
DAV:   6    -0.178851995355E+03   -0.36814E-04   -0.40573E-04  1280   0.271E-02    0.614E-02
DAV:   7    -0.178852003703E+03   -0.83476E-05   -0.23169E-05  1016   0.107E-02
   2 F= -.17885200E+03 E0= -.17878661E+03  d E =-.745323E-01  mag=     0.3293
       N       E                     dE             d eps       ncg     rms          rms(c)
DAV:   1    -0.178834133096E+03    0.17862E-01   -0.60714E+01  1120   0.959E+00    0.306E+00
DAV:   2    -0.179038968489E+03   -0.20484E+00   -0.22647E+00  1216   0.188E+00    0.140E+00
DAV:   3    -0.179030257170E+03    0.87113E-02   -0.24879E-02  1360   0.262E-01    0.929E-01
DAV:   4    -0.179027865868E+03    0.23913E-02   -0.43153E-03  1328   0.110E-01    0.747E-01
DAV:   5    -0.179024159658E+03    0.37062E-02   -0.14801E-02  1312   0.179E-01    0.423E-01
DAV:   6    -0.179024404670E+03   -0.24501E-03   -0.27092E-03  1320   0.708E-02    0.204E-01
DAV:   7    -0.179024427629E+03   -0.22958E-04   -0.23910E-04  1240   0.347E-02    0.118E-01
DAV:   8    -0.179024441380E+03   -0.13752E-04   -0.21377E-04  1344   0.332E-02    0.491E-02
DAV:   9    -0.179024450548E+03   -0.91675E-05   -0.10980E-04  1312   0.187E-02    0.238E-02
DAV:  10    -0.179024460827E+03   -0.10279E-04   -0.25166E-05  1000   0.758E-03    0.173E-02
DAV:  11    -0.179024469523E+03   -0.86963E-05   -0.65730E-06   768   0.483E-03
   3 F= -.17902447E+03 E0= -.17895996E+03  d E =-.246998E+00  mag=     0.0439
       N       E                     dE             d eps       ncg     rms          rms(c)
DAV:   1    -0.178309399726E+03    0.71506E+00   -0.24103E+02  1120   0.192E+01    0.725E+00
DAV:   2    -0.179233306217E+03   -0.92391E+00   -0.10238E+01  1240   0.396E+00    0.313E+00
DAV:   3    -0.179194744245E+03    0.38562E-01   -0.11708E-01  1360   0.588E-01    0.211E+00
DAV:   4    -0.179177661998E+03    0.17082E-01   -0.38089E-02  1360   0.288E-01    0.148E+00
DAV:   5    -0.179172498666E+03    0.51633E-02   -0.12049E-02  1328   0.173E-01    0.920E-01
DAV:   6    -0.179170327471E+03    0.21712E-02   -0.63936E-03  1360   0.147E-01    0.383E-01
DAV:   7    -0.179170379025E+03   -0.51554E-04   -0.22007E-03  1304   0.816E-02    0.123E-01
DAV:   8    -0.179170405406E+03   -0.26381E-04   -0.50521E-04  1344   0.410E-02    0.357E-02
DAV:   9    -0.179170446176E+03   -0.40770E-04   -0.12884E-04  1320   0.170E-02    0.464E-02
DAV:  10    -0.179170459251E+03   -0.13075E-04   -0.13393E-05   968   0.671E-03    0.244E-02
DAV:  11    -0.179170466488E+03   -0.72368E-05   -0.12657E-05   960   0.608E-03
   4 F= -.17917047E+03 E0= -.17911110E+03  d E =-.392995E+00  mag=    -0.0000
       N       E                     dE             d eps       ncg     rms          rms(c)
DAV:   1    -0.179172644613E+03   -0.21854E-02   -0.99010E+00  1160   0.428E+00    0.102E+00
DAV:   2    -0.179204619109E+03   -0.31974E-01   -0.35942E-01  1232   0.845E-01    0.490E-01
DAV:   3    -0.179203597377E+03    0.10217E-02   -0.31734E-03  1368   0.981E-02    0.320E-01
DAV:   4    -0.179202869164E+03    0.72821E-03   -0.20594E-03  1328   0.776E-02    0.177E-01
DAV:   5    -0.179202882482E+03   -0.13317E-04   -0.54650E-04  1376   0.345E-02    0.834E-02
DAV:   6    -0.179202874652E+03    0.78298E-05   -0.10716E-04  1152   0.208E-02    0.393E-02
DAV:   7    -0.179202869947E+03    0.47048E-05   -0.25831E-05  1088   0.108E-02
   5 F= -.17920287E+03 E0= -.17914362E+03  d E =-.324035E-01  mag=     0.0000
       N       E                     dE             d eps       ncg     rms          rms(c)
DAV:   1    -0.179135700210E+03    0.67174E-01   -0.30933E+01  1120   0.755E+00    0.180E+00
DAV:   2    -0.179236699111E+03   -0.10100E+00   -0.11355E+00  1232   0.149E+00    0.872E-01
DAV:   3    -0.179233510883E+03    0.31882E-02   -0.10123E-02  1360   0.174E-01    0.572E-01
DAV:   4    -0.179231249689E+03    0.22612E-02   -0.60166E-03  1344   0.132E-01    0.323E-01
DAV:   5    -0.179231246698E+03    0.29913E-05   -0.16637E-03  1360   0.604E-02    0.151E-01
DAV:   6    -0.179231210142E+03    0.36555E-04   -0.30654E-04  1248   0.361E-02    0.684E-02
DAV:   7    -0.179231200542E+03    0.96002E-05   -0.85113E-05  1344   0.194E-02
   6 F= -.17923120E+03 E0= -.17917190E+03  d E =-.607341E-01  mag=     0.0000
       N       E                     dE             d eps       ncg     rms          rms(c)
DAV:   1    -0.179226024911E+03    0.51852E-02   -0.19934E+00  1152   0.191E+00    0.447E-01
DAV:   2    -0.179232460329E+03   -0.64354E-02   -0.72741E-02  1248   0.378E-01    0.224E-01
DAV:   3    -0.179232268877E+03    0.19145E-03   -0.65385E-04  1360   0.437E-02    0.147E-01
DAV:   4    -0.179232131877E+03    0.13700E-03   -0.31456E-04  1376   0.303E-02    0.884E-02
DAV:   5    -0.179232123224E+03    0.86529E-05   -0.11135E-04  1344   0.160E-02    0.406E-02
DAV:   6    -0.179232121114E+03    0.21093E-05   -0.16394E-05  1008   0.902E-03
   7 F= -.17923212E+03 E0= -.17917276E+03  d E =-.616546E-01  mag=     0.0000
       N       E                     dE             d eps       ncg     rms          rms(c)
DAV:   1    -0.179229299956E+03    0.28233E-02   -0.23172E+00  1152   0.206E+00    0.530E-01
DAV:   2    -0.179236880237E+03   -0.75803E-02   -0.85101E-02  1232   0.408E-01    0.249E-01
DAV:   3    -0.179236642801E+03    0.23744E-03   -0.77663E-04  1360   0.470E-02    0.161E-01
DAV:   4    -0.179236490423E+03    0.15238E-03   -0.35366E-04  1360   0.300E-02    0.986E-02
DAV:   5    -0.179236480439E+03    0.99841E-05   -0.10644E-04  1312   0.149E-02    0.458E-02
DAV:   6    -0.179236479377E+03    0.10623E-05   -0.32049E-05  1072   0.991E-03
   8 F= -.17923648E+03 E0= -.17917749E+03  d E =-.435826E-02  mag=     0.0000
       N       E                     dE             d eps       ncg     rms          rms(c)
DAV:   1    -0.179233145921E+03    0.33345E-02   -0.16843E+00  1144   0.175E+00    0.451E-01
DAV:   2    -0.179238668998E+03   -0.55231E-02   -0.61950E-02  1232   0.348E-01    0.214E-01
DAV:   3    -0.179238495554E+03    0.17344E-03   -0.56737E-04  1352   0.404E-02    0.140E-01
DAV:   4    -0.179238378781E+03    0.11677E-03   -0.29296E-04  1360   0.274E-02    0.834E-02
DAV:   5    -0.179238373762E+03    0.50193E-05   -0.83196E-05  1280   0.132E-02
   9 F= -.17923837E+03 E0= -.17917969E+03  d E =-.625265E-02  mag=     0.0000
