 vasp.6.5.1 10Mar25 (build May 13 2025 11:33:44) complex                         
 executed on              LinuxNV date 2026.05.13  15:16:29
 running    2 mpi-ranks, on    1 nodes
 distrk:  each k-point on    2 cores,    1 groups
 distr:  one band on NCORE=   1 cores,    2 groups
 Offloading initialized ...    2 GPUs detected


--------------------------------------------------------------------------------------------------------


 INCAR:
   ALGO = Normal
   PREC = Normal
   LREAL = Auto
   EDIFF = 1e-05
   ENCUT = 262.472
   LASPH = True
   NELM = 100
   ISIF = 2
   IBRION = 2
   EDIFFG = -0.03
   NSW = 300
   ISMEAR = 0
   SIGMA = 0.1
   ISPIN = 2
   LWAVE = False
   LCHARG = False
   LORBIT = 10
   GGA = Ps
   KPAR = 1

 POTCAR:    PAW_PBE Cs_sv 08Apr2002               
 POTCAR:    PAW_PBE Cl 06Sep2000                  
 -----------------------------------------------------------------------------
|                                                                             |
|           W    W    AA    RRRRR   N    N  II  N    N   GGGG   !!!           |
|           W    W   A  A   R    R  NN   N  II  NN   N  G    G  !!!           |
|           W    W  A    A  R    R  N N  N  II  N N  N  G       !!!           |
|           W WW W  AAAAAA  RRRRR   N  N N  II  N  N N  G  GGG   !            |
|           WW  WW  A    A  R   R   N   NN  II  N   NN  G    G                |
|           W    W  A    A  R    R  N    N  II  N    N   GGGG   !!!           |
|                                                                             |
|     You requested a magnetic or noncollinear calculation, but did not       |
|     specify the initial magnetic moment with the MAGMOM tag. Note that      |
|     a default of 1 will be used for all atoms. This ferromagnetic setup     |
|     may break the symmetry of the crystal, in particular it may rule        |
|     out finding an antiferromagnetic solution. Thence, we recommend         |
|     setting the initial magnetic moment manually or verifying carefully     |
|     that this magnetic setup is desired.                                    |
|                                                                             |
 -----------------------------------------------------------------------------

 POTCAR:    PAW_PBE Cs_sv 08Apr2002               
   SHA256 =  c1463496f0f6037ed62c6012a8013a89ee9ad6ffb38599dcd6c079e7ed31779b Cs_sv/POTCAR          
   COPYR  = (c) Copyright 08Apr2002 Georg Kresse                                                    
   COPYR  = This file is part of the software VASP. Any use, copying, and all other rights are regul
   COPYR  = If you do not have a valid VASP license, you may not use, copy or distribute this file. 
   VRHFIN =Cs: 5s5p6s                                                                               
   LEXCH  = PE                                                                                      
   EATOM  =   555.6835 eV,   40.8416 Ry                                                             
                                                                                                    
   TITEL  = PAW_PBE Cs_sv 08Apr2002                                                                 
   LULTRA =        F    use ultrasoft PP ?                                                          
   IUNSCR =        1    unscreen: 0-lin 1-nonlin 2-no                                               
   RPACOR =    2.200    partial core radius                                                         
   POMASS =  132.900; ZVAL   =    9.000    mass and valenz                                          
   RCORE  =    2.500    outmost cutoff radius                                                       
   RWIGS  =    2.500; RWIGS  =    1.323    wigner-seitz radius (au A)                               
   ENMAX  =  220.318; ENMIN  =  165.238 eV                                                          
   RCLOC  =    2.207    cutoff for local pot                                                        
   LCOR   =        T    correct aug charges                                                         
   LPAW   =        T    paw PP                                                                      
   EAUG   =  407.933                                                                                
   DEXC   =    0.000                                                                                
   RMAX   =    2.554    core radius for proj-oper                                                   
   RAUG   =    1.300    factor for augmentation sphere                                              
   RDEP   =    2.590    radius for radial grids                                                     
   RDEPT  =    2.117    core radius for aug-charge                                                  
                                                                                                    
   Atomic configuration                                                                             
   13 entries                                                                                       
     n  l   j            E        occ.                                                              
     1  0  0.50    -35790.1377   2.0000                                                             
     2  0  0.50     -5613.6201   2.0000                                                             
     2  1  1.50     -5035.0101   6.0000                                                             
     3  0  0.50     -1167.0767   2.0000                                                             
     3  1  1.50      -980.9754   6.0000                                                             
     3  2  2.50      -708.0703  10.0000                                                             
     4  0  0.50      -220.2386   2.0000                                                             
     4  1  1.50      -160.7596   6.0000                                                             
     4  2  2.50       -74.2354  10.0000                                                             
     5  0  0.50       -26.7287   2.0000                                                             
     6  0  0.50        -2.0862   1.0000                                                             
     5  1  1.50       -13.5159   6.0000                                                             
     5  2  2.50        -0.4136   0.0000                                                             
   Description                                                                                      
     l       E           TYP  RCUT    TYP  RCUT                                                     
     0    -26.7287425     23  1.900                                                                 
     0     -2.0862306     23  1.900                                                                 
     1    -13.5158719     23  2.500                                                                 
     1     -2.7211652     23  2.500                                                                 
     2     -0.4136171     23  2.500                                                                 
  local pseudopotential read in
  partial core-charges read in
  partial kinetic energy density read in
  atomic valenz-charges read in
  non local Contribution for L=            0  read in
    real space projection operators read in
  non local Contribution for L=            0  read in
    real space projection operators read in
  non local Contribution for L=            1  read in
    real space projection operators read in
  non local Contribution for L=            1  read in
    real space projection operators read in
  non local Contribution for L=            2  read in
    real space projection operators read in
    PAW grid and wavefunctions read in
 
   number of l-projection  operators is LMAX  =            5
   number of lm-projection operators is LMMAX =           13
 
 POTCAR:    PAW_PBE Cl 06Sep2000                  
   SHA256 =  9f1b6e6ed4247ac726a768b330d26d7667cc3c95a39ff49c1d064c2d9dcce931 Cl/POTCAR             
   COPYR  = (c) Copyright 06Sep2000 Georg Kresse                                                    
   COPYR  = This file is part of the software VASP. Any use, copying, and all other rights are regul
   COPYR  = If you do not have a valid VASP license, you may not use, copy or distribute this file. 
   VRHFIN =Cl: s2p5                                                                                 
   LEXCH  = PE                                                                                      
   EATOM  =   409.7259 eV,   30.1140 Ry                                                             
                                                                                                    
   TITEL  = PAW_PBE Cl 06Sep2000                                                                    
   LULTRA =        F    use ultrasoft PP ?                                                          
   IUNSCR =        1    unscreen: 0-lin 1-nonlin 2-no                                               
   RPACOR =    1.500    partial core radius                                                         
   POMASS =   35.453; ZVAL   =    7.000    mass and valenz                                          
   RCORE  =    1.900    outmost cutoff radius                                                       
   RWIGS  =    2.100; RWIGS  =    1.111    wigner-seitz radius (au A)                               
   ENMAX  =  262.472; ENMIN  =  196.854 eV                                                          
   ICORE  =        2    local potential                                                             
   LCOR   =        T    correct aug charges                                                         
   LPAW   =        T    paw PP                                                                      
   EAUG   =  356.192                                                                                
   DEXC   =    0.000                                                                                
   RMAX   =    1.945    core radius for proj-oper                                                   
   RAUG   =    1.300    factor for augmentation sphere                                              
   RDEP   =    2.020    radius for radial grids                                                     
   RDEPT  =    1.678    core radius for aug-charge                                                  
                                                                                                    
   Atomic configuration                                                                             
    6 entries                                                                                       
     n  l   j            E        occ.                                                              
     1  0  0.50     -2751.1850   2.0000                                                             
     2  0  0.50      -252.6861   2.0000                                                             
     2  1  1.50      -191.6157   6.0000                                                             
     3  0  0.50       -20.6916   2.0000                                                             
     3  1  0.50        -8.5949   5.0000                                                             
     3  2  1.50        -8.1635   0.0000                                                             
   Description                                                                                      
     l       E           TYP  RCUT    TYP  RCUT                                                     
     0    -20.6915656     23  1.900                                                                 
     0    -22.0521482     23  1.900                                                                 
     1     -8.5948577     23  1.900                                                                 
     1     -5.3847331     23  1.900                                                                 
     2     -8.1634956     23  1.900                                                                 
  local pseudopotential read in
  partial core-charges read in
  partial kinetic energy density read in
  atomic valenz-charges read in
  non local Contribution for L=            0  read in
    real space projection operators read in
  non local Contribution for L=            0  read in
    real space projection operators read in
  non local Contribution for L=            1  read in
    real space projection operators read in
  non local Contribution for L=            1  read in
    real space projection operators read in
    PAW grid and wavefunctions read in
 
   number of l-projection  operators is LMAX  =            4
   number of lm-projection operators is LMMAX =            8
 
 Optimization of the real space projectors (new method)

 maximal supplied QI-value         = 15.12
 optimisation between [QCUT,QGAM] = [  8.16, 16.48] = [ 18.66, 76.04] Ry 
 Optimized for a Real-space Cutoff    1.70 Angstroem

   l    n(q)    QCUT    max X(q) W(low)/X(q) W(high)/X(q)  e(spline) 
   0      8     8.164    25.322    0.15E-03    0.18E-03    0.41E-06
   0      8     8.164    99.187    0.15E-03    0.17E-03    0.40E-06
   1      8     8.164    11.761    0.31E-03    0.25E-03    0.22E-06
   1      8     8.164     8.275    0.36E-03    0.24E-03    0.25E-06
   2      7     8.164     3.829    0.38E-03    0.57E-03    0.14E-06
 Optimization of the real space projectors (new method)

 maximal supplied QI-value         = 19.84
 optimisation between [QCUT,QGAM] = [  8.14, 16.47] = [ 18.53, 75.95] Ry 
 Optimized for a Real-space Cutoff    1.51 Angstroem

   l    n(q)    QCUT    max X(q) W(low)/X(q) W(high)/X(q)  e(spline) 
   0      7     8.135   168.010    0.81E-04    0.25E-03    0.15E-06
   0      7     8.135   164.674    0.79E-04    0.25E-03    0.14E-06
   1      7     8.135    69.222    0.47E-03    0.95E-03    0.99E-07
   1      7     8.135    56.786    0.47E-03    0.93E-03    0.97E-07
 -----------------------------------------------------------------------------
|                                                                             |
|               ----> ADVICE to this user running VASP <----                  |
|                                                                             |
|     You enforced a specific xc type in the INCAR file but a different       |
|     type was found in the POTCAR file.                                      |
|     I HOPE YOU KNOW WHAT YOU ARE DOING!                                     |
|                                                                             |
 -----------------------------------------------------------------------------

  PAW_PBE Cs_sv 08Apr2002               :
 energy of atom  1       EATOM= -555.6835
 kinetic energy error for atom=    0.0137 (will be added to EATOM!!)
  PAW_PBE Cl 06Sep2000                  :
 energy of atom  2       EATOM= -409.7259
 kinetic energy error for atom=    0.0483 (will be added to EATOM!!)
 
 
 POSCAR: Cs26 Cl27
  positions in direct lattice
  No initial velocities read in


 exchange-correlation table for PS
   RHO(1)=    0.500       N(1)  =     2000
   RHO(2)=  100.500       N(2)  =     4000
 


--------------------------------------------------------------------------------------------------------


 ion  position               nearest neighbor table
   1  0.995  0.997  0.336-
   2  0.999  0.999  0.665-
   3  0.998  0.338  0.001-
   4  0.000  0.333  0.333-
   5  0.000  0.333  0.667-
   6  0.991  0.656  0.999-
   7  0.000  0.667  0.333-
   8  0.000  0.667  0.667-
   9  0.344  0.001  0.001-
  10  0.333  0.000  0.333-
  11  0.333  0.000  0.667-
  12  0.333  0.333  0.000-
  13  0.333  0.333  0.333-
  14  0.333  0.333  0.667-
  15  0.333  0.667  0.000-
  16  0.333  0.667  0.333-
  17  0.333  0.667  0.667-
  18  0.678  1.000  0.998-
  19  0.667  0.000  0.333-
  20  0.667  0.000  0.667-
  21  0.667  0.333  0.000-
  22  0.667  0.333  0.333-
  23  0.667  0.333  0.667-
  24  0.667  0.667  0.000-
  25  0.667  0.667  0.333-
  26  0.667  0.667  0.667-
  27  0.167  0.166  0.169-
  28  0.167  0.167  0.500-
  29  0.165  0.172  0.834-
  30  0.167  0.500  0.167-
  31  0.167  0.500  0.500-
  32  0.167  0.500  0.833-
  33  0.170  0.834  0.164-
  34  0.167  0.833  0.500-
  35  0.171  0.830  0.832-
  36  0.500  0.167  0.167-
  37  0.500  0.167  0.500-
  38  0.500  0.167  0.833-
  39  0.500  0.500  0.167-
  40  0.500  0.500  0.500-
  41  0.500  0.500  0.833-
  42  0.500  0.833  0.167-
  43  0.500  0.833  0.500-
  44  0.500  0.833  0.833-
  45  0.825  0.159  0.163-
  46  0.833  0.167  0.500-
  47  0.831  0.166  0.835-
  48  0.833  0.500  0.167-
  49  0.833  0.500  0.500-
  50  0.833  0.500  0.833-
  51  0.829  0.828  0.162-
  52  0.833  0.833  0.500-
  53  0.826  0.841  0.845-
 
  LATTYP: Found a simple cubic cell.
 ALAT       =    12.2263459172
  
  Lattice vectors:
  
 A1 = (  12.2263459172,   0.0000000000,   0.0000000000)
 A2 = (   0.0000000000,  12.2263459172,   0.0000000000)
 A3 = (   0.0000000000,   0.0000000000,  12.2263459172)


Analysis of symmetry for initial positions (statically):
=====================================================================
 Subroutine PRICEL returns:
 Original cell was already a primitive cell.
 

 Routine SETGRP: Setting up the symmetry group for a 
 simple cubic supercell.


 Subroutine GETGRP returns: Found  1 space group operations
 (whereof  1 operations were pure point group operations)
 out of a pool of 48 trial point group operations.


The static configuration has the point symmetry C_1 .


Analysis of symmetry for dynamics (positions and initial velocities):
=====================================================================
 Subroutine PRICEL returns:
 Original cell was already a primitive cell.
 

 Routine SETGRP: Setting up the symmetry group for a 
 simple cubic supercell.


 Subroutine GETGRP returns: Found  1 space group operations
 (whereof  1 operations were pure point group operations)
 out of a pool of 48 trial point group operations.


The dynamic configuration has the point symmetry C_1 .


Analysis of structural, dynamic, and magnetic symmetry:
=====================================================================
 Subroutine PRICEL returns:
 Original cell was already a primitive cell.
 

 Routine SETGRP: Setting up the symmetry group for a 
 simple cubic supercell.


 Subroutine GETGRP returns: Found  1 space group operations
 (whereof  1 operations were pure point group operations)
 out of a pool of 48 trial point group operations.


The overall configuration has the point symmetry C_1 .


 Subroutine INISYM returns: Found  1 space group operations
 (whereof  1 operations are pure point group operations),
 and found     1 'primitive' translations


----------------------------------------------------------------------------------------

                                     Primitive cell                                     

  volume of cell :    1827.6374

  direct lattice vectors                    reciprocal lattice vectors
    12.226345917  0.000000000  0.000000000     0.081790586  0.000000000  0.000000000
     0.000000000 12.226345917  0.000000000     0.000000000  0.081790586  0.000000000
     0.000000000  0.000000000 12.226345917     0.000000000  0.000000000  0.081790586

  length of vectors
    12.226345917 12.226345917 12.226345917     0.081790586  0.081790586  0.081790586

  position of ions in fractional coordinates (direct lattice)
     0.995469652  0.996711088  0.335831783
     0.998748126  0.999109919  0.665313174
     0.998156918  0.337962587  0.000672032
     0.000000000  0.333333333  0.333333333
     0.000000000  0.333333333  0.666666667
     0.990674722  0.655881392  0.999215958
     0.000000000  0.666666667  0.333333333
     0.000000000  0.666666667  0.666666667
     0.343786117  0.001092181  0.001435634
     0.333333333  0.000000000  0.333333333
     0.333333333  0.000000000  0.666666667
     0.333333333  0.333333333  0.000000000
     0.333333333  0.333333333  0.333333333
     0.333333333  0.333333333  0.666666667
     0.333333333  0.666666667  0.000000000
     0.333333333  0.666666667  0.333333333
     0.333333333  0.666666667  0.666666667
     0.678308818  0.999663981  0.998032722
     0.666666667  0.000000000  0.333333333
     0.666666667  0.000000000  0.666666667
     0.666666667  0.333333333  0.000000000
     0.666666667  0.333333333  0.333333333
     0.666666667  0.333333333  0.666666667
     0.666666667  0.666666667  0.000000000
     0.666666667  0.666666667  0.333333333
     0.666666667  0.666666667  0.666666667
     0.166674587  0.166108731  0.169311158
     0.166666667  0.166666667  0.500000000
     0.164901329  0.171915759  0.833550266
     0.166666667  0.500000000  0.166666667
     0.166666667  0.500000000  0.500000000
     0.166666667  0.500000000  0.833333333
     0.170274814  0.833912218  0.163796392
     0.166666667  0.833333333  0.500000000
     0.171466453  0.830095837  0.831517070
     0.500000000  0.166666667  0.166666667
     0.500000000  0.166666667  0.500000000
     0.500000000  0.166666667  0.833333333
     0.500000000  0.500000000  0.166666667
     0.500000000  0.500000000  0.500000000
     0.500000000  0.500000000  0.833333333
     0.500000000  0.833333333  0.166666667
     0.500000000  0.833333333  0.500000000
     0.500000000  0.833333333  0.833333333
     0.825420049  0.159251579  0.162702158
     0.833333333  0.166666667  0.500000000
     0.830753839  0.166193087  0.834515214
     0.833333333  0.500000000  0.166666667
     0.833333333  0.500000000  0.500000000
     0.833333333  0.500000000  0.833333333
     0.829272302  0.828417974  0.162153457
     0.833333333  0.833333333  0.500000000
     0.825559417  0.840842457  0.845397509

  ion indices of the primitive-cell ions
   primitive index   ion index
                 1           1
                 2           2
                 3           3
                 4           4
                 5           5
                 6           6
                 7           7
                 8           8
                 9           9
                10          10
                11          11
                12          12
                13          13
                14          14
                15          15
                16          16
                17          17
                18          18
                19          19
                20          20
                21          21
                22          22
                23          23
                24          24
                25          25
                26          26
                27          27
                28          28
                29          29
                30          30
                31          31
                32          32
                33          33
                34          34
                35          35
                36          36
                37          37
                38          38
                39          39
                40          40
                41          41
                42          42
                43          43
                44          44
                45          45
                46          46
                47          47
                48          48
                49          49
                50          50
                51          51
                52          52
                53          53

----------------------------------------------------------------------------------------

 
 
 KPOINTS: Num irrep kpoints: 1                    

Automatic generation of k-mesh.
 Grid dimensions read from file:
 generate k-points for:    1    1    1

 Generating k-lattice:

  Cartesian coordinates                     Fractional coordinates (reciprocal lattice)
     0.081790586  0.000000000  0.000000000     1.000000000  0.000000000  0.000000000
     0.000000000  0.081790586  0.000000000     0.000000000  1.000000000  0.000000000
     0.000000000  0.000000000  0.081790586     0.000000000  0.000000000  1.000000000

  Length of vectors
     0.081790586  0.081790586  0.081790586

  Shift w.r.t. Gamma in fractional coordinates (k-lattice)
     0.000000000  0.000000000  0.000000000

 
 Subroutine IBZKPT returns following result:
 ===========================================
 
 Found      1 irreducible k-points:
 
 Following reciprocal coordinates:
            Coordinates               Weight
  0.000000  0.000000  0.000000      1.000000
 
 Following cartesian coordinates:
            Coordinates               Weight
  0.000000  0.000000  0.000000      1.000000
 


--------------------------------------------------------------------------------------------------------




 Dimension of arrays:
   k-points           NKPTS =      1   k-points in BZ     NKDIM =      1   number of bands    NBANDS=    280
   number of dos      NEDOS =    301   number of ions     NIONS =     53
   non local maximal  LDIM  =      5   non local SUM 2l+1 LMDIM =     13
   total plane-waves  NPLWV = 110592
   max r-space proj   IRMAX =   1304   max aug-charges    IRDMAX=   3224
   dimension x,y,z NGX =    48 NGY =   48 NGZ =   48
   dimension x,y,z NGXF=    96 NGYF=   96 NGZF=   96
   support grid    NGXF=    96 NGYF=   96 NGZF=   96
   ions per type =              26  27
   NGX,Y,Z   is equivalent  to a cutoff of   6.53,  6.53,  6.53 a.u.
   NGXF,Y,Z  is equivalent  to a cutoff of  13.05, 13.05, 13.05 a.u.

 SYSTEM =  unknown system                          
 POSCAR =  Cs26 Cl27                               

 Startparameter for this run:
   NWRITE =      2    write-flag & timer
   PREC   = normal    normal or accurate (medium, high low for compatibility)
   ISTART =      0    job   : 0-new  1-cont  2-samecut
   ICHARG =      2    charge: 1-file 2-atom 10-const
   ISPIN  =      2    spin polarized calculation?
   LNONCOLLINEAR =      F non collinear calculations
   LSORBIT =      F    spin-orbit coupling
   INIWAV =      1    electr: 0-lowe 1-rand  2-diag
   LASPH  =      T    aspherical Exc in radial PAW
 Electronic Relaxation 1
   ENCUT  =  262.5 eV  19.29 Ry    4.39 a.u.  16.15 16.15 16.15*2*pi/ulx,y,z
   ENINI  =  262.5     initial cutoff
   ENAUG  =  407.9 eV  augmentation charge cutoff
   NELM   =    100;   NELMIN=  2; NELMDL= -5     # of ELM steps 
   EDIFF  = 0.1E-04   stopping-criterion for ELM
   LREAL  =      T    real-space projection
   NLSPLINE    = F    spline interpolate recip. space projectors
   LCOMPAT=      F    compatible to vasp.4.4
   GGA_COMPAT  = T    GGA compatible to vasp.4.4-vasp.4.6
   LMAXPAW     = -100 max onsite density
   LMAXMIX     =    2 max onsite mixed and CHGCAR
   VOSKOWN=      0    Vosko Wilk Nusair interpolation
   ROPT   =   -0.00050  -0.00050
 Ionic relaxation
   EDIFFG = -.3E-01   stopping-criterion for IOM
   NSW    =    300    number of steps for IOM
   NBLOCK =      1;   KBLOCK =    300    inner block; outer block 
   IBRION =      2    ionic relax: 0-MD 1-quasi-New 2-CG
   NFREE  =      1    steps in history (QN), initial steepest desc. (CG)
   ISIF   =      2    stress and relaxation
   IWAVPR =     11    prediction:  0-non 1-charg 2-wave 3-comb
   ISYM   =      2    0-nonsym 1-usesym 2-fastsym
   LCORR  =      T    Harris-Foulkes like correction to forces

   POTIM  = 0.5000    time-step for ionic-motion
   TEIN   =    0.0    initial temperature
   TEBEG  =    0.0;   TEEND  =   0.0 temperature during run
   SMASS  =  -3.00    Nose mass-parameter (am)
   estimated Nose-frequenzy (Omega)   =  0.10E-29 period in steps = 0.13E+47 mass=  -0.342E-26a.u.
   SCALEE = 1.0000    scale energy and forces
   NPACO  =    256;   APACO  = 10.0  distance and # of slots for P.C.
   PSTRESS=    0.0 pullay stress

  Mass of Ions in am
   POMASS = 132.90 35.45
  Ionic Valenz
   ZVAL   =   9.00  7.00
  Atomic Wigner-Seitz radii
   RWIGS  =  -1.00 -1.00
  virtual crystal weights 
   VCA    =   1.00  1.00
   NELECT =     423.0000    total number of electrons
   NUPDOWN=      -1.0000    fix difference up-down

 DOS related values:
   EMIN   =  10.00;   EMAX   =-10.00  energy-range for DOS
   EFERMI =   0.00;   METHOD = LEGACY      
   ISMEAR =     0;   SIGMA  =   0.10  broadening in eV -4-tet -1-fermi 0-gaus
   EFERMI_NEDOS =   21; number of points for ismear=-14 and -15

 Electronic relaxation 2 (details)
   IALGO  =     38    algorithm
   LDIAG  =      T    sub-space diagonalisation (order eigenvalues)
   LSUBROT=      F    optimize rotation matrix (better conditioning)
   LROBUST=      F    robust break criterion during scf (extrapolated energy error)
   ISEARCH=      0    line search for conjugate gradient (0, 1=use gradient)
   TURBO    =      0    0=normal 1=particle mesh
   IRESTART =      0    0=no restart 2=restart with 2 vectors
   NREBOOT  =      0    no. of reboots
   NMIN     =      0    reboot dimension
   EREF     =   0.00    reference energy to select bands
   IMIX   =      4    mixing-type and parameters
     AMIX     =   0.40;   BMIX     =  1.00
     AMIX_MAG =   1.60;   BMIX_MAG =  1.00
     AMIN     =   0.10
     WC   =   100.;   INIMIX=   1;  MIXPRE=   1;  MAXMIX= -45

 Intra band minimization:
   WEIMIN = 0.0010     energy-eigenvalue tresh-hold
   EBREAK =  0.89E-08  absolut break condition
   DEPER  =   0.30     relativ break condition  

   TIME   =   0.40     timestep for ELM

  volume/ion in A,a.u.               =      34.48       232.71
  Fermi-wavevector in a.u.,A,eV,Ry     =   1.005136  1.899432 13.745951  1.010299
  Thomas-Fermi vector in A             =   2.137797
 
 Write flags
   LWAVE        =      F    write WAVECAR
   LDOWNSAMPLE  =      F    k-point downsampling of WAVECAR
   LCHARG       =      F    write CHGCAR
   LVTOT        =      F    write LOCPOT, total local potential
   LVHAR        =      F    write LOCPOT, Hartree potential only
   WRT_POTENTIAL= false  ! write potential to hdf5 file
   LELF         =      F    write electronic localiz. function (ELF)
   LORBIT       =     10    0 simple, 1 ext, 2 COOP (PROOUT), +10 PAW based schemes


 Python interface
   PLUGINS active      =      F    recompile with -DPLUGINS to activate
 
 Dipole corrections
   LMONO      =      F    monopole corrections only (constant potential shift)
   LDIPOL     =      F    correct potential (dipole corrections)
   IDIPOL     =      0    1-x, 2-y, 3-z, 4-all directions 
   EPSILON    =  1.0000000 bulk dielectric constant
   LVACPOTAV  =      F  vacuum potentials using an averaging scheme for the charge density
   VACPOTFLAT =  0.1000000 required flatness to determine vacuum potential
 
Coulomb truncation method
  LTRUNCATE          =      F  Coulomb kernel truncation to be used

 
 Exchange correlation treatment:
   GGA     = PS    functional components
   XC_C    = 1    coefficients multiplying the functional components
   LIBXC   =     F    Libxc                    
   VOSKOWN =     0    Vosko Wilk Nusair interpolation
   LHFCALC =     F    Hartree Fock is set to
   LHFONE  =     F    Hartree Fock one center treatment
   AEXX    =    0.0000 exact exchange contribution

 Parameters of functionals:
   PS:
     No parameter
 
 Van der Waals corrections
   IVDW    =     0    specifies the selected vdW correction

 Linear response parameters
   LEPSILON=     F    determine dielectric tensor
   LRPA    =     F    only Hartree local field effects (RPA)
   LNABLA  =     F    use nabla operator in PAW spheres
   LVEL    =     F    velocity operator in full k-point grid
   CSHIFT  =0.1000    complex shift for real part using Kramers Kronig
   OMEGAMAX=  -1.0    maximum frequency
   DEG_THRESHOLD= 0.2000000E-02 threshold for treating states as degnerate
   RTIME   =   -0.100 relaxation time in fs
  (WPLASMAI=    0.000 imaginary part of plasma frequency in eV, 0.658/RTIME)
   DFIELD  = 0.0000000 0.0000000 0.0000000 field for delta impulse in time
 
  Optional k-point grid parameters
   LKPOINTS_OPT  =     F    use optional k-point grid
   KPOINTS_OPT_MODE=     1    mode for optional k-point grid
 
 Orbital magnetization related:
   ORBITALMAG=     F  switch on orbital magnetization
   LCHIMAG   =     F  perturbation theory with respect to B field
   DQ        =  0.001000  dq finite difference perturbation B field
   LLRAUG    =     F  two centre corrections for induced B field
   LBONE     =     F  B-component reconstruction in AE one-centre
   LVGVCALC  =     T  calculate vGv susceptibility
   LVGVAPPL  =     F  apply vGv susceptibility instead of pGv for G=0

 Random number generation:
   RANDOM_GENERATOR = DEFAULT
   PCG_SEED         = not used


--------------------------------------------------------------------------------------------------------


 conjugate gradient relaxation of ions
 charge density and potential will be updated during run
 spin polarized calculation
 Variant of blocked Davidson
 Davidson routine will perform the subspace rotation
 perform sub-space diagonalisation
    after iterative eigenvector-optimisation
 modified Broyden-mixing scheme, WC =      100.0
 initial mixing is a Kerker type mixing with AMIX =  0.4000 and BMIX =      1.0000
 Hartree-type preconditioning will be used
 using additional bands            68
 real space projection scheme for non local part
 use partial core corrections
 calculate Harris-corrections to forces 
   (improved forces if not selfconsistent)
 use gradient corrections 
 use of overlap-Matrix (Vanderbilt PP)
 Gauss-broadening in eV      SIGMA  =   0.10


--------------------------------------------------------------------------------------------------------


  energy-cutoff  :      262.47
  volume of cell :     1827.64
      direct lattice vectors                 reciprocal lattice vectors
    12.226345917  0.000000000  0.000000000     0.081790586  0.000000000  0.000000000
     0.000000000 12.226345917  0.000000000     0.000000000  0.081790586  0.000000000
     0.000000000  0.000000000 12.226345917     0.000000000  0.000000000  0.081790586

  length of vectors
    12.226345917 12.226345917 12.226345917     0.081790586  0.081790586  0.081790586


 
 k-points in units of 2pi/SCALE and weight: Num irrep kpoints: 1                    
   0.00000000  0.00000000  0.00000000       1.000
 
 k-points in reciprocal lattice and weights: Num irrep kpoints: 1                    
   0.00000000  0.00000000  0.00000000       1.000
 
 position of ions in fractional coordinates (direct lattice) 
   0.99546965  0.99671109  0.33583178
   0.99874813  0.99910992  0.66531317
   0.99815692  0.33796259  0.00067203
   0.00000000  0.33333333  0.33333333
   0.00000000  0.33333333  0.66666667
   0.99067472  0.65588139  0.99921596
   0.00000000  0.66666667  0.33333333
   0.00000000  0.66666667  0.66666667
   0.34378612  0.00109218  0.00143563
   0.33333333  0.00000000  0.33333333
   0.33333333  0.00000000  0.66666667
   0.33333333  0.33333333  0.00000000
   0.33333333  0.33333333  0.33333333
   0.33333333  0.33333333  0.66666667
   0.33333333  0.66666667  0.00000000
   0.33333333  0.66666667  0.33333333
   0.33333333  0.66666667  0.66666667
   0.67830882  0.99966398  0.99803272
   0.66666667  0.00000000  0.33333333
   0.66666667  0.00000000  0.66666667
   0.66666667  0.33333333  0.00000000
   0.66666667  0.33333333  0.33333333
   0.66666667  0.33333333  0.66666667
   0.66666667  0.66666667  0.00000000
   0.66666667  0.66666667  0.33333333
   0.66666667  0.66666667  0.66666667
   0.16667459  0.16610873  0.16931116
   0.16666667  0.16666667  0.50000000
   0.16490133  0.17191576  0.83355027
   0.16666667  0.50000000  0.16666667
   0.16666667  0.50000000  0.50000000
   0.16666667  0.50000000  0.83333333
   0.17027481  0.83391222  0.16379639
   0.16666667  0.83333333  0.50000000
   0.17146645  0.83009584  0.83151707
   0.50000000  0.16666667  0.16666667
   0.50000000  0.16666667  0.50000000
   0.50000000  0.16666667  0.83333333
   0.50000000  0.50000000  0.16666667
   0.50000000  0.50000000  0.50000000
   0.50000000  0.50000000  0.83333333
   0.50000000  0.83333333  0.16666667
   0.50000000  0.83333333  0.50000000
   0.50000000  0.83333333  0.83333333
   0.82542005  0.15925158  0.16270216
   0.83333333  0.16666667  0.50000000
   0.83075384  0.16619309  0.83451521
   0.83333333  0.50000000  0.16666667
   0.83333333  0.50000000  0.50000000
   0.83333333  0.50000000  0.83333333
   0.82927230  0.82841797  0.16215346
   0.83333333  0.83333333  0.50000000
   0.82555942  0.84084246  0.84539751
 
 position of ions in cartesian coordinates  (Angst):
  12.17095632 12.18613455  4.10599555
  12.21104007 12.21546348  8.13434901
  12.20381176  4.13204749  0.00821650
   0.00000000  4.07544864  4.07544864
   0.00000000  4.07544864  8.15089728
  12.11233184  8.01903278 12.21675995
   0.00000000  8.15089728  4.07544864
   0.00000000  8.15089728  8.15089728
   4.20324799  0.01335339  0.01755256
   4.07544864  0.00000000  4.07544864
   4.07544864  0.00000000  8.15089728
   4.07544864  4.07544864  0.00000000
   4.07544864  4.07544864  4.07544864
   4.07544864  4.07544864  8.15089728
   4.07544864  8.15089728  0.00000000
   4.07544864  8.15089728  4.07544864
   4.07544864  8.15089728  8.15089728
   8.29323825 12.22223763 12.20229329
   8.15089728  0.00000000  4.07544864
   8.15089728  0.00000000  8.15089728
   8.15089728  4.07544864  0.00000000
   8.15089728  4.07544864  4.07544864
   8.15089728  4.07544864  8.15089728
   8.15089728  8.15089728  0.00000000
   8.15089728  8.15089728  4.07544864
   8.15089728  8.15089728  8.15089728
   2.03782115  2.03090280  2.07005678
   2.03772432  2.03772432  6.11317296
   2.01614069  2.10190153 10.19127389
   2.03772432  6.11317296  2.03772432
   2.03772432  6.11317296  6.11317296
   2.03772432  6.11317296 10.18862160
   2.08183878 10.19569924  2.00263135
   2.03772432 10.18862160  6.11317296
   2.09640817 10.14903885 10.16641534
   6.11317296  2.03772432  2.03772432
   6.11317296  2.03772432  6.11317296
   6.11317296  2.03772432 10.18862160
   6.11317296  6.11317296  2.03772432
   6.11317296  6.11317296  6.11317296
   6.11317296  6.11317296 10.18862160
   6.11317296 10.18862160  2.03772432
   6.11317296 10.18862160  6.11317296
   6.11317296 10.18862160 10.18862160
  10.09187105  1.94706489  1.98925287
  10.18862160  2.03772432  6.11317296
  10.15708381  2.03193417 10.20307168
  10.18862160  6.11317296  2.03772432
  10.18862160  6.11317296  6.11317296
  10.18862160  6.11317296 10.18862160
  10.13897002 10.12852471  1.98254425
  10.18862160 10.18862160  6.11317296
  10.09357500 10.28043075 10.33612238
 


--------------------------------------------------------------------------------------------------------


 k-point     1 :   0.0000 0.0000 0.0000  plane waves:   17557

 maximum and minimum number of plane-waves per node :     17557    17557

 maximum number of plane-waves:     17557
 maximum index in each direction: 
   IXMAX=   16   IYMAX=   16   IZMAX=   16
   IXMIN=  -16   IYMIN=  -16   IZMIN=  -16


 serial   3D FFT for wavefunctions
 parallel 3D FFT for charge:
    minimum data exchange during FFTs selected (reduces bandwidth)


 total amount of memory used by VASP MPI-rank0   178875. kBytes
=======================================================================

   base                                    :      30000. kBytes
   nonlr-proj                              :       6377. kBytes
   fftplans                                :      15598. kBytes
   grid                                    :      44900. kBytes
   one-center                              :        859. kBytes
   wavefun                                 :      81141. kBytes
 
     INWAV:  cpu time      0.0001: real time      0.0002
 Broyden mixing: mesh for mixing (old mesh)
   NGX = 33   NGY = 33   NGZ = 33
  (NGX  = 96   NGY  = 96   NGZ  = 96)
  gives a total of  35937 points

 initial charge density was supplied:
 charge density of overlapping atoms calculated
 number of electron     423.0000000 magnetization      53.0000000
 keeping initial charge density in first step


--------------------------------------------------------------------------------------------------------


 Maximum index for non-local projection operator          1234
 Maximum index for augmentation-charges          1473 (set IRDMAX)


--------------------------------------------------------------------------------------------------------


 First call to EWALD:  gamma=   0.145
 Maximum number of real-space cells   3x   3x   3
 Maximum number of reciprocal cells   3x   3x   3

    FEWALD:  cpu time      0.0429: real time      0.0430


--------------------------------------- Ionic step        1  -------------------------------------------




--------------------------------------- Iteration      1(   1)  ---------------------------------------


    POTLOK:  cpu time      0.4332: real time      0.4658
    SETDIJ:  cpu time      2.2485: real time      2.2534
     EDDAV:  cpu time      0.6506: real time      2.3530
       DOS:  cpu time      0.0005: real time      0.0005
    --------------------------------------------
      LOOP:  cpu time      3.3328: real time      5.0727

 eigenvalue-minimisations  :  1136
 total energy-change (2. order) : 0.2335104E+04  (-0.1226137E+05)
 number of electron     423.0000000 magnetization      53.0000000
 augmentation part      423.0000000 magnetization      53.0000000

 Free energy of the ion-electron system (eV)
  ---------------------------------------------------
  alpha Z        PSCENC =      1390.48224925
  Ewald energy   TEWEN  =    -21532.55444335
  -Hartree energ DENC   =     -3628.34317722
  -exchange      EXHF   =         0.00000000
  -V(xc)+E(xc)   XCENC  =       840.77292165
  PAW double counting   =     19806.45903776   -19618.38849467
  entropy T*S    EENTRO =        -0.08172904
  eigenvalues    EBANDS =      -406.23478480
  atomic energy  EATOM  =     25482.99243790
  Solvation  Ediel_sol  =         0.00000000
  ---------------------------------------------------
  free energy    TOTEN  =      2335.10401749 eV

  energy without entropy =     2335.18574652  energy(sigma->0) =     2335.14488201


--------------------------------------------------------------------------------------------------------




--------------------------------------- Iteration      1(   2)  ---------------------------------------


     EDDAV:  cpu time      0.5371: real time      0.5386
       DOS:  cpu time      0.0004: real time      0.0004
    --------------------------------------------
      LOOP:  cpu time      0.5375: real time      0.5389

 eigenvalue-minimisations  :  1392
 total energy-change (2. order) :-0.2300951E+04  (-0.2226953E+04)
 number of electron     423.0000000 magnetization      53.0000000
 augmentation part      423.0000000 magnetization      53.0000000

 Free energy of the ion-electron system (eV)
  ---------------------------------------------------
  alpha Z        PSCENC =      1390.48224925
  Ewald energy   TEWEN  =    -21532.55444335
  -Hartree energ DENC   =     -3628.34317722
  -exchange      EXHF   =         0.00000000
  -V(xc)+E(xc)   XCENC  =       840.77292165
  PAW double counting   =     19806.45903776   -19618.38849467
  entropy T*S    EENTRO =        -0.04640612
  eigenvalues    EBANDS =     -2707.22152223
  atomic energy  EATOM  =     25482.99243790
  Solvation  Ediel_sol  =         0.00000000
  ---------------------------------------------------
  free energy    TOTEN  =        34.15260298 eV

  energy without entropy =       34.19900910  energy(sigma->0) =       34.17580604


--------------------------------------------------------------------------------------------------------




--------------------------------------- Iteration      1(   3)  ---------------------------------------


     EDDAV:  cpu time      0.5265: real time      0.5282
       DOS:  cpu time      0.0004: real time      0.0004
    --------------------------------------------
      LOOP:  cpu time      0.5269: real time      0.5286

 eigenvalue-minimisations  :  1344
 total energy-change (2. order) :-0.2087099E+03  (-0.2075401E+03)
 number of electron     423.0000000 magnetization      53.0000000
 augmentation part      423.0000000 magnetization      53.0000000

 Free energy of the ion-electron system (eV)
  ---------------------------------------------------
  alpha Z        PSCENC =      1390.48224925
  Ewald energy   TEWEN  =    -21532.55444335
  -Hartree energ DENC   =     -3628.34317722
  -exchange      EXHF   =         0.00000000
  -V(xc)+E(xc)   XCENC  =       840.77292165
  PAW double counting   =     19806.45903776   -19618.38849467
  entropy T*S    EENTRO =        -0.10298203
  eigenvalues    EBANDS =     -2915.87489323
  atomic energy  EATOM  =     25482.99243790
  Solvation  Ediel_sol  =         0.00000000
  ---------------------------------------------------
  free energy    TOTEN  =      -174.55734394 eV

  energy without entropy =     -174.45436191  energy(sigma->0) =     -174.50585292


--------------------------------------------------------------------------------------------------------




--------------------------------------- Iteration      1(   4)  ---------------------------------------


     EDDAV:  cpu time      0.5210: real time      0.5227
       DOS:  cpu time      0.0004: real time      0.0004
    --------------------------------------------
      LOOP:  cpu time      0.5214: real time      0.5231

 eigenvalue-minimisations  :  1328
 total energy-change (2. order) :-0.3468199E+01  (-0.3459651E+01)
 number of electron     423.0000000 magnetization      53.0000000
 augmentation part      423.0000000 magnetization      53.0000000

 Free energy of the ion-electron system (eV)
  ---------------------------------------------------
  alpha Z        PSCENC =      1390.48224925
  Ewald energy   TEWEN  =    -21532.55444335
  -Hartree energ DENC   =     -3628.34317722
  -exchange      EXHF   =         0.00000000
  -V(xc)+E(xc)   XCENC  =       840.77292165
  PAW double counting   =     19806.45903776   -19618.38849467
  entropy T*S    EENTRO =        -0.10313789
  eigenvalues    EBANDS =     -2919.34293649
  atomic energy  EATOM  =     25482.99243790
  Solvation  Ediel_sol  =         0.00000000
  ---------------------------------------------------
  free energy    TOTEN  =      -178.02554305 eV

  energy without entropy =     -177.92240517  energy(sigma->0) =     -177.97397411


--------------------------------------------------------------------------------------------------------




--------------------------------------- Iteration      1(   5)  ---------------------------------------


     EDDAV:  cpu time      0.5149: real time      0.5165
       DOS:  cpu time      0.0004: real time      0.0004
    CHARGE:  cpu time      0.0538: real time      0.0539
    MIXING:  cpu time      0.0108: real time      0.0109
    --------------------------------------------
      LOOP:  cpu time      0.5799: real time      0.5817

 eigenvalue-minimisations  :  1312
 total energy-change (2. order) :-0.7928082E-01  (-0.7923105E-01)
 number of electron     423.0000282 magnetization      35.6176415
 augmentation part      -77.6389208 magnetization      34.4290959

 Broyden mixing:
  rms(total) = 0.25039E+01    rms(broyden)= 0.25034E+01
  rms(prec ) = 0.27476E+01
  weight for this iteration     100.00

 Free energy of the ion-electron system (eV)
  ---------------------------------------------------
  alpha Z        PSCENC =      1390.48224925
  Ewald energy   TEWEN  =    -21532.55444335
  -Hartree energ DENC   =     -3628.34317722
  -exchange      EXHF   =         0.00000000
  -V(xc)+E(xc)   XCENC  =       840.77292165
  PAW double counting   =     19806.45903776   -19618.38849467
  entropy T*S    EENTRO =        -0.10315246
  eigenvalues    EBANDS =     -2919.42220274
  atomic energy  EATOM  =     25482.99243790
  Solvation  Ediel_sol  =         0.00000000
  ---------------------------------------------------
  free energy    TOTEN  =      -178.10482388 eV

  energy without entropy =     -178.00167142  energy(sigma->0) =     -178.05324765


--------------------------------------------------------------------------------------------------------




--------------------------------------- Iteration      1(   6)  ---------------------------------------


    POTLOK:  cpu time      0.0092: real time      0.0095
    SETDIJ:  cpu time      2.2573: real time      2.2623
     EDDAV:  cpu time      0.4974: real time      0.4986
       DOS:  cpu time      0.0004: real time      0.0004
    CHARGE:  cpu time      0.0488: real time      0.0489
    MIXING:  cpu time      0.0111: real time      0.0111
    --------------------------------------------
      LOOP:  cpu time      2.8241: real time      2.8308

 eigenvalue-minimisations  :  1248
 total energy-change (2. order) : 0.6278780E+01  (-0.3091139E+01)
 number of electron     423.0000323 magnetization      24.2409850
 augmentation part      -77.4946656 magnetization      23.8030217

 Broyden mixing:
  rms(total) = 0.13806E+01    rms(broyden)= 0.13802E+01
  rms(prec ) = 0.14705E+01
  weight for this iteration     100.00

 eigenvalues of (default mixing * dielectric matrix)
  average eigenvalue GAMMA=   0.8495
  0.8495

 Free energy of the ion-electron system (eV)
  ---------------------------------------------------
  alpha Z        PSCENC =      1390.48224925
  Ewald energy   TEWEN  =    -21532.55444335
  -Hartree energ DENC   =     -3714.41072077
  -exchange      EXHF   =         0.00000000
  -V(xc)+E(xc)   XCENC  =       850.51068431
  PAW double counting   =     21216.66938575   -21031.14035277
  entropy T*S    EENTRO =        -0.10393358
  eigenvalues    EBANDS =     -2834.27135025
  atomic energy  EATOM  =     25482.99243790
  Solvation  Ediel_sol  =         0.00000000
  ---------------------------------------------------
  free energy    TOTEN  =      -171.82604351 eV

  energy without entropy =     -171.72210993  energy(sigma->0) =     -171.77407672


--------------------------------------------------------------------------------------------------------




--------------------------------------- Iteration      1(   7)  ---------------------------------------


    POTLOK:  cpu time      0.0093: real time      0.0095
    SETDIJ:  cpu time      2.1479: real time      2.1527
     EDDAV:  cpu time      0.5183: real time      0.5196
       DOS:  cpu time      0.0004: real time      0.0004
    CHARGE:  cpu time      0.0485: real time      0.0486
    MIXING:  cpu time      0.0114: real time      0.0115
    --------------------------------------------
      LOOP:  cpu time      2.7359: real time      2.7423

 eigenvalue-minimisations  :  1328
 total energy-change (2. order) :-0.2940833E+01  (-0.6148605E+00)
 number of electron     423.0000346 magnetization      14.1581473
 augmentation part      -77.6623886 magnetization      13.5545695

 Broyden mixing:
  rms(total) = 0.95592E+00    rms(broyden)= 0.95586E+00
  rms(prec ) = 0.99994E+00
  weight for this iteration     100.00

 eigenvalues of (default mixing * dielectric matrix)
  average eigenvalue GAMMA=   0.8673
  1.0109  0.7236

 Free energy of the ion-electron system (eV)
  ---------------------------------------------------
  alpha Z        PSCENC =      1390.48224925
  Ewald energy   TEWEN  =    -21532.55444335
  -Hartree energ DENC   =     -3736.84919601
  -exchange      EXHF   =         0.00000000
  -V(xc)+E(xc)   XCENC  =       849.27655928
  PAW double counting   =     22370.00317558   -22185.65058316
  entropy T*S    EENTRO =        -0.10097800
  eigenvalues    EBANDS =     -2812.36609768
  atomic energy  EATOM  =     25482.99243790
  Solvation  Ediel_sol  =         0.00000000
  ---------------------------------------------------
  free energy    TOTEN  =      -174.76687618 eV

  energy without entropy =     -174.66589818  energy(sigma->0) =     -174.71638718


--------------------------------------------------------------------------------------------------------




--------------------------------------- Iteration      1(   8)  ---------------------------------------


    POTLOK:  cpu time      0.0093: real time      0.0097
    SETDIJ:  cpu time      2.1243: real time      2.1288
     EDDAV:  cpu time      0.5114: real time      0.5127
       DOS:  cpu time      0.0004: real time      0.0004
    CHARGE:  cpu time      0.0476: real time      0.0477
    MIXING:  cpu time      0.0115: real time      0.0116
    --------------------------------------------
      LOOP:  cpu time      2.7045: real time      2.7109

 eigenvalue-minimisations  :  1296
 total energy-change (2. order) :-0.2402680E+01  (-0.1572591E+00)
 number of electron     423.0000352 magnetization       4.4257211
 augmentation part      -77.6881353 magnetization       3.7645433

 Broyden mixing:
  rms(total) = 0.52879E+00    rms(broyden)= 0.52877E+00
  rms(prec ) = 0.55433E+00
  weight for this iteration     100.00

 eigenvalues of (default mixing * dielectric matrix)
  average eigenvalue GAMMA=   1.3309
  2.4593  0.9342  0.5990

 Free energy of the ion-electron system (eV)
  ---------------------------------------------------
  alpha Z        PSCENC =      1390.48224925
  Ewald energy   TEWEN  =    -21532.55444335
  -Hartree energ DENC   =     -3748.28912885
  -exchange      EXHF   =         0.00000000
  -V(xc)+E(xc)   XCENC  =       849.36200317
  PAW double counting   =     23384.49809672   -23201.88939352
  entropy T*S    EENTRO =        -0.11601094
  eigenvalues    EBANDS =     -2801.65536683
  atomic energy  EATOM  =     25482.99243790
  Solvation  Ediel_sol  =         0.00000000
  ---------------------------------------------------
  free energy    TOTEN  =      -177.16955644 eV

  energy without entropy =     -177.05354550  energy(sigma->0) =     -177.11155097


--------------------------------------------------------------------------------------------------------




--------------------------------------- Iteration      1(   9)  ---------------------------------------


    POTLOK:  cpu time      0.0090: real time      0.0094
    SETDIJ:  cpu time      2.1047: real time      2.1093
     EDDAV:  cpu time      0.5026: real time      0.5038
       DOS:  cpu time      0.0004: real time      0.0004
    CHARGE:  cpu time      0.0478: real time      0.0480
    MIXING:  cpu time      0.0122: real time      0.0122
    --------------------------------------------
      LOOP:  cpu time      2.6767: real time      2.6831

 eigenvalue-minimisations  :  1264
 total energy-change (2. order) :-0.1435871E+01  (-0.1293721E+00)
 number of electron     423.0000353 magnetization       2.9180963
 augmentation part      -77.7348994 magnetization       2.2737864

 Broyden mixing:
  rms(total) = 0.14096E+00    rms(broyden)= 0.14094E+00
  rms(prec ) = 0.15155E+00
  weight for this iteration     100.00

 eigenvalues of (default mixing * dielectric matrix)
  average eigenvalue GAMMA=   1.2415
  2.5514  1.0351  0.7533  0.6263

 Free energy of the ion-electron system (eV)
  ---------------------------------------------------
  alpha Z        PSCENC =      1390.48224925
  Ewald energy   TEWEN  =    -21532.55444335
  -Hartree energ DENC   =     -3751.92491677
  -exchange      EXHF   =         0.00000000
  -V(xc)+E(xc)   XCENC  =       849.52455369
  PAW double counting   =     24254.50910905   -24073.41739833
  entropy T*S    EENTRO =        -0.12353209
  eigenvalues    EBANDS =     -2798.09348717
  atomic energy  EATOM  =     25482.99243790
  Solvation  Ediel_sol  =         0.00000000
  ---------------------------------------------------
  free energy    TOTEN  =      -178.60542782 eV

  energy without entropy =     -178.48189573  energy(sigma->0) =     -178.54366178


--------------------------------------------------------------------------------------------------------




--------------------------------------- Iteration      1(  10)  ---------------------------------------


    POTLOK:  cpu time      0.0095: real time      0.0097
    SETDIJ:  cpu time      2.1050: real time      2.1096
     EDDAV:  cpu time      0.5078: real time      0.5091
       DOS:  cpu time      0.0004: real time      0.0004
    CHARGE:  cpu time      0.0484: real time      0.0485
    MIXING:  cpu time      0.0128: real time      0.0129
    --------------------------------------------
      LOOP:  cpu time      2.6840: real time      2.6902

 eigenvalue-minimisations  :  1280
 total energy-change (2. order) :-0.1223151E+00  (-0.1552247E-01)
 number of electron     423.0000352 magnetization       2.3885724
 augmentation part      -77.7577407 magnetization       1.7134423

 Broyden mixing:
  rms(total) = 0.99579E-01    rms(broyden)= 0.99538E-01
  rms(prec ) = 0.11859E+00
  weight for this iteration     100.00

 eigenvalues of (default mixing * dielectric matrix)
  average eigenvalue GAMMA=   1.1403
  2.4787  1.1799  0.7945  0.6242  0.6242

 Free energy of the ion-electron system (eV)
  ---------------------------------------------------
  alpha Z        PSCENC =      1390.48224925
  Ewald energy   TEWEN  =    -21532.55444335
  -Hartree energ DENC   =     -3749.08751456
  -exchange      EXHF   =         0.00000000
  -V(xc)+E(xc)   XCENC  =       849.31625092
  PAW double counting   =     24238.23549833   -24057.27952278
  entropy T*S    EENTRO =        -0.12122398
  eigenvalues    EBANDS =     -2800.71147469
  atomic energy  EATOM  =     25482.99243790
  Solvation  Ediel_sol  =         0.00000000
  ---------------------------------------------------
  free energy    TOTEN  =      -178.72774296 eV

  energy without entropy =     -178.60651898  energy(sigma->0) =     -178.66713097


--------------------------------------------------------------------------------------------------------




--------------------------------------- Iteration      1(  11)  ---------------------------------------


    POTLOK:  cpu time      0.0092: real time      0.0095
    SETDIJ:  cpu time      1.9934: real time      1.9977
     EDDAV:  cpu time      0.5368: real time      0.5381
       DOS:  cpu time      0.0004: real time      0.0004
    CHARGE:  cpu time      0.0483: real time      0.0485
    MIXING:  cpu time      0.0133: real time      0.0133
    --------------------------------------------
      LOOP:  cpu time      2.6014: real time      2.6074

 eigenvalue-minimisations  :  1384
 total energy-change (2. order) :-0.2141158E-01  (-0.4638534E-02)
 number of electron     423.0000351 magnetization       1.8025358
 augmentation part      -77.7544200 magnetization       1.1603145

 Broyden mixing:
  rms(total) = 0.73375E-01    rms(broyden)= 0.73353E-01
  rms(prec ) = 0.86244E-01
  weight for this iteration     100.00

 eigenvalues of (default mixing * dielectric matrix)
  average eigenvalue GAMMA=   1.0802
  2.3781  1.4753  0.8791  0.6172  0.6172  0.5144

 Free energy of the ion-electron system (eV)
  ---------------------------------------------------
  alpha Z        PSCENC =      1390.48224925
  Ewald energy   TEWEN  =    -21532.55444335
  -Hartree energ DENC   =     -3748.75850870
  -exchange      EXHF   =         0.00000000
  -V(xc)+E(xc)   XCENC  =       849.28877766
  PAW double counting   =     24209.67778875   -24028.77658025
  entropy T*S    EENTRO =        -0.12468537
  eigenvalues    EBANDS =     -2800.97619044
  atomic energy  EATOM  =     25482.99243790
  Solvation  Ediel_sol  =         0.00000000
  ---------------------------------------------------
  free energy    TOTEN  =      -178.74915454 eV

  energy without entropy =     -178.62446917  energy(sigma->0) =     -178.68681186


--------------------------------------------------------------------------------------------------------




--------------------------------------- Iteration      1(  12)  ---------------------------------------


    POTLOK:  cpu time      0.0093: real time      0.0097
    SETDIJ:  cpu time      1.9985: real time      2.0032
     EDDAV:  cpu time      0.5075: real time      0.5089
       DOS:  cpu time      0.0004: real time      0.0004
    CHARGE:  cpu time      0.0483: real time      0.0485
    MIXING:  cpu time      0.0135: real time      0.0135
    --------------------------------------------
      LOOP:  cpu time      2.5776: real time      2.5842

 eigenvalue-minimisations  :  1280
 total energy-change (2. order) :-0.1487703E-01  (-0.1147257E-02)
 number of electron     423.0000351 magnetization       0.9111378
 augmentation part      -77.7525468 magnetization       0.2688999

 Broyden mixing:
  rms(total) = 0.41161E-01    rms(broyden)= 0.41156E-01
  rms(prec ) = 0.43603E-01
  weight for this iteration     100.00

 eigenvalues of (default mixing * dielectric matrix)
  average eigenvalue GAMMA=   1.2026
  2.3660  2.3660  1.2031  0.8580  0.5905  0.5905  0.4442

 Free energy of the ion-electron system (eV)
  ---------------------------------------------------
  alpha Z        PSCENC =      1390.48224925
  Ewald energy   TEWEN  =    -21532.55444335
  -Hartree energ DENC   =     -3748.69540973
  -exchange      EXHF   =         0.00000000
  -V(xc)+E(xc)   XCENC  =       849.28939569
  PAW double counting   =     24177.80456612   -23996.96330204
  entropy T*S    EENTRO =        -0.12514686
  eigenvalues    EBANDS =     -2800.99437855
  atomic energy  EATOM  =     25482.99243790
  Solvation  Ediel_sol  =         0.00000000
  ---------------------------------------------------
  free energy    TOTEN  =      -178.76403157 eV

  energy without entropy =     -178.63888471  energy(sigma->0) =     -178.70145814


--------------------------------------------------------------------------------------------------------




--------------------------------------- Iteration      1(  13)  ---------------------------------------


    POTLOK:  cpu time      0.0094: real time      0.0097
    SETDIJ:  cpu time      2.0055: real time      2.0113
     EDDAV:  cpu time      0.5016: real time      0.5046
       DOS:  cpu time      0.0004: real time      0.0004
    CHARGE:  cpu time      0.0480: real time      0.0492
    MIXING:  cpu time      0.0141: real time      0.0141
    --------------------------------------------
      LOOP:  cpu time      2.5789: real time      2.5893

 eigenvalue-minimisations  :  1264
 total energy-change (2. order) :-0.1248762E-01  (-0.1292870E-02)
 number of electron     423.0000351 magnetization       0.6814098
 augmentation part      -77.7504532 magnetization       0.0952697

 Broyden mixing:
  rms(total) = 0.23190E-01    rms(broyden)= 0.23183E-01
  rms(prec ) = 0.29726E-01
  weight for this iteration     100.00

 eigenvalues of (default mixing * dielectric matrix)
  average eigenvalue GAMMA=   1.1875
  2.7560  2.3716  1.3185  0.8567  0.5903  0.5903  0.5872  0.4291

 Free energy of the ion-electron system (eV)
  ---------------------------------------------------
  alpha Z        PSCENC =      1390.48224925
  Ewald energy   TEWEN  =    -21532.55444335
  -Hartree energ DENC   =     -3749.13923381
  -exchange      EXHF   =         0.00000000
  -V(xc)+E(xc)   XCENC  =       849.33413135
  PAW double counting   =     24142.56252788   -23961.79890193
  entropy T*S    EENTRO =        -0.12663527
  eigenvalues    EBANDS =     -2800.52865121
  atomic energy  EATOM  =     25482.99243790
  Solvation  Ediel_sol  =         0.00000000
  ---------------------------------------------------
  free energy    TOTEN  =      -178.77651919 eV

  energy without entropy =     -178.64988392  energy(sigma->0) =     -178.71320155


--------------------------------------------------------------------------------------------------------




--------------------------------------- Iteration      1(  14)  ---------------------------------------


    POTLOK:  cpu time      0.0093: real time      0.0097
    SETDIJ:  cpu time      1.9932: real time      2.0028
     EDDAV:  cpu time      0.5282: real time      0.5301
       DOS:  cpu time      0.0004: real time      0.0004
    CHARGE:  cpu time      0.0482: real time      0.0483
    MIXING:  cpu time      0.0149: real time      0.0149
    --------------------------------------------
      LOOP:  cpu time      2.5941: real time      2.6061

 eigenvalue-minimisations  :  1352
 total energy-change (2. order) :-0.6520230E-03  (-0.2588646E-03)
 number of electron     423.0000351 magnetization       0.6048367
 augmentation part      -77.7505823 magnetization       0.0439416

 Broyden mixing:
  rms(total) = 0.10212E-01    rms(broyden)= 0.10207E-01
  rms(prec ) = 0.12585E-01
  weight for this iteration     100.00

 eigenvalues of (default mixing * dielectric matrix)
  average eigenvalue GAMMA=   1.1578
  2.9939  2.2758  1.4301  0.7965  0.7965  0.6497  0.5353  0.5353  0.4075

 Free energy of the ion-electron system (eV)
  ---------------------------------------------------
  alpha Z        PSCENC =      1390.48224925
  Ewald energy   TEWEN  =    -21532.55444335
  -Hartree energ DENC   =     -3749.31851272
  -exchange      EXHF   =         0.00000000
  -V(xc)+E(xc)   XCENC  =       849.35062882
  PAW double counting   =     24133.62805017   -23952.87504599
  entropy T*S    EENTRO =        -0.12748343
  eigenvalues    EBANDS =     -2800.35505188
  atomic energy  EATOM  =     25482.99243790
  Solvation  Ediel_sol  =         0.00000000
  ---------------------------------------------------
  free energy    TOTEN  =      -178.77717121 eV

  energy without entropy =     -178.64968778  energy(sigma->0) =     -178.71342950


--------------------------------------------------------------------------------------------------------




--------------------------------------- Iteration      1(  15)  ---------------------------------------


    POTLOK:  cpu time      0.0095: real time      0.0099
    SETDIJ:  cpu time      1.9967: real time      2.0026
     EDDAV:  cpu time      0.5016: real time      0.5029
       DOS:  cpu time      0.0004: real time      0.0004
    CHARGE:  cpu time      0.0480: real time      0.0481
    MIXING:  cpu time      0.0161: real time      0.0161
    --------------------------------------------
      LOOP:  cpu time      2.5722: real time      2.5800

 eigenvalue-minimisations  :  1264
 total energy-change (2. order) :-0.1569089E-03  (-0.5822313E-04)
 number of electron     423.0000351 magnetization       0.5505582
 augmentation part      -77.7508600 magnetization       0.0098083

 Broyden mixing:
  rms(total) = 0.67083E-02    rms(broyden)= 0.67049E-02
  rms(prec ) = 0.82660E-02
  weight for this iteration     100.00

 eigenvalues of (default mixing * dielectric matrix)
  average eigenvalue GAMMA=   1.1267
  3.1147  2.2038  1.5561  0.8439  0.8439  0.6698  0.6698  0.5018  0.5018  0.3616

 Free energy of the ion-electron system (eV)
  ---------------------------------------------------
  alpha Z        PSCENC =      1390.48224925
  Ewald energy   TEWEN  =    -21532.55444335
  -Hartree energ DENC   =     -3749.38155635
  -exchange      EXHF   =         0.00000000
  -V(xc)+E(xc)   XCENC  =       849.35588445
  PAW double counting   =     24130.95156295   -23950.19431602
  entropy T*S    EENTRO =        -0.12796552
  eigenvalues    EBANDS =     -2800.30118142
  atomic energy  EATOM  =     25482.99243790
  Solvation  Ediel_sol  =         0.00000000
  ---------------------------------------------------
  free energy    TOTEN  =      -178.77732812 eV

  energy without entropy =     -178.64936260  energy(sigma->0) =     -178.71334536


--------------------------------------------------------------------------------------------------------




--------------------------------------- Iteration      1(  16)  ---------------------------------------


    POTLOK:  cpu time      0.0098: real time      0.0102
    SETDIJ:  cpu time      2.1289: real time      2.1332
     EDDAV:  cpu time      0.4737: real time      0.4747
       DOS:  cpu time      0.0004: real time      0.0004
    CHARGE:  cpu time      0.0491: real time      0.0493
    MIXING:  cpu time      0.0160: real time      0.0160
    --------------------------------------------
      LOOP:  cpu time      2.6779: real time      2.6838

 eigenvalue-minimisations  :  1160
 total energy-change (2. order) :-0.6541489E-04  (-0.1773737E-04)
 number of electron     423.0000351 magnetization       0.5121249
 augmentation part      -77.7511616 magnetization      -0.0090440

 Broyden mixing:
  rms(total) = 0.41481E-02    rms(broyden)= 0.41463E-02
  rms(prec ) = 0.47710E-02
  weight for this iteration     100.00

 eigenvalues of (default mixing * dielectric matrix)
  average eigenvalue GAMMA=   1.1361
  3.2312  1.9756  1.9655  1.0163  1.0163  0.7749  0.6454  0.5468  0.5468  0.4205
  0.3572

 Free energy of the ion-electron system (eV)
  ---------------------------------------------------
  alpha Z        PSCENC =      1390.48224925
  Ewald energy   TEWEN  =    -21532.55444335
  -Hartree energ DENC   =     -3749.39946057
  -exchange      EXHF   =         0.00000000
  -V(xc)+E(xc)   XCENC  =       849.35732360
  PAW double counting   =     24129.82320610   -23949.06025696
  entropy T*S    EENTRO =        -0.12840422
  eigenvalues    EBANDS =     -2800.29004528
  atomic energy  EATOM  =     25482.99243790
  Solvation  Ediel_sol  =         0.00000000
  ---------------------------------------------------
  free energy    TOTEN  =      -178.77739353 eV

  energy without entropy =     -178.64898931  energy(sigma->0) =     -178.71319142


--------------------------------------------------------------------------------------------------------




--------------------------------------- Iteration      1(  17)  ---------------------------------------


    POTLOK:  cpu time      0.0096: real time      0.0099
    SETDIJ:  cpu time      2.1193: real time      2.1234
     EDDAV:  cpu time      0.4431: real time      0.4441
       DOS:  cpu time      0.0004: real time      0.0004
    CHARGE:  cpu time      0.0480: real time      0.0481
    MIXING:  cpu time      0.0168: real time      0.0168
    --------------------------------------------
      LOOP:  cpu time      2.6370: real time      2.6427

 eigenvalue-minimisations  :  1056
 total energy-change (2. order) :-0.4008542E-04  (-0.7323123E-05)
 number of electron     423.0000351 magnetization       0.4912657
 augmentation part      -77.7513264 magnetization      -0.0100808

 Broyden mixing:
  rms(total) = 0.28572E-02    rms(broyden)= 0.28553E-02
  rms(prec ) = 0.33676E-02
  weight for this iteration     100.00

 eigenvalues of (default mixing * dielectric matrix)
  average eigenvalue GAMMA=   1.1264
  3.3308  2.0839  2.0839  1.1506  1.0324  0.7028  0.7028  0.5832  0.5403  0.5403
  0.4106  0.3557

 Free energy of the ion-electron system (eV)
  ---------------------------------------------------
  alpha Z        PSCENC =      1390.48224925
  Ewald energy   TEWEN  =    -21532.55444335
  -Hartree energ DENC   =     -3749.38207223
  -exchange      EXHF   =         0.00000000
  -V(xc)+E(xc)   XCENC  =       849.35576227
  PAW double counting   =     24129.44142369   -23948.67209135
  entropy T*S    EENTRO =        -0.12879251
  eigenvalues    EBANDS =     -2800.31190729
  atomic energy  EATOM  =     25482.99243790
  Solvation  Ediel_sol  =         0.00000000
  ---------------------------------------------------
  free energy    TOTEN  =      -178.77743362 eV

  energy without entropy =     -178.64864110  energy(sigma->0) =     -178.71303736


--------------------------------------------------------------------------------------------------------




--------------------------------------- Iteration      1(  18)  ---------------------------------------


    POTLOK:  cpu time      0.0094: real time      0.0098
    SETDIJ:  cpu time      2.1270: real time      2.1314
     EDDAV:  cpu time      0.4103: real time      0.4112
       DOS:  cpu time      0.0004: real time      0.0004
    CHARGE:  cpu time      0.0484: real time      0.0485
    MIXING:  cpu time      0.0176: real time      0.0176
    --------------------------------------------
      LOOP:  cpu time      2.6132: real time      2.6189

 eigenvalue-minimisations  :   936
 total energy-change (2. order) :-0.1442221E-04  (-0.2529250E-05)
 number of electron     423.0000351 magnetization       0.4668632
 augmentation part      -77.7514565 magnetization      -0.0225091

 Broyden mixing:
  rms(total) = 0.20858E-02    rms(broyden)= 0.20845E-02
  rms(prec ) = 0.23315E-02
  weight for this iteration     100.00

 eigenvalues of (default mixing * dielectric matrix)
  average eigenvalue GAMMA=   1.1573
  3.5226  2.2789  2.2789  1.2333  1.2333  0.7430  0.7430  0.6276  0.6276  0.5044
  0.5044  0.3926  0.3549

 Free energy of the ion-electron system (eV)
  ---------------------------------------------------
  alpha Z        PSCENC =      1390.48224925
  Ewald energy   TEWEN  =    -21532.55444335
  -Hartree energ DENC   =     -3749.36613963
  -exchange      EXHF   =         0.00000000
  -V(xc)+E(xc)   XCENC  =       849.35439433
  PAW double counting   =     24129.28569270   -23948.51307125
  entropy T*S    EENTRO =        -0.12898898
  eigenvalues    EBANDS =     -2800.32957903
  atomic energy  EATOM  =     25482.99243790
  Solvation  Ediel_sol  =         0.00000000
  ---------------------------------------------------
  free energy    TOTEN  =      -178.77744804 eV

  energy without entropy =     -178.64845906  energy(sigma->0) =     -178.71295355


--------------------------------------------------------------------------------------------------------




--------------------------------------- Iteration      1(  19)  ---------------------------------------


    POTLOK:  cpu time      0.0098: real time      0.0100
    SETDIJ:  cpu time      2.1164: real time      2.1206
     EDDAV:  cpu time      0.4026: real time      0.4035
       DOS:  cpu time      0.0004: real time      0.0004
    CHARGE:  cpu time      0.0483: real time      0.0485
    MIXING:  cpu time      0.0180: real time      0.0181
    --------------------------------------------
      LOOP:  cpu time      2.5956: real time      2.6010

 eigenvalue-minimisations  :   912
 total energy-change (2. order) :-0.1453213E-04  (-0.1703749E-05)
 number of electron     423.0000351 magnetization       0.4451453
 augmentation part      -77.7515452 magnetization      -0.0266455

 Broyden mixing:
  rms(total) = 0.15798E-02    rms(broyden)= 0.15778E-02
  rms(prec ) = 0.18079E-02
  weight for this iteration     100.00

 eigenvalues of (default mixing * dielectric matrix)
  average eigenvalue GAMMA=   1.1929
  3.9139  2.4746  2.4746  1.3068  1.3068  0.8445  0.8445  0.5866  0.5866  0.6057
  0.6057  0.4229  0.3748  0.3520

 Free energy of the ion-electron system (eV)
  ---------------------------------------------------
  alpha Z        PSCENC =      1390.48224925
  Ewald energy   TEWEN  =    -21532.55444335
  -Hartree energ DENC   =     -3749.34791221
  -exchange      EXHF   =         0.00000000
  -V(xc)+E(xc)   XCENC  =       849.35270218
  PAW double counting   =     24129.30089390   -23948.52505228
  entropy T*S    EENTRO =        -0.12932615
  eigenvalues    EBANDS =     -2800.34901181
  atomic energy  EATOM  =     25482.99243790
  Solvation  Ediel_sol  =         0.00000000
  ---------------------------------------------------
  free energy    TOTEN  =      -178.77746257 eV

  energy without entropy =     -178.64813642  energy(sigma->0) =     -178.71279950


--------------------------------------------------------------------------------------------------------




--------------------------------------- Iteration      1(  20)  ---------------------------------------


    POTLOK:  cpu time      0.0098: real time      0.0099
    SETDIJ:  cpu time      2.1184: real time      2.1227
     EDDAV:  cpu time      0.3983: real time      0.3992
       DOS:  cpu time      0.0004: real time      0.0004
    --------------------------------------------
      LOOP:  cpu time      2.5268: real time      2.5321

 eigenvalue-minimisations  :   896
 total energy-change (2. order) :-0.8844839E-05  (-0.1566699E-05)
 number of electron     423.0000351 magnetization       0.4451453
 augmentation part      -77.7515452 magnetization      -0.0266455

 Free energy of the ion-electron system (eV)
  ---------------------------------------------------
  alpha Z        PSCENC =      1390.48224925
  Ewald energy   TEWEN  =    -21532.55444335
  -Hartree energ DENC   =     -3749.34067512
  -exchange      EXHF   =         0.00000000
  -V(xc)+E(xc)   XCENC  =       849.35183505
  PAW double counting   =     24129.26924641   -23948.49110630
  entropy T*S    EENTRO =        -0.12959214
  eigenvalues    EBANDS =     -2800.35742312
  atomic energy  EATOM  =     25482.99243790
  Solvation  Ediel_sol  =         0.00000000
  ---------------------------------------------------
  free energy    TOTEN  =      -178.77747142 eV

  energy without entropy =     -178.64787928  energy(sigma->0) =     -178.71267535


--------------------------------------------------------------------------------------------------------




 average (electrostatic) potential at core
  the test charge radii are     1.1312  0.9406
  (the norm of the test charge is              1.0000)
       1 -49.0472       2 -49.0883       3 -49.0361       4 -49.2361       5 -49.1794
       6 -49.0451       7 -49.2412       8 -49.2829       9 -48.9486      10 -49.1395
      11 -49.1666      12 -49.1546      13 -49.1921      14 -49.1838      15 -49.0919
      16 -49.1982      17 -49.1670      18 -48.7547      19 -49.1545      20 -49.1656
      21 -49.1487      22 -49.2187      23 -49.2051      24 -49.1088      25 -49.1995
      26 -49.2535      27 -93.0349      28 -93.1618      29 -93.0257      30 -93.1834
      31 -93.1839      32 -93.1678      33 -93.0354      34 -93.1902      35 -93.0322
      36 -93.1325      37 -93.1568      38 -93.1343      39 -93.1477      40 -93.1892
      41 -93.1482      42 -93.1252      43 -93.1584      44 -93.1264      45 -93.0100
      46 -93.1874      47 -93.0121      48 -93.2195      49 -93.1971      50 -93.2315
      51 -93.0275      52 -93.2304      53 -93.0251
 
 
 
 E-fermi :  -0.1437     XC(G=0):  -8.3636     alpha+bet : -8.6806

 val. band max:       -0.2108823794   @ k =   0.0000   0.0000   0.0000
 cond. band min:       4.9617363733   @ k =   0.0000   0.0000   0.0000
 fundamental gap:      5.1726187527
 Fermi energy:        -0.1437153317

 spin component 1

 k-point     1 :       0.0000    0.0000    0.0000
  band No.  band energies     occupation 
      1     -19.6433      1.00000
      2     -19.5985      1.00000
      3     -19.5853      1.00000
      4     -19.5674      1.00000
      5     -19.5536      1.00000
      6     -19.5400      1.00000
      7     -19.5316      1.00000
      8     -19.5181      1.00000
      9     -19.5035      1.00000
     10     -19.5018      1.00000
     11     -19.4956      1.00000
     12     -19.4936      1.00000
     13     -19.4693      1.00000
     14     -19.4665      1.00000
     15     -19.4635      1.00000
     16     -19.4485      1.00000
     17     -19.4451      1.00000
     18     -19.4351      1.00000
     19     -19.4177      1.00000
     20     -19.4020      1.00000
     21     -19.3892      1.00000
     22     -19.3826      1.00000
     23     -19.3501      1.00000
     24     -19.3235      1.00000
     25     -19.2585      1.00000
     26     -19.0847      1.00000
     27     -12.6437      1.00000
     28     -12.6303      1.00000
     29     -12.6066      1.00000
     30     -12.5989      1.00000
     31     -12.5897      1.00000
     32     -12.5808      1.00000
     33     -12.5645      1.00000
     34     -12.5531      1.00000
     35     -12.5289      1.00000
     36     -12.5265      1.00000
     37     -12.5236      1.00000
     38     -12.5205      1.00000
     39     -12.5073      1.00000
[...]


 VOLUME and BASIS-vectors are now :
 -----------------------------------------------------------------------------
  energy-cutoff  :      262.47
  volume of cell :     1827.64
      direct lattice vectors                 reciprocal lattice vectors
    12.226345917  0.000000000  0.000000000     0.081790586  0.000000000  0.000000000
     0.000000000 12.226345917  0.000000000     0.000000000  0.081790586  0.000000000
     0.000000000  0.000000000 12.226345917     0.000000000  0.000000000  0.081790586

  length of vectors
    12.226345917 12.226345917 12.226345917     0.081790586  0.081790586  0.081790586


 FORCES acting on ions
    electron-ion (+dipol)            ewald-force                    non-local-force                 convergence-correction
 -----------------------------------------------------------------------------------------------
   0.133E+00 0.236E+00 0.420E+02   -.137E+00 -.237E+00 -.424E+02   0.219E-02 0.256E-02 0.386E+00   0.178E-02 0.184E-02 -.591E-02
   0.340E-01 0.121E+00 -.421E+02   -.335E-01 -.117E+00 0.425E+02   -.163E-02 -.274E-02 -.379E+00   0.152E-02 -.101E-02 0.566E-02
   0.387E-01 0.421E+02 0.382E+00   -.398E-01 -.425E+02 -.378E+00   0.319E-02 0.386E+00 -.627E-02   0.105E-02 -.636E-02 0.135E-02
   -.266E+00 0.156E+02 0.153E+02   0.262E+00 -.156E+02 -.154E+02   0.947E-02 0.593E-01 0.611E-01   -.278E-02 -.498E-02 -.486E-02
   0.326E-01 0.158E+02 -.157E+02   -.322E-01 -.158E+02 0.157E+02   0.225E-02 0.484E-01 -.552E-01   -.181E-02 -.295E-02 0.360E-02
   0.491E+00 -.422E+02 -.334E+00   -.494E+00 0.426E+02 0.328E+00   -.813E-03 -.379E+00 0.781E-02   0.410E-02 0.436E-02 -.219E-02
   0.209E+00 -.158E+02 0.159E+02   -.206E+00 0.158E+02 -.159E+02   -.337E-02 -.502E-01 0.504E-01   -.602E-03 0.315E-02 -.225E-02
   -.314E+00 -.156E+02 -.156E+02   0.312E+00 0.156E+02 0.157E+02   0.326E-02 -.637E-01 -.537E-01   -.175E-02 0.425E-02 0.446E-02
   0.433E+02 0.381E+00 -.413E-01   -.437E+02 -.379E+00 0.427E-01   0.343E+00 -.374E-02 -.747E-04   -.291E-02 -.315E-03 -.515E-03
   0.153E+02 0.177E+00 0.153E+02   -.153E+02 -.174E+00 -.154E+02   0.669E-01 -.399E-02 0.571E-01   -.296E-02 0.398E-03 -.167E-02
   0.154E+02 0.443E+00 -.153E+02   -.155E+02 -.437E+00 0.154E+02   0.627E-01 -.697E-02 -.550E-01   -.319E-02 -.467E-03 0.248E-02
   0.152E+02 0.152E+02 0.948E-01   -.153E+02 -.153E+02 -.944E-01   0.669E-01 0.592E-01 -.281E-02   -.171E-02 -.854E-03 0.233E-03
   0.685E+01 0.681E+01 0.652E+01   -.696E+01 -.692E+01 -.664E+01   0.109E+00 0.109E+00 0.117E+00   0.791E-03 -.299E-02 -.422E-02
   0.689E+01 0.664E+01 -.659E+01   -.700E+01 -.675E+01 0.670E+01   0.110E+00 0.116E+00 -.122E+00   0.295E-03 -.183E-02 0.386E-02
   0.150E+02 -.154E+02 0.484E-01   -.150E+02 0.155E+02 -.492E-01   0.789E-01 -.618E-01 0.274E-02   -.362E-02 0.953E-03 -.104E-02
   0.680E+01 -.681E+01 0.672E+01   -.691E+01 0.692E+01 -.684E+01   0.109E+00 -.115E+00 0.118E+00   0.166E-03 0.241E-02 -.292E-02
   0.704E+01 -.692E+01 -.695E+01   -.714E+01 0.703E+01 0.705E+01   0.102E+00 -.111E+00 -.106E+00   -.410E-03 0.237E-02 0.399E-02
   -.429E+02 -.278E+00 -.471E+00   0.433E+02 0.272E+00 0.472E+00   -.390E+00 0.797E-02 0.175E-02   0.554E-03 0.315E-02 0.241E-02
   -.153E+02 0.175E+00 0.157E+02   0.154E+02 -.179E+00 -.158E+02   -.551E-01 0.596E-02 0.469E-01   -.243E-03 0.414E-03 0.916E-03
   -.153E+02 0.227E-02 -.153E+02   0.153E+02 0.248E-02 0.154E+02   -.591E-01 -.417E-02 -.554E-01   0.697E-03 -.459E-03 -.219E-02
   -.151E+02 0.155E+02 -.373E-01   0.152E+02 -.156E+02 0.339E-01   -.627E-01 0.518E-01 0.393E-02   0.147E-03 0.153E-02 0.608E-03
   -.638E+01 0.680E+01 0.673E+01   0.650E+01 -.692E+01 -.686E+01   -.119E+00 0.121E+00 0.125E+00   0.197E-02 0.299E-03 -.170E-02
   -.673E+01 0.698E+01 -.688E+01   0.684E+01 -.710E+01 0.701E+01   -.111E+00 0.107E+00 -.115E+00   0.146E-02 0.558E-03 0.133E-02
   -.155E+02 -.151E+02 -.410E+00   0.155E+02 0.152E+02 0.413E+00   -.520E-01 -.629E-01 -.126E-03   -.368E-02 -.327E-02 -.884E-03
   -.654E+01 -.718E+01 0.732E+01   0.666E+01 0.729E+01 -.744E+01   -.120E+00 -.103E+00 0.107E+00   0.494E-03 -.447E-03 0.258E-03
   -.620E+01 -.668E+01 -.681E+01   0.632E+01 0.681E+01 0.693E+01   -.129E+00 -.121E+00 -.121E+00   0.216E-02 0.232E-03 0.812E-03
   0.377E+02 0.377E+02 0.375E+02   -.378E+02 -.378E+02 -.376E+02   0.117E+00 0.133E+00 0.137E+00   -.764E-02 -.970E-02 -.112E-01
   0.164E+02 0.160E+02 0.169E+00   -.165E+02 -.161E+02 -.166E+00   0.512E-01 0.568E-01 -.610E-02   0.187E-02 -.700E-02 -.306E-03
   0.380E+02 0.376E+02 -.374E+02   -.381E+02 -.377E+02 0.375E+02   0.113E+00 0.134E+00 -.136E+00   -.587E-02 -.815E-02 0.141E-01
   0.162E+02 -.621E-01 0.159E+02   -.162E+02 0.599E-01 -.159E+02   0.503E-01 0.424E-02 0.503E-01   0.419E-02 -.720E-03 -.790E-02
   0.546E+01 -.101E+00 -.994E-01   -.546E+01 0.986E-01 0.975E-01   0.938E-02 0.622E-03 0.354E-02   -.205E-02 0.989E-03 0.255E-03
   0.161E+02 0.171E-01 -.158E+02   -.162E+02 -.202E-01 0.158E+02   0.503E-01 0.204E-02 -.541E-01   0.397E-02 0.118E-02 0.752E-02
   0.380E+02 -.378E+02 0.376E+02   -.381E+02 0.379E+02 -.377E+02   0.123E+00 -.135E+00 0.142E+00   -.387E-02 0.119E-01 -.155E-01
   0.163E+02 -.161E+02 -.355E+00   -.164E+02 0.162E+02 0.352E+00   0.497E-01 -.544E-01 0.674E-02   0.223E-02 0.640E-02 -.584E-04
   0.377E+02 -.376E+02 -.375E+02   -.378E+02 0.377E+02 0.377E+02   0.124E+00 -.136E+00 -.140E+00   -.362E-02 0.873E-02 0.105E-01
   -.811E+00 0.158E+02 0.156E+02   0.813E+00 -.158E+02 -.157E+02   0.701E-02 0.488E-01 0.494E-01   -.352E-02 0.150E-02 -.299E-02
   -.194E+00 0.559E+01 0.693E-02   0.189E+00 -.559E+01 -.518E-02   0.596E-02 0.155E-01 0.264E-03   0.164E-02 -.563E-02 -.143E-02
   -.581E+00 0.156E+02 -.155E+02   0.583E+00 -.156E+02 0.156E+02   0.339E-02 0.477E-01 -.521E-01   -.338E-02 0.200E-03 0.353E-02
   -.530E+00 -.169E+00 0.563E+01   0.523E+00 0.172E+00 -.563E+01   0.135E-01 0.123E-02 0.110E-01   0.134E-02 -.281E-02 -.891E-02
   0.106E+00 -.720E-01 0.243E-02   -.115E+00 0.711E-01 -.206E-02   0.444E-02 0.506E-03 0.665E-03   0.473E-02 0.122E-04 -.479E-03
   -.370E+00 -.222E+00 -.560E+01   0.362E+00 0.221E+00 0.559E+01   0.121E-01 0.654E-02 -.125E-01   0.155E-02 -.173E-02 0.904E-02
   -.518E+00 -.154E+02 0.154E+02   0.519E+00 0.154E+02 -.155E+02   0.584E-03 -.557E-01 0.509E-01   -.119E-02 0.277E-02 -.252E-02
   -.270E+00 -.551E+01 0.107E+00   0.264E+00 0.551E+01 -.106E+00   0.825E-02 -.184E-01 -.165E-02   0.131E-02 0.719E-02 0.725E-04
   0.295E-02 -.153E+02 -.155E+02   0.167E-02 0.153E+02 0.155E+02   -.827E-03 -.566E-01 -.509E-01   -.410E-02 0.166E-02 0.150E-02
   -.369E+02 0.374E+02 0.374E+02   0.370E+02 -.375E+02 -.375E+02   -.127E+00 0.119E+00 0.117E+00   0.109E-01 -.494E-02 -.776E-02
   -.166E+02 0.161E+02 -.265E+00   0.166E+02 -.161E+02 0.266E+00   -.482E-01 0.636E-01 0.540E-02   -.195E-02 -.262E-02 -.259E-02
   -.373E+02 0.371E+02 -.370E+02   0.374E+02 -.372E+02 0.371E+02   -.115E+00 0.118E+00 -.124E+00   0.990E-02 -.184E-02 0.810E-02
   -.164E+02 -.952E+00 0.162E+02   0.165E+02 0.955E+00 -.162E+02   -.404E-01 0.218E-01 0.538E-01   -.574E-02 -.103E-01 -.219E-03
   -.565E+01 0.143E+00 -.356E-01   0.566E+01 -.143E+00 0.347E-01   -.134E-01 -.509E-02 0.196E-02   -.119E-02 0.121E-02 0.618E-04
   -.166E+02 0.124E+00 -.162E+02   0.166E+02 -.124E+00 0.162E+02   -.409E-01 -.606E-03 -.550E-01   -.598E-02 -.893E-03 -.171E-03
   -.373E+02 -.371E+02 0.371E+02   0.375E+02 0.372E+02 -.372E+02   -.117E+00 -.121E+00 0.121E+00   0.826E-02 0.409E-02 -.560E-02
   -.166E+02 -.163E+02 0.397E+00   0.167E+02 0.163E+02 -.400E+00   -.479E-01 -.584E-01 -.369E-02   -.301E-02 0.183E-02 0.429E-02
   -.375E+02 -.374E+02 -.374E+02   0.376E+02 0.375E+02 0.376E+02   -.126E+00 -.115E+00 -.125E+00   0.147E-01 0.396E-02 0.358E-02
 -----------------------------------------------------------------------------------------------
   0.800E-02 0.210E-01 -.241E-02   -.568E-13 -.853E-13 -.355E-13   0.310E-01 0.375E-02 0.393E-02   0.505E-02 -.274E-02 -.336E-02
 
 
 POSITION                                       TOTAL-FORCE (eV/Angst)
 -----------------------------------------------------------------------------------
     12.22426     12.22086      3.86713        -0.000531      0.002951     -0.001084
     12.22575     12.22578      8.36161        -0.000427     -0.000425      0.007220
     12.22287      3.86284      0.00157         0.002265     -0.010809     -0.001014
     12.22355      4.07271      4.08095         0.001180     -0.001321     -0.004937
     12.22348      4.08002      8.14715        -0.000014     -0.008444      0.006479
     12.22403      8.34121     12.22616        -0.000830      0.006092      0.000331
     12.22472      8.14270      4.07853        -0.001548      0.006426     -0.005729
     12.22620      8.14766      8.14602        -0.001435      0.002780      0.005866
      3.90954     12.22617     12.22624        -0.014733     -0.002179      0.000864
      4.07067     12.22525      4.07989         0.005038     -0.000765     -0.004564
      4.07305     12.22580      8.14735         0.003199     -0.002096      0.003974
      4.07221      4.07912      0.00247         0.001771     -0.004868     -0.002137
      4.07765      4.08058      4.08413         0.001654     -0.001427     -0.001652
      4.07798      4.08063      8.14556         0.001142     -0.000840     -0.000409
      4.06975      8.14528     12.22510         0.006954      0.004712      0.000938
      4.07969      8.14470      4.08016        -0.000720     -0.001485      0.000563
      4.08146      8.14311      8.14199        -0.003778      0.001734      0.004994
      8.36374     12.22168     12.22597         0.010465      0.005009      0.005001
      8.14494     12.22111      4.08380         0.000559      0.002354     -0.010916
      8.14825     12.22578      8.14948        -0.003942     -0.000290      0.001745
      8.14371      4.07879     12.22612        -0.000439     -0.008344      0.001132
      8.14112      4.07711      4.08473        -0.001288     -0.000587     -0.005911
      8.14066      4.08401      8.13962         0.000428     -0.007670      0.009634
      8.14084      8.14371      0.00103         0.005728      0.003875      0.001479
      8.14245      8.13560      4.08877        -0.003367      0.009975     -0.010830
      8.14431      8.14370      8.14475        -0.005138      0.000252      0.003032
      2.11596      2.10778      2.11141        -0.006542      0.002505      0.003276
      2.03039      2.03185      6.11840        -0.002149      0.002400     -0.003599
      2.11841      2.10935     10.11875        -0.009296      0.002509     -0.004163
      2.02877      6.10898      2.03733        -0.002456      0.000881      0.000194
      2.03439      6.11112      6.11209         0.003553     -0.000803      0.001863
      2.02856      6.11075     10.19118        -0.002459     -0.000260     -0.002201
      2.11420     10.11232      2.10495        -0.003733     -0.001306      0.007153
      2.03147     10.18819      6.10776        -0.003202     -0.002040      0.004174
      2.11636     10.11281     10.11630        -0.004543     -0.002642     -0.004678
      6.10980      2.03523      2.03882         0.004236     -0.001654      0.000315
      6.10613      2.03346      6.11472         0.001136      0.006528      0.000625
      6.11237      2.03598     10.19124         0.002053     -0.001224     -0.000969
      6.10204      6.11143      2.03920         0.006350      0.000148      0.005423
      6.10876      6.11133      6.11361        -0.000837     -0.000811      0.000588
      6.10247      6.11030     10.18885         0.005060      0.003441     -0.005937
      6.11301     10.19032      2.03696         0.000019     -0.004165      0.001498
      6.10563     10.18919      6.11533         0.002529     -0.009673     -0.000713
      6.11663     10.19154     10.19177        -0.001142     -0.004694     -0.000789
     10.11172      2.10866      2.11736        -0.003538     -0.000952     -0.005642
     10.18526      2.02951      6.11221         0.001807      0.004656      0.003820
     10.10898      2.11537     10.11185         0.004214     -0.002954     -0.000340
     10.18004      6.09624      2.03815         0.005606      0.013613      0.000590
     10.18943      6.11257      6.11299        -0.007527     -0.004450      0.001209
     10.17926      6.11174     10.18928         0.004905     -0.001524     -0.000998
     10.10818     10.10113      2.11684         0.004158      0.004292     -0.003150
     10.18486     10.18791      6.11807         0.001679     -0.003324     -0.002303
     10.11483     10.10555     10.11489        -0.002076      0.006894      0.000683
 -----------------------------------------------------------------------------------
    total drift:                                0.044072      0.021999     -0.001843


--------------------------------------------------------------------------------------------------------



  FREE ENERGIE OF THE ION-ELECTRON SYSTEM (eV)
  ---------------------------------------------------
  free  energy   TOTEN  =      -179.23837376 eV

  energy  without entropy=     -179.12099748  energy(sigma->0) =     -179.17968562
 d Force = 0.1765811E-02[ 0.990E-03, 0.254E-02]  d Energy = 0.1894385E-02-0.129E-03
 d Force = 0.4290758E+00[ 0.394E+00, 0.464E+00]  d Ewald  = 0.4290586E+00 0.172E-04
 


--------------------------------------------------------------------------------------------------------


    POTLOK:  cpu time      2.1239: real time      2.1285


--------------------------------------------------------------------------------------------------------




--------------------------------------------------------------------------------------------------------


  
 reached required accuracy - stopping structural energy minimisation
     LOOP+:  cpu time     18.2484: real time     18.2902
    4ORBIT:  cpu time      0.0000: real time      0.0000



 total charge

# of ion       s       p       d       tot
------------------------------------------
    1        1.973   4.704   0.031   6.709
    2        1.972   4.704   0.031   6.707
    3        1.971   4.704   0.031   6.706
    4        1.966   4.702   0.035   6.704
    5        1.966   4.702   0.035   6.704
    6        1.977   4.704   0.031   6.713
    7        1.966   4.702   0.035   6.704
    8        1.966   4.702   0.035   6.704
    9        1.969   4.704   0.031   6.704
   10        1.966   4.702   0.036   6.704
   11        1.966   4.702   0.036   6.704
   12        1.966   4.702   0.036   6.704
   13        1.967   4.702   0.036   6.705
   14        1.967   4.702   0.036   6.705
   15        1.966   4.702   0.036   6.704
   16        1.967   4.702   0.036   6.705
   17        1.967   4.702   0.036   6.705
   18        1.971   4.704   0.031   6.706
   19        1.967   4.702   0.035   6.704
   20        1.966   4.702   0.035   6.704
   21        1.966   4.702   0.035   6.704
   22        1.967   4.702   0.036   6.705
   23        1.967   4.702   0.036   6.706
   24        1.967   4.702   0.035   6.704
   25        1.968   4.702   0.036   6.706
   26        1.967   4.702   0.036   6.705
   27        1.583   3.550   0.000   5.132
   28        1.582   3.544   0.000   5.126
   29        1.583   3.550   0.000   5.132
   30        1.582   3.544   0.000   5.126
   31        1.582   3.551   0.000   5.133
   32        1.582   3.544   0.000   5.126
   33        1.583   3.549   0.000   5.132
   34        1.582   3.544   0.000   5.126
   35        1.583   3.549   0.000   5.132
   36        1.582   3.544   0.000   5.126
   37        1.582   3.551   0.000   5.133
   38        1.582   3.544   0.000   5.126
   39        1.582   3.551   0.000   5.133
   40        1.582   3.553   0.000   5.135
   41        1.582   3.551   0.000   5.133
   42        1.582   3.544   0.000   5.126
   43        1.582   3.551   0.000   5.133
   44        1.582   3.544   0.000   5.126
   45        1.583   3.550   0.000   5.133
   46        1.582   3.544   0.000   5.126
   47        1.583   3.550   0.000   5.133
   48        1.582   3.544   0.000   5.126
   49        1.582   3.551   0.000   5.133
   50        1.582   3.544   0.000   5.126
   51        1.583   3.550   0.000   5.133
   52        1.582   3.544   0.000   5.126
   53        1.583   3.550   0.000   5.133
--------------------------------------------------
tot         93.885 218.052   0.905 312.842



 magnetization (x)

# of ion       s       p       d       tot
------------------------------------------
    1        0.000   0.000  -0.000   0.000
    2       -0.000  -0.000   0.000  -0.000
    3       -0.000  -0.000  -0.000  -0.000
    4       -0.000   0.000  -0.000  -0.000
    5        0.000   0.000   0.000   0.000
    6        0.000   0.000  -0.000   0.000
    7       -0.000   0.000   0.000  -0.000
    8       -0.000  -0.000   0.000  -0.000
    9        0.000   0.000  -0.000   0.000
   10        0.000   0.000   0.000   0.000
   11        0.000   0.000   0.000   0.000
   12        0.000  -0.000  -0.000   0.000
   13        0.000   0.000   0.000   0.000
   14        0.000   0.000  -0.000   0.000
   15       -0.000  -0.000   0.000  -0.000
   16        0.000  -0.000   0.000   0.000
   17        0.000   0.000   0.000   0.000
   18        0.000  -0.000  -0.000   0.000
   19        0.000   0.000  -0.000   0.000
   20        0.000   0.000   0.000   0.000
   21       -0.000  -0.000   0.000  -0.000
   22        0.000   0.000  -0.000   0.000
   23        0.000   0.000  -0.000   0.000
   24       -0.000  -0.000   0.000  -0.000
   25        0.000   0.000  -0.000   0.000
   26       -0.000  -0.000   0.000  -0.000
   27       -0.000  -0.000   0.000  -0.000
   28       -0.000   0.000   0.000   0.000
   29        0.000  -0.000   0.000  -0.000
   30       -0.000   0.000   0.000   0.000
   31       -0.000   0.000   0.000   0.000
   32       -0.000   0.000   0.000   0.000
   33        0.000  -0.000   0.000  -0.000
   34        0.000   0.000   0.000   0.000
   35        0.000  -0.000   0.000  -0.000
   36        0.000   0.000   0.000   0.000
   37       -0.000   0.000   0.000   0.000
   38        0.000   0.000   0.000   0.000
   39       -0.000   0.000   0.000   0.000
   40        0.000  -0.000   0.000  -0.000
   41        0.000   0.000   0.000   0.000
   42        0.000  -0.000   0.000  -0.000
   43       -0.000   0.000   0.000   0.000
   44       -0.000  -0.000   0.000  -0.000
   45        0.000  -0.000   0.000  -0.000
   46       -0.000   0.000   0.000   0.000
   47        0.000  -0.000   0.000  -0.000
   48       -0.000   0.000   0.000   0.000
   49        0.000   0.000   0.000   0.000
   50        0.000   0.000   0.000   0.000
   51        0.000  -0.000   0.000  -0.000
   52       -0.000   0.000   0.000   0.000
   53        0.000  -0.000   0.000  -0.000
--------------------------------------------------
tot          0.000   0.000   0.000   0.000
 

 total amount of memory used by VASP MPI-rank0   178875. kBytes
=======================================================================

   base                                    :      30000. kBytes
   nonlr-proj                              :       6377. kBytes
   fftplans                                :      15598. kBytes
   grid                                    :      44900. kBytes
   one-center                              :        859. kBytes
   wavefun                                 :      81141. kBytes
 
  
  
 General timing and accounting informations for this job:
 ========================================================
  
                  Total CPU time used (sec):      252.338
                            User time (sec):      249.749
                          System time (sec):        2.589
                         Elapsed time (sec):      259.406
  
                   Maximum memory used (kb):     1935968.
                   Average memory used (kb):          N/A
  
                          Minor page faults:       240932
                          Major page faults:         7004
                 Voluntary context switches:        31876
