<?xml version="1.0" encoding="ISO-8859-1"?>
<modeling>
 <generator>
  <i name="program" type="string">vasp </i>
  <i name="version" type="string">6.5.1  </i>
  <i name="subversion" type="string">10Mar25 (build May 13 2025 11:33:44) complex                          parallel </i>
  <i name="platform" type="string">LinuxNV </i>
  <i name="date" type="string">2026 05 13 </i>
  <i name="time" type="string">15:16:29 </i>
 </generator>
 <incar>
  <i type="string" name="PREC">Normal</i>
  <i type="string" name="ALGO">Normal</i>
  <i type="int" name="ISPIN">     2</i>
  <i type="int" name="NELM">   100</i>
  <i type="int" name="IBRION">     2</i>
  <i name="EDIFF">      0.00001000</i>
  <i name="EDIFFG">     -0.03000000</i>
  <i type="int" name="NSW">   300</i>
  <i type="int" name="ISIF">     2</i>
  <i name="ENCUT">    262.47200000</i>
  <i type="string" name="LREAL">Auto</i>
  <i type="int" name="ISMEAR">     0</i>
  <i name="SIGMA">      0.10000000</i>
  <i type="logical" name="LWAVE"> F  </i>
  <i type="logical" name="LCHARG"> F  </i>
  <i type="int" name="LORBIT">    10</i>
  <i type="logical" name="LASPH"> T  </i>
  <i type="string" name="GGA">Ps</i>
 </incar>
 <primitive_cell>
  <structure name="primitive_cell" >
   <crystal>
    <varray name="basis" >
     <v>      12.22634592       0.00000000       0.00000000 </v>
     <v>       0.00000000      12.22634592       0.00000000 </v>
     <v>       0.00000000       0.00000000      12.22634592 </v>
    </varray>
    <i name="volume">   1827.63740156 </i>
    <varray name="rec_basis" >
     <v>       0.08179059       0.00000000       0.00000000 </v>
     <v>       0.00000000       0.08179059       0.00000000 </v>
     <v>       0.00000000       0.00000000       0.08179059 </v>
    </varray>
   </crystal>
   <varray name="positions" >
    <v>       0.99546965       0.99671109       0.33583178 </v>
    <v>       0.99874813       0.99910992       0.66531317 </v>
    <v>       0.99815692       0.33796259       0.00067203 </v>
    <v>       0.00000000       0.33333333       0.33333333 </v>
    <v>       0.00000000       0.33333333       0.66666667 </v>
    <v>       0.99067472       0.65588139       0.99921596 </v>
    <v>       0.00000000       0.66666667       0.33333333 </v>
    <v>       0.00000000       0.66666667       0.66666667 </v>
    <v>       0.34378612       0.00109218       0.00143563 </v>
    <v>       0.33333333       0.00000000       0.33333333 </v>
    <v>       0.33333333       0.00000000       0.66666667 </v>
    <v>       0.33333333       0.33333333       0.00000000 </v>
    <v>       0.33333333       0.33333333       0.33333333 </v>
    <v>       0.33333333       0.33333333       0.66666667 </v>
    <v>       0.33333333       0.66666667       0.00000000 </v>
    <v>       0.33333333       0.66666667       0.33333333 </v>
    <v>       0.33333333       0.66666667       0.66666667 </v>
    <v>       0.67830882       0.99966398       0.99803272 </v>
    <v>       0.66666667       0.00000000       0.33333333 </v>
    <v>       0.66666667       0.00000000       0.66666667 </v>
    <v>       0.66666667       0.33333333       0.00000000 </v>
    <v>       0.66666667       0.33333333       0.33333333 </v>
    <v>       0.66666667       0.33333333       0.66666667 </v>
    <v>       0.66666667       0.66666667       0.00000000 </v>
    <v>       0.66666667       0.66666667       0.33333333 </v>
    <v>       0.66666667       0.66666667       0.66666667 </v>
    <v>       0.16667459       0.16610873       0.16931116 </v>
    <v>       0.16666667       0.16666667       0.50000000 </v>
    <v>       0.16490133       0.17191576       0.83355027 </v>
    <v>       0.16666667       0.50000000       0.16666667 </v>
    <v>       0.16666667       0.50000000       0.50000000 </v>
    <v>       0.16666667       0.50000000       0.83333333 </v>
    <v>       0.17027481       0.83391222       0.16379639 </v>
    <v>       0.16666667       0.83333333       0.50000000 </v>
    <v>       0.17146645       0.83009584       0.83151707 </v>
    <v>       0.50000000       0.16666667       0.16666667 </v>
    <v>       0.50000000       0.16666667       0.50000000 </v>
    <v>       0.50000000       0.16666667       0.83333333 </v>
    <v>       0.50000000       0.50000000       0.16666667 </v>
    <v>       0.50000000       0.50000000       0.50000000 </v>
    <v>       0.50000000       0.50000000       0.83333333 </v>
    <v>       0.50000000       0.83333333       0.16666667 </v>
    <v>       0.50000000       0.83333333       0.50000000 </v>
    <v>       0.50000000       0.83333333       0.83333333 </v>
    <v>       0.82542005       0.15925158       0.16270216 </v>
    <v>       0.83333333       0.16666667       0.50000000 </v>
    <v>       0.83075384       0.16619309       0.83451521 </v>
    <v>       0.83333333       0.50000000       0.16666667 </v>
    <v>       0.83333333       0.50000000       0.50000000 </v>
    <v>       0.83333333       0.50000000       0.83333333 </v>
    <v>       0.82927230       0.82841797       0.16215346 </v>
    <v>       0.83333333       0.83333333       0.50000000 </v>
    <v>       0.82555942       0.84084246       0.84539751 </v>
   </varray>
  </structure>
  <varray name="primitive_index" >
   <v type="int" >        1 </v>
   <v type="int" >        2 </v>
   <v type="int" >        3 </v>
   <v type="int" >        4 </v>
   <v type="int" >        5 </v>
   <v type="int" >        6 </v>
   <v type="int" >        7 </v>
   <v type="int" >        8 </v>
   <v type="int" >        9 </v>
   <v type="int" >       10 </v>
   <v type="int" >       11 </v>
   <v type="int" >       12 </v>
   <v type="int" >       13 </v>
   <v type="int" >       14 </v>
   <v type="int" >       15 </v>
   <v type="int" >       16 </v>
   <v type="int" >       17 </v>
   <v type="int" >       18 </v>
   <v type="int" >       19 </v>
   <v type="int" >       20 </v>
   <v type="int" >       21 </v>
   <v type="int" >       22 </v>
   <v type="int" >       23 </v>
   <v type="int" >       24 </v>
   <v type="int" >       25 </v>
   <v type="int" >       26 </v>
   <v type="int" >       27 </v>
   <v type="int" >       28 </v>
   <v type="int" >       29 </v>
   <v type="int" >       30 </v>
   <v type="int" >       31 </v>
   <v type="int" >       32 </v>
   <v type="int" >       33 </v>
   <v type="int" >       34 </v>
   <v type="int" >       35 </v>
   <v type="int" >       36 </v>
   <v type="int" >       37 </v>
   <v type="int" >       38 </v>
   <v type="int" >       39 </v>
   <v type="int" >       40 </v>
   <v type="int" >       41 </v>
   <v type="int" >       42 </v>
   <v type="int" >       43 </v>
   <v type="int" >       44 </v>
   <v type="int" >       45 </v>
   <v type="int" >       46 </v>
   <v type="int" >       47 </v>
   <v type="int" >       48 </v>
   <v type="int" >       49 </v>
   <v type="int" >       50 </v>
   <v type="int" >       51 </v>
   <v type="int" >       52 </v>
   <v type="int" >       53 </v>
  </varray>
 </primitive_cell>
 <kpoints>
  <generation param="Gamma">
   <v type="int" name="divisions">       1        1        1 </v>
   <v name="usershift">      0.00000000       0.00000000       0.00000000 </v>
   <v name="genvec1">      1.00000000       0.00000000       0.00000000 </v>
   <v name="genvec2">      0.00000000       1.00000000       0.00000000 </v>
   <v name="genvec3">      0.00000000       0.00000000       1.00000000 </v>
   <v name="shift">      0.00000000       0.00000000       0.00000000 </v>
  </generation>
  <varray name="kpointlist" >
   <v>       0.00000000       0.00000000       0.00000000 </v>
  </varray>
  <varray name="weights" >
   <v>       1.00000000 </v>
  </varray>
 </kpoints>
 <parameters>
  <separator name="general" >
   <i type="string" name="SYSTEM">unknown system</i>
   <i type="logical" name="LCOMPAT"> F  </i>
  </separator>
  <separator name="electronic" >
   <i type="string" name="PREC">normal</i>
   <i name="ENMAX">    262.47200000</i>
   <i name="ENAUG">    407.93300000</i>
   <i name="EDIFF">      0.00001000</i>
   <i type="int" name="IALGO">    38</i>
   <i type="int" name="IWAVPR">    11</i>
   <i type="int" name="NBANDS">   280</i>
   <i type="int" name="NBANDSLOW">    -1</i>
   <i type="int" name="NBANDSHIGH">    -1</i>
   <i name="NELECT">    423.00000000</i>
   <i type="int" name="TURBO">     0</i>
   <i type="int" name="IRESTART">     0</i>
   <i type="int" name="NREBOOT">     0</i>
   <i type="int" name="NMIN">     0</i>
   <i name="EREF">      0.00000000</i>
   <separator name="electronic smearing" >
    <i type="int" name="ISMEAR">     0</i>
    <i name="SIGMA">      0.10000000</i>
    <i name="KSPACING">      0.50000000</i>
    <i type="logical" name="KGAMMA"> T  </i>
    <i type="logical" name="KBLOWUP"> T  </i>
   </separator>
   <separator name="electronic projectors" >
    <i type="logical" name="LREAL"> T  </i>
    <v name="ROPT">     -0.00050000     -0.00050000</v>
    <i type="int" name="LMAXPAW">  -100</i>
    <i type="int" name="LMAXMIX">     2</i>
    <i type="logical" name="NLSPLINE"> F  </i>
   </separator>
   <separator name="electronic startup" >
    <i type="int" name="ISTART">     0</i>
    <i type="int" name="ICHARG">     2</i>
    <i type="int" name="INIWAV">     1</i>
   </separator>
   <separator name="electronic spin" >
    <i type="int" name="ISPIN">     2</i>
    <i type="logical" name="LNONCOLLINEAR"> F  </i>
    <v name="MAGMOM">      1.00000000      1.00000000      1.00000000      1.00000000      1.00000000      1.00000000      1.00000000      1.00000000      1.00000000      1.00000000      1.00000000      1.00000000      1.00000000      1.00000000      1.00000000      1.00000000      1.00000000      1.00000000      1.00000000      1.00000000
      1.00000000      1.00000000      1.00000000      1.00000000      1.00000000      1.00000000      1.00000000      1.00000000      1.00000000      1.00000000      1.00000000      1.00000000      1.00000000      1.00000000      1.00000000      1.00000000      1.00000000      1.00000000      1.00000000      1.00000000
      1.00000000      1.00000000      1.00000000      1.00000000      1.00000000      1.00000000      1.00000000      1.00000000      1.00000000      1.00000000      1.00000000      1.00000000      1.00000000</v>
    <i name="NUPDOWN">     -1.00000000</i>
    <i type="logical" name="LSORBIT"> F  </i>
    <v name="SAXIS">      0.00000000      0.00000000      1.00000000</v>
    <i type="logical" name="LSPIRAL"> F  </i>
    <v name="QSPIRAL">      0.00000000      0.00000000      0.00000000</v>
    <i type="logical" name="LZEROZ"> F  </i>
   </separator>
   <separator name="electronic exchange-correlation" >
    <i type="logical" name="LASPH"> T  </i>
   </separator>
   <separator name="electronic convergence" >
    <i type="int" name="NELM">   100</i>
    <i type="int" name="NELMDL">    -5</i>
    <i type="int" name="NELMIN">     2</i>
    <i name="ENINI">    262.47200000</i>
    <separator name="electronic convergence detail" >
     <i type="logical" name="LDIAG"> T  </i>
     <i type="logical" name="LSUBROT"> F  </i>
     <i type="logical" name="LROBUST"> F  </i>
     <i type="int" name="ISEARCH">     0</i>
     <i name="WEIMIN">      0.00100000</i>
     <i name="EBREAK">      0.00000001</i>
     <i name="DEPER">      0.30000000</i>
     <i type="int" name="NRMM">     4</i>
     <i name="TIME">      0.40000000</i>
    </separator>
   </separator>
   <separator name="electronic mixer" >
    <i name="AMIX">      0.40000000</i>
    <i name="BMIX">      1.00000000</i>
    <i name="AMIN">      0.10000000</i>
    <i name="AMIX_MAG">      1.60000000</i>
    <i name="BMIX_MAG">      1.00000000</i>
    <separator name="electronic mixer details" >
     <i type="int" name="IMIX">     4</i>
     <i type="logical" name="MIXFIRST"> F  </i>
     <i type="int" name="MAXMIX">   -45</i>
     <i name="WC">    100.00000000</i>
     <i type="int" name="INIMIX">     1</i>
     <i type="int" name="MIXPRE">     1</i>
     <i type="int" name="MREMOVE">     5</i>
    </separator>
   </separator>
   <separator name="electronic dipolcorrection" >
    <i type="logical" name="LDIPOL"> F  </i>
    <i type="logical" name="LMONO"> F  </i>
    <i type="int" name="IDIPOL">     0</i>
    <i name="EPSILON">      1.00000000</i>
    <v name="DIPOL">   -100.00000000   -100.00000000   -100.00000000</v>
    <i name="EFIELD">      0.00000000</i>
    <i type="logical" name="LVACPOTAV"> F  </i>
   </separator>
  </separator>
  <separator name="grids" >
   <i type="int" name="NGX">    48</i>
   <i type="int" name="NGY">    48</i>
   <i type="int" name="NGZ">    48</i>
   <i type="int" name="NGXF">    96</i>
   <i type="int" name="NGYF">    96</i>
   <i type="int" name="NGZF">    96</i>
   <i type="logical" name="ADDGRID"> F  </i>
  </separator>
  <separator name="ionic" >
   <i type="int" name="NSW">   300</i>
   <i type="int" name="IBRION">     2</i>
   <i type="int" name="MDALGO">     0</i>
   <i type="int" name="ISIF">     2</i>
   <i name="PSTRESS">      0.00000000</i>
   <i name="EDIFFG">     -0.03000000</i>
   <i type="int" name="NFREE">     1</i>
   <i name="POTIM">      0.50000000</i>
   <i name="SMASS">     -3.00000000</i>
   <i name="SCALEE">      1.00000000</i>
  </separator>
  <separator name="ionic md" >
   <i name="TEBEG">      0.00010000</i>
   <i name="TEEND">      0.00010000</i>
   <i type="int" name="NBLOCK">     1</i>
   <i type="int" name="KBLOCK">   300</i>
   <i type="int" name="NPACO">   256</i>
   <i name="APACO">     10.00000000</i>
  </separator>
  <separator name="symmetry" >
   <i type="int" name="ISYM">     2</i>
   <i name="SYMPREC">      0.00001000</i>
  </separator>
  <separator name="dos" >
   <i type="int" name="LORBIT">    10</i>
   <v name="RWIGS">     -1.00000000     -1.00000000</v>
   <i type="int" name="NEDOS">   301</i>
   <i name="EMIN">     10.00000000</i>
   <i name="EMAX">    -10.00000000</i>
   <i name="EFERMI">      0.00000000</i>
  </separator>
  <separator name="writing" >
   <i type="int" name="NWRITE">     2</i>
   <i type="logical" name="LWAVE"> F  </i>
   <i type="logical" name="LDOWNSAMPLE"> F  </i>
   <i type="logical" name="LCHARG"> F  </i>
   <i type="logical" name="LPARD"> F  </i>
   <i type="logical" name="LVTOT"> F  </i>
   <i type="logical" name="LVHAR"> F  </i>
   <i type="logical" name="LELF"> F  </i>
   <i type="logical" name="LOPTICS"> F  </i>
   <v name="STM">      0.00000000      0.00000000      0.00000000      0.00000000      0.00000000      0.00000000      0.00000000</v>
  </separator>
  <separator name="performance" >
   <i type="int" name="NPAR">     2</i>
   <i type="int" name="NSIM">     4</i>
   <i type="int" name="NBLK">    -1</i>
   <i type="logical" name="LPLANE"> T  </i>
   <i type="logical" name="LSCALAPACK"> T  </i>
   <i type="logical" name="LSCAAWARE"> F  </i>
   <i type="logical" name="LSCALU"> F  </i>
   <i type="logical" name="LASYNC"> F  </i>
   <i type="logical" name="LORBITALREAL"> F  </i>
  </separator>
  <separator name="miscellaneous" >
   <i type="int" name="IDIOT">     3</i>
   <i type="int" name="PHON_NSTRUCT">    -1</i>
   <i type="logical" name="LMUSIC"> F  </i>
   <v name="POMASS">    132.90000000     35.45300000</v>
   <v name="DARWINR">      0.00000000      0.00000000</v>
   <v name="DARWINV">      1.00000000      1.00000000</v>
   <i type="logical" name="LCORR"> T  </i>
  </separator>
  <i type="logical" name="GGA_COMPAT"> T  </i>
  <i type="logical" name="LBERRY"> F  </i>
  <i type="int" name="ICORELEVEL">     0</i>
  <i type="logical" name="LDAU"> F  </i>
  <i type="int" name="I_CONSTRAINED_M">     0</i>
  <separator name="electronic exchange-correlation" >
   <i type="string" name="GGA    ">PS</i>
   <i type="string" name="XC_C">1</i>
   <i type="int" name="VOSKOWN">     0</i>
   <i type="logical" name="LHFCALC"> F  </i>
   <i type="string" name="PRECFOCK"></i>
   <i type="logical" name="LSYMGRAD"> F  </i>
   <i type="logical" name="LHFONE"> F  </i>
   <i type="logical" name="LRHFCALC"> F  </i>
   <i type="logical" name="LTHOMAS"> F  </i>
   <i type="logical" name="LMODELHF"> F  </i>
   <i type="logical" name="LFOCKACE"> F  </i>
   <i name="ENCUT4O">     -1.00000000</i>
   <i type="int" name="EXXOEP">     0</i>
   <i type="int" name="FOURORBIT">     0</i>
   <i name="AEXX">      0.00000000</i>
   <i name="HFALPHA">      0.00000000</i>
   <i name="MCALPHA">      0.00000000</i>
   <i name="ALDAX">      1.00000000</i>
   <i name="AGGAX">      1.00000000</i>
   <i name="AMGGAX">      1.00000000</i>
   <i name="ALDAC">      1.00000000</i>
   <i name="AGGAC">      1.00000000</i>
   <i name="AMGGAC">      1.00000000</i>
   <i type="int" name="NKREDX">     1</i>
   <i type="int" name="NKREDY">     1</i>
   <i type="int" name="NKREDZ">     1</i>
   <i type="logical" name="SHIFTRED"> F  </i>
   <i type="logical" name="ODDONLY"> F  </i>
   <i type="logical" name="EVENONLY"> F  </i>
   <i type="int" name="LMAXFOCK">     0</i>
   <i type="int" name="NMAXFOCKAE">     0</i>
   <i type="logical" name="LFOCKAEDFT"> F  </i>
   <i name="HFSCREEN">      0.00000000</i>
   <i name="HFSCREENC">      0.00000000</i>
   <i type="int" name="NBANDSGWLOW">     0</i>
  </separator>
  <separator name="vdW DFT" >
   <i type="logical" name="LUSE_VDW"> F  </i>
   <i type="int" name="IVDW_NL">    -1</i>
   <i type="logical" name="LSPIN_VDW"> F  </i>
   <i name="ZAB_VDW">     -0.84910000</i>
   <i name="GAMMA_VDW">      1.39626340</i>
   <i name="ALPHA_VDW">      0.00000000</i>
   <i name="PARAM1">      0.12340000</i>
   <i name="PARAM2">      1.00000000</i>
   <i name="BPARAM">      6.30000000</i>
   <i name="CPARAM">      0.00930000</i>
  </separator>
  <separator name="model GW" >
   <i type="int" name="MODEL_GW">     0</i>
   <i name="MODEL_EPS0">     20.69023473</i>
   <i name="MODEL_ALPHA">      1.00000000</i>
  </separator>
  <separator name="linear response parameters" >
   <i type="logical" name="LEPSILON"> F  </i>
   <i type="logical" name="LRPA"> F  </i>
   <i type="logical" name="LNABLA"> F  </i>
   <i type="logical" name="LVEL"> F  </i>
   <i name="CSHIFT">      0.10000000</i>
   <i name="OMEGAMAX">     -1.00000000</i>
   <i name="DEG_THRESHOLD">      0.00200000</i>
   <i name="RTIME">     -0.10000000</i>
   <i name="WPLASMAI">      0.00000000</i>
   <v name="DFIELD">      0.00000000      0.00000000      0.00000000</v>
   <v name="WPLASMA">      0.00000000      0.00000000      0.00000000      0.00000000      0.00000000      0.00000000      0.00000000      0.00000000      0.00000000</v>
  </separator>
  <separator name="orbital magnetization" >
   <i type="logical" name="NUCIND"> F  </i>
   <v name="MAGPOS">      0.00000000      0.00000000      0.00000000</v>
   <i type="logical" name="LNICSALL"> T  </i>
   <i type="logical" name="ORBITALMAG"> F  </i>
   <i type="logical" name="LMAGBLOCH"> F  </i>
   <i type="logical" name="LCHIMAG"> F  </i>
   <i type="logical" name="LGAUGE"> T  </i>
   <i type="int" name="MAGATOM">     0</i>
   <v name="MAGDIPOL">      0.00000000      0.00000000      0.00000000</v>
   <v name="AVECCONST">      0.00000000      0.00000000      0.00000000</v>
  </separator>
  <separator name="response functions" >
   <i type="logical" name="LALL_IN_ONE"> F  </i>
   <i type="int" name="IALL_IN_ONE">    -1</i>
   <i type="int" name="NBANDS_WAVE">    -1</i>
   <i type="logical" name="LFINITE_TEMPERATURE"> F  </i>
   <i type="logical" name="LADDER"> F  </i>
   <i type="logical" name="LRPAFORCE"> F  </i>
   <i type="logical" name="LFXC"> F  </i>
   <i type="logical" name="LHARTREE"> T  </i>
   <i type="int" name="IBSE">     2</i>
   <v type="int" name="KPOINT">    -1     0     0     0</v>
   <i type="logical" name="LTCTC"> F  </i>
   <i type="logical" name="LTCTE"> F  </i>
   <i type="logical" name="LTETE"> F  </i>
   <i type="logical" name="LTRIPLET"> F  </i>
   <i type="logical" name="LFXCEPS"> F  </i>
   <i type="logical" name="LFXHEG"> F  </i>
   <i type="int" name="NATURALO">     2</i>
   <i type="logical" name="LHOLEGF"> F  </i>
   <i type="logical" name="L2ORDER"> F  </i>
   <i type="logical" name="LDMP1"> F  </i>
   <i type="logical" name="LMP2LT"> F  </i>
   <i type="logical" name="LSMP2LT"> F  </i>
   <i type="logical" name="LGWLF"> F  </i>
   <i name="ENCUTGW">     -1.60000002</i>
   <i name="ENCUTGWSOFT">     -1.60000002</i>
   <i name="ENCUTLF">     -1.00000000</i>
   <i type="logical" name="ESF_SPLINES"> F  </i>
   <i name="ESF_CONV">      0.01000000</i>
   <i type="int" name="ESF_NINTER">    15</i>
   <i type="int" name="LMAXMP2">    -1</i>
   <i name="SCISSOR">      0.00000000</i>
   <i type="int" name="NOMEGA">     0</i>
   <i type="int" name="NOMEGAR">     0</i>
   <i type="int" name="NBANDSGW">    -1</i>
   <i type="int" name="NBANDSO">    -1</i>
   <i type="int" name="NBANDSV">    -1</i>
   <i type="int" name="NELMGW">     1</i>
   <i type="int" name="NELMHF">     1</i>
   <i type="int" name="DIM">     3</i>
   <i type="int" name="IESPILON">     4</i>
   <i type="int" name="ANTIRES">     0</i>
   <i name="OMEGAMAX">    -30.00000000</i>
   <i name="OMEGAMIN">    -30.00000000</i>
   <i name="OMEGATL">   -200.00000000</i>
   <i type="int" name="OMEGAGRID">     0</i>
   <i name="CSHIFT">     -0.10000000</i>
   <i type="logical" name="LSELFENERGY"> F  </i>
   <i type="logical" name="LSPECTRAL"> F  </i>
   <i type="logical" name="LSPECTRALGW"> F  </i>
   <i type="logical" name="LSINGLES"> F  </i>
   <i type="logical" name="LFERMIGW"> F  </i>
   <i type="logical" name="ODDONLYGW"> F  </i>
   <i type="logical" name="EVENONLYGW"> F  </i>
   <i type="int" name="NKREDLFX">     1</i>
   <i type="int" name="NKREDLFY">     1</i>
   <i type="int" name="NKREDLFZ">     1</i>
   <i type="int" name="MAXMEM">  2800</i>
   <i type="int" name="TELESCOPE">     0</i>
   <i type="int" name="NTAUPAR">    -1</i>
   <i type="int" name="NOMEGAPAR">    -1</i>
   <i name="DAMP_NEWTON">      0.80000001</i>
   <i name="LAMBDA">      1.00000000</i>
  </separator>
  <separator name="External order field" >
   <i name="OFIELD_KAPPA">      0.00000000</i>
   <v name="OFIELD_K">      0.00000000      0.00000000      0.00000000</v>
   <i name="OFIELD_Q6_NEAR">      0.00000000</i>
   <i name="OFIELD_Q6_FAR">      0.00000000</i>
   <i name="OFIELD_A">      0.00000000</i>
  </separator>
  <separator name="optional k-points parameters" >
   <i type="int" name="KPOINTS_OPT_MODE">     1</i>
   <i type="logical" name="LKPOINTS_OPT"> F  </i>
  </separator>
 </parameters>
 <atominfo>
  <atoms>      53 </atoms>
  <types>       2 </types>
  <array name="atoms" >
   <dimension dim="1">ion</dimension>
   <field type="string">element</field>
   <field type="int">atomtype</field>
   <set>
    <rc><c>Cs</c><c>   1</c></rc>
    <rc><c>Cs</c><c>   1</c></rc>
    <rc><c>Cs</c><c>   1</c></rc>
    <rc><c>Cs</c><c>   1</c></rc>
    <rc><c>Cs</c><c>   1</c></rc>
    <rc><c>Cs</c><c>   1</c></rc>
    <rc><c>Cs</c><c>   1</c></rc>
    <rc><c>Cs</c><c>   1</c></rc>
    <rc><c>Cs</c><c>   1</c></rc>
    <rc><c>Cs</c><c>   1</c></rc>
    <rc><c>Cs</c><c>   1</c></rc>
    <rc><c>Cs</c><c>   1</c></rc>
    <rc><c>Cs</c><c>   1</c></rc>
    <rc><c>Cs</c><c>   1</c></rc>
    <rc><c>Cs</c><c>   1</c></rc>
    <rc><c>Cs</c><c>   1</c></rc>
    <rc><c>Cs</c><c>   1</c></rc>
    <rc><c>Cs</c><c>   1</c></rc>
    <rc><c>Cs</c><c>   1</c></rc>
    <rc><c>Cs</c><c>   1</c></rc>
    <rc><c>Cs</c><c>   1</c></rc>
    <rc><c>Cs</c><c>   1</c></rc>
    <rc><c>Cs</c><c>   1</c></rc>
    <rc><c>Cs</c><c>   1</c></rc>
    <rc><c>Cs</c><c>   1</c></rc>
    <rc><c>Cs</c><c>   1</c></rc>
    <rc><c>Cl</c><c>   2</c></rc>
    <rc><c>Cl</c><c>   2</c></rc>
    <rc><c>Cl</c><c>   2</c></rc>
    <rc><c>Cl</c><c>   2</c></rc>
    <rc><c>Cl</c><c>   2</c></rc>
    <rc><c>Cl</c><c>   2</c></rc>
    <rc><c>Cl</c><c>   2</c></rc>
    <rc><c>Cl</c><c>   2</c></rc>
    <rc><c>Cl</c><c>   2</c></rc>
    <rc><c>Cl</c><c>   2</c></rc>
    <rc><c>Cl</c><c>   2</c></rc>
    <rc><c>Cl</c><c>   2</c></rc>
    <rc><c>Cl</c><c>   2</c></rc>
    <rc><c>Cl</c><c>   2</c></rc>
    <rc><c>Cl</c><c>   2</c></rc>
    <rc><c>Cl</c><c>   2</c></rc>
    <rc><c>Cl</c><c>   2</c></rc>
    <rc><c>Cl</c><c>   2</c></rc>
    <rc><c>Cl</c><c>   2</c></rc>
    <rc><c>Cl</c><c>   2</c></rc>
    <rc><c>Cl</c><c>   2</c></rc>
    <rc><c>Cl</c><c>   2</c></rc>
    <rc><c>Cl</c><c>   2</c></rc>
    <rc><c>Cl</c><c>   2</c></rc>
    <rc><c>Cl</c><c>   2</c></rc>
    <rc><c>Cl</c><c>   2</c></rc>
    <rc><c>Cl</c><c>   2</c></rc>
   </set>
  </array>
  <array name="atomtypes" >
   <dimension dim="1">type</dimension>
   <field type="int">atomspertype</field>
   <field type="string">element</field>
   <field>mass</field>
   <field>valence</field>
   <field type="string">pseudopotential</field>
   <set>
    <rc><c>  26</c><c>Cs</c><c>    132.90000000</c><c>      9.00000000</c><c>  PAW_PBE Cs_sv 08Apr2002               </c></rc>
    <rc><c>  27</c><c>Cl</c><c>     35.45300000</c><c>      7.00000000</c><c>  PAW_PBE Cl 06Sep2000                  </c></rc>
   </set>
  </array>
 </atominfo>
 <structure name="initialpos" >
  <crystal>
   <varray name="basis" >
    <v>      12.22634592       0.00000000       0.00000000 </v>
    <v>       0.00000000      12.22634592       0.00000000 </v>
    <v>       0.00000000       0.00000000      12.22634592 </v>
   </varray>
   <i name="volume">   1827.63740156 </i>
   <varray name="rec_basis" >
    <v>       0.08179059       0.00000000       0.00000000 </v>
    <v>       0.00000000       0.08179059       0.00000000 </v>
    <v>       0.00000000       0.00000000       0.08179059 </v>
   </varray>
  </crystal>
  <varray name="positions" >
   <v>       0.99546965       0.99671109       0.33583178 </v>
   <v>       0.99874813       0.99910992       0.66531317 </v>
   <v>       0.99815692       0.33796259       0.00067203 </v>
   <v>       0.00000000       0.33333333       0.33333333 </v>
   <v>       0.00000000       0.33333333       0.66666667 </v>
   <v>       0.99067472       0.65588139       0.99921596 </v>
   <v>       0.00000000       0.66666667       0.33333333 </v>
   <v>       0.00000000       0.66666667       0.66666667 </v>
   <v>       0.34378612       0.00109218       0.00143563 </v>
   <v>       0.33333333       0.00000000       0.33333333 </v>
   <v>       0.33333333       0.00000000       0.66666667 </v>
   <v>       0.33333333       0.33333333       0.00000000 </v>
   <v>       0.33333333       0.33333333       0.33333333 </v>
   <v>       0.33333333       0.33333333       0.66666667 </v>
   <v>       0.33333333       0.66666667       0.00000000 </v>
   <v>       0.33333333       0.66666667       0.33333333 </v>
   <v>       0.33333333       0.66666667       0.66666667 </v>
   <v>       0.67830882       0.99966398       0.99803272 </v>
   <v>       0.66666667       0.00000000       0.33333333 </v>
   <v>       0.66666667       0.00000000       0.66666667 </v>
   <v>       0.66666667       0.33333333       0.00000000 </v>
   <v>       0.66666667       0.33333333       0.33333333 </v>
   <v>       0.66666667       0.33333333       0.66666667 </v>
   <v>       0.66666667       0.66666667       0.00000000 </v>
   <v>       0.66666667       0.66666667       0.33333333 </v>
   <v>       0.66666667       0.66666667       0.66666667 </v>
   <v>       0.16667459       0.16610873       0.16931116 </v>
   <v>       0.16666667       0.16666667       0.50000000 </v>
   <v>       0.16490133       0.17191576       0.83355027 </v>
   <v>       0.16666667       0.50000000       0.16666667 </v>
   <v>       0.16666667       0.50000000       0.50000000 </v>
   <v>       0.16666667       0.50000000       0.83333333 </v>
   <v>       0.17027481       0.83391222       0.16379639 </v>
   <v>       0.16666667       0.83333333       0.50000000 </v>
   <v>       0.17146645       0.83009584       0.83151707 </v>
   <v>       0.50000000       0.16666667       0.16666667 </v>
   <v>       0.50000000       0.16666667       0.50000000 </v>
   <v>       0.50000000       0.16666667       0.83333333 </v>
   <v>       0.50000000       0.50000000       0.16666667 </v>
   <v>       0.50000000       0.50000000       0.50000000 </v>
   <v>       0.50000000       0.50000000       0.83333333 </v>
   <v>       0.50000000       0.83333333       0.16666667 </v>
   <v>       0.50000000       0.83333333       0.50000000 </v>
   <v>       0.50000000       0.83333333       0.83333333 </v>
   <v>       0.82542005       0.15925158       0.16270216 </v>
   <v>       0.83333333       0.16666667       0.50000000 </v>
   <v>       0.83075384       0.16619309       0.83451521 </v>
   <v>       0.83333333       0.50000000       0.16666667 </v>
   <v>       0.83333333       0.50000000       0.50000000 </v>
   <v>       0.83333333       0.50000000       0.83333333 </v>
   <v>       0.82927230       0.82841797       0.16215346 </v>
   <v>       0.83333333       0.83333333       0.50000000 </v>
   <v>       0.82555942       0.84084246       0.84539751 </v>
  </varray>
 </structure>
 <calculation>
  <scstep>
   <time name="dav">    0.65    2.35</time>
   <time name="total">    3.33    5.07</time>
   <energy>
    <i name="alphaZ">   1390.48224925 </i>
    <i name="ewald"> -21532.55444335 </i>
    <i name="hartreedc">  -3628.34317722 </i>
    <i name="XCdc">    840.77292165 </i>
    <i name="pawpsdc">  19806.45903776 </i>
    <i name="pawaedc"> -19618.38849467 </i>
    <i name="eentropy">     -0.08172904 </i>
    <i name="bandstr">   -406.23478480 </i>
    <i name="atom">  25482.99243790 </i>
    <i name="e_fr_energy">   2335.10401749 </i>
    <i name="e_wo_entrp">   2335.18574652 </i>
    <i name="e_0_energy">   2335.14488201 </i>
   </energy>
  </scstep>
  <scstep>
   <time name="dav">    0.54    0.54</time>
   <time name="total">    0.54    0.54</time>
   <energy>
    <i name="e_fr_energy">     34.15260298 </i>
    <i name="e_wo_entrp">     34.19900910 </i>
    <i name="e_0_energy">     34.17580604 </i>
   </energy>
  </scstep>
  <scstep>
   <time name="dav">    0.53    0.53</time>
   <time name="total">    0.53    0.53</time>
   <energy>
    <i name="e_fr_energy">   -174.55734394 </i>
    <i name="e_wo_entrp">   -174.45436191 </i>
    <i name="e_0_energy">   -174.50585292 </i>
   </energy>
  </scstep>
  <scstep>
   <time name="dav">    0.52    0.52</time>
   <time name="total">    0.52    0.52</time>
   <energy>
    <i name="e_fr_energy">   -178.02554305 </i>
    <i name="e_wo_entrp">   -177.92240517 </i>
    <i name="e_0_energy">   -177.97397411 </i>
   </energy>
  </scstep>
  <scstep>
   <time name="dav">    0.51    0.52</time>
   <time name="total">    0.58    0.58</time>
   <energy>
    <i name="e_fr_energy">   -178.10482388 </i>
    <i name="e_wo_entrp">   -178.00167142 </i>
    <i name="e_0_energy">   -178.05324765 </i>
   </energy>
  </scstep>
  <scstep>
   <time name="dav">    0.50    0.50</time>
   <time name="total">    2.82    2.83</time>
   <energy>
    <i name="e_fr_energy">   -171.82604351 </i>
    <i name="e_wo_entrp">   -171.72210993 </i>
    <i name="e_0_energy">   -171.77407672 </i>
   </energy>
  </scstep>
  <scstep>
   <time name="dav">    0.52    0.52</time>
   <time name="total">    2.74    2.74</time>
   <energy>
    <i name="e_fr_energy">   -174.76687618 </i>
    <i name="e_wo_entrp">   -174.66589818 </i>
    <i name="e_0_energy">   -174.71638718 </i>
   </energy>
  </scstep>
  <scstep>
   <time name="dav">    0.51    0.51</time>
   <time name="total">    2.70    2.71</time>
   <energy>
    <i name="e_fr_energy">   -177.16955644 </i>
    <i name="e_wo_entrp">   -177.05354550 </i>
    <i name="e_0_energy">   -177.11155097 </i>
   </energy>
  </scstep>
  <scstep>
   <time name="dav">    0.50    0.50</time>
   <time name="total">    2.68    2.68</time>
   <energy>
    <i name="e_fr_energy">   -178.60542782 </i>
    <i name="e_wo_entrp">   -178.48189573 </i>
    <i name="e_0_energy">   -178.54366178 </i>
   </energy>
  </scstep>
  <scstep>
   <time name="dav">    0.51    0.51</time>
   <time name="total">    2.68    2.69</time>
   <energy>
    <i name="e_fr_energy">   -178.72774296 </i>
    <i name="e_wo_entrp">   -178.60651898 </i>
    <i name="e_0_energy">   -178.66713097 </i>
   </energy>
  </scstep>
  <scstep>
   <time name="dav">    0.54    0.54</time>
   <time name="total">    2.60    2.61</time>
   <energy>
    <i name="e_fr_energy">   -178.74915454 </i>
    <i name="e_wo_entrp">   -178.62446917 </i>
    <i name="e_0_energy">   -178.68681186 </i>
   </energy>
  </scstep>
  <scstep>
   <time name="dav">    0.51    0.51</time>
   <time name="total">    2.58    2.58</time>
   <energy>
    <i name="e_fr_energy">   -178.76403157 </i>
    <i name="e_wo_entrp">   -178.63888471 </i>
    <i name="e_0_energy">   -178.70145814 </i>
   </energy>
  </scstep>
  <scstep>
   <time name="dav">    0.50    0.50</time>
   <time name="total">    2.58    2.59</time>
   <energy>
    <i name="e_fr_energy">   -178.77651919 </i>
    <i name="e_wo_entrp">   -178.64988392 </i>
    <i name="e_0_energy">   -178.71320155 </i>
   </energy>
  </scstep>
  <scstep>
   <time name="dav">    0.53    0.53</time>
   <time name="total">    2.59    2.61</time>
   <energy>
    <i name="e_fr_energy">   -178.77717121 </i>
    <i name="e_wo_entrp">   -178.64968778 </i>
    <i name="e_0_energy">   -178.71342950 </i>
   </energy>
  </scstep>
  <scstep>
   <time name="dav">    0.50    0.50</time>
   <time name="total">    2.57    2.58</time>
   <energy>
    <i name="e_fr_energy">   -178.77732812 </i>
    <i name="e_wo_entrp">   -178.64936260 </i>
    <i name="e_0_energy">   -178.71334536 </i>
   </energy>
  </scstep>
  <scstep>
   <time name="dav">    0.47    0.47</time>
   <time name="total">    2.68    2.68</time>
   <energy>
    <i name="e_fr_energy">   -178.77739353 </i>
    <i name="e_wo_entrp">   -178.64898931 </i>
    <i name="e_0_energy">   -178.71319142 </i>
   </energy>
  </scstep>
  <scstep>
   <time name="dav">    0.44    0.44</time>
   <time name="total">    2.64    2.64</time>
   <energy>
    <i name="e_fr_energy">   -178.77743362 </i>
    <i name="e_wo_entrp">   -178.64864110 </i>
    <i name="e_0_energy">   -178.71303736 </i>
   </energy>
  </scstep>
  <scstep>
   <time name="dav">    0.41    0.41</time>
   <time name="total">    2.61    2.62</time>
   <energy>
    <i name="e_fr_energy">   -178.77744804 </i>
    <i name="e_wo_entrp">   -178.64845906 </i>
    <i name="e_0_energy">   -178.71295355 </i>
   </energy>
  </scstep>
  <scstep>
   <time name="dav">    0.40    0.40</time>
   <time name="total">    2.60    2.60</time>
   <energy>
    <i name="e_fr_energy">   -178.77746257 </i>
    <i name="e_wo_entrp">   -178.64813642 </i>
    <i name="e_0_energy">   -178.71279950 </i>
   </energy>
  </scstep>
  <scstep>
   <time name="dav">    0.40    0.40</time>
   <time name="total">    2.53    2.53</time>
   <energy>
    <i name="alphaZ">   1390.48224925 </i>
    <i name="ewald"> -21532.55444335 </i>
    <i name="hartreedc">  -3749.34067512 </i>
    <i name="XCdc">    849.35183505 </i>
    <i name="pawpsdc">  24129.26924641 </i>
    <i name="pawaedc"> -23948.49110630 </i>
    <i name="eentropy">     -0.12959214 </i>
    <i name="bandstr">  -2800.35742312 </i>
    <i name="atom">  25482.99243790 </i>
    <i name="e_fr_energy">   -178.77747142 </i>
    <i name="e_wo_entrp">   -178.64787928 </i>
    <i name="e_0_energy">   -178.71267535 </i>
   </energy>
  </scstep>
  <structure>
   <crystal>
    <varray name="basis" >
     <v>      12.22634592       0.00000000       0.00000000 </v>
     <v>       0.00000000      12.22634592       0.00000000 </v>
     <v>       0.00000000       0.00000000      12.22634592 </v>
    </varray>
    <i name="volume">   1827.63740156 </i>
    <varray name="rec_basis" >
     <v>       0.08179059       0.00000000       0.00000000 </v>
     <v>       0.00000000       0.08179059       0.00000000 </v>
     <v>       0.00000000       0.00000000       0.08179059 </v>
    </varray>
   </crystal>
   <varray name="positions" >
    <v>       0.99546965       0.99671109       0.33583178 </v>
    <v>       0.99874813       0.99910992       0.66531317 </v>
    <v>       0.99815692       0.33796259       0.00067203 </v>
    <v>       0.00000000       0.33333333       0.33333333 </v>
    <v>       0.00000000       0.33333333       0.66666667 </v>
    <v>       0.99067472       0.65588139       0.99921596 </v>
    <v>       0.00000000       0.66666667       0.33333333 </v>
    <v>       0.00000000       0.66666667       0.66666667 </v>
    <v>       0.34378612       0.00109218       0.00143563 </v>
    <v>       0.33333333       0.00000000       0.33333333 </v>
    <v>       0.33333333       0.00000000       0.66666667 </v>
    <v>       0.33333333       0.33333333       0.00000000 </v>
    <v>       0.33333333       0.33333333       0.33333333 </v>
    <v>       0.33333333       0.33333333       0.66666667 </v>
    <v>       0.33333333       0.66666667       0.00000000 </v>
    <v>       0.33333333       0.66666667       0.33333333 </v>
    <v>       0.33333333       0.66666667       0.66666667 </v>
    <v>       0.67830882       0.99966398       0.99803272 </v>
    <v>       0.66666667       0.00000000       0.33333333 </v>
    <v>       0.66666667       0.00000000       0.66666667 </v>
    <v>       0.66666667       0.33333333       0.00000000 </v>
    <v>       0.66666667       0.33333333       0.33333333 </v>
    <v>       0.66666667       0.33333333       0.66666667 </v>
    <v>       0.66666667       0.66666667       0.00000000 </v>
    <v>       0.66666667       0.66666667       0.33333333 </v>
    <v>       0.66666667       0.66666667       0.66666667 </v>
    <v>       0.16667459       0.16610873       0.16931116 </v>
    <v>       0.16666667       0.16666667       0.50000000 </v>
    <v>       0.16490133       0.17191576       0.83355027 </v>
    <v>       0.16666667       0.50000000       0.16666667 </v>
    <v>       0.16666667       0.50000000       0.50000000 </v>
    <v>       0.16666667       0.50000000       0.83333333 </v>
    <v>       0.17027481       0.83391222       0.16379639 </v>
    <v>       0.16666667       0.83333333       0.50000000 </v>
    <v>       0.17146645       0.83009584       0.83151707 </v>
    <v>       0.50000000       0.16666667       0.16666667 </v>
    <v>       0.50000000       0.16666667       0.50000000 </v>
    <v>       0.50000000       0.16666667       0.83333333 </v>
    <v>       0.50000000       0.50000000       0.16666667 </v>
    <v>       0.50000000       0.50000000       0.50000000 </v>
    <v>       0.50000000       0.50000000       0.83333333 </v>
    <v>       0.50000000       0.83333333       0.16666667 </v>
    <v>       0.50000000       0.83333333       0.50000000 </v>
    <v>       0.50000000       0.83333333       0.83333333 </v>
    <v>       0.82542005       0.15925158       0.16270216 </v>
    <v>       0.83333333       0.16666667       0.50000000 </v>
    <v>       0.83075384       0.16619309       0.83451521 </v>
    <v>       0.83333333       0.50000000       0.16666667 </v>
    <v>       0.83333333       0.50000000       0.50000000 </v>
    <v>       0.83333333       0.50000000       0.83333333 </v>
    <v>       0.82927230       0.82841797       0.16215346 </v>
    <v>       0.83333333       0.83333333       0.50000000 </v>
    <v>       0.82555942       0.84084246       0.84539751 </v>
   </varray>
  </structure>
  <varray name="forces" >
   <v>       0.09038857       0.06806551      -0.37825254 </v>
   <v>       0.03346531       0.03208607       0.35978811 </v>
   <v>       0.05258954      -0.41602095      -0.01304146 </v>
   <v>      -0.00469805      -0.06603347      -0.03320487 </v>
   <v>      -0.00420218      -0.04244425       0.03413153 </v>
   <v>       0.17973382       0.47104964       0.01778539 </v>
   <v>       0.01458256       0.03155604      -0.05669929 </v>
   <v>       0.01075985       0.04041275       0.04881128 </v>
   <v>      -0.35126235      -0.02614257      -0.03867735 </v>
   <v>      -0.04116429       0.00056973      -0.03187691 </v>
   <v>      -0.03417461       0.00946702       0.04799585 </v>
   <v>      -0.03600685      -0.03151399       0.00471004 </v>
   <v>      -0.00255547      -0.01534327      -0.00943718 </v>
   <v>      -0.00577410      -0.00838596       0.01277259 </v>
   <v>      -0.04669512       0.03621598      -0.00387176 </v>
   <v>       0.00036589       0.01432503      -0.01860150 </v>
   <v>       0.00983204      -0.00048059       0.00960879 </v>
   <v>       0.01370090       0.04945433       0.09340363 </v>
   <v>      -0.02559835      -0.01734911      -0.05381450 </v>
   <v>      -0.00666538       0.01008447       0.04451876 </v>
   <v>      -0.01340896      -0.05215888      -0.00014349 </v>
   <v>      -0.00445442      -0.02533402      -0.01965035 </v>
   <v>      -0.00287017      -0.02102293       0.01585152 </v>
   <v>      -0.07522184       0.02513202       0.00579359 </v>
   <v>      -0.01335636       0.00918459      -0.01922183 </v>
   <v>      -0.01055823       0.02460193       0.03110692 </v>
   <v>       0.08225242       0.12851855       0.08547549 </v>
   <v>      -0.00625196       0.00888130       0.00623956 </v>
   <v>       0.12400500       0.03297624      -0.11151371 </v>
   <v>      -0.00323232      -0.00237715       0.03219657 </v>
   <v>      -0.01732125       0.00693340      -0.00194331 </v>
   <v>      -0.00445480       0.00329709      -0.02783262 </v>
   <v>       0.03372967      -0.13075156       0.15535532 </v>
   <v>      -0.00453204      -0.02915693      -0.01053650 </v>
   <v>       0.01520790      -0.06949820      -0.10437175 </v>
   <v>      -0.00221346       0.05097279       0.05081360 </v>
   <v>       0.00509026       0.01189265       0.00031985 </v>
   <v>       0.00625919       0.04198132      -0.04515063 </v>
   <v>       0.00284133      -0.00804596       0.02428751 </v>
   <v>       0.00941582       0.00072688       0.00058154 </v>
   <v>       0.00622620      -0.00715198      -0.02245035 </v>
   <v>       0.02094193      -0.03721639       0.04751001 </v>
   <v>       0.00437450      -0.01533033       0.00664236 </v>
   <v>       0.01103690      -0.03605594      -0.05012906 </v>
   <v>       0.07072686       0.27693802       0.23225275 </v>
   <v>      -0.01725152       0.02200360      -0.00747627 </v>
   <v>      -0.03858047       0.18373145      -0.18363389 </v>
   <v>      -0.04870444      -0.06362781       0.06986927 </v>
   <v>       0.00069752       0.01056784       0.00092141 </v>
   <v>      -0.05349534      -0.00627049      -0.07218258 </v>
   <v>      -0.01366811      -0.09870632       0.25288096 </v>
   <v>      -0.02491615      -0.04928278       0.03249605 </v>
   <v>       0.11506461      -0.32592441      -0.41040655 </v>
  </varray>
  <varray name="stress" >
   <v>      -8.30035724      -0.01139692      -0.11902060 </v>
   <v>      -0.01139681      -8.05103947       0.10762796 </v>
   <v>      -0.11902098       0.10762805      -8.43241411 </v>
  </varray>
  <energy>
   <i name="e_fr_energy">   -178.77747142 </i>
   <i name="e_wo_entrp">   -178.64787928 </i>
   <i name="e_0_energy">   -178.71267535 </i>
  </energy>
  <time name="totalsc">   50.22   52.08</time>
 </calculation>
 <calculation>
  <scstep>
   <time name="dav">    0.47    0.47</time>
   <time name="total">    2.53    2.53</time>
   <energy>
    <i name="alphaZ">   1390.48224925 </i>
    <i name="ewald"> -21535.10137347 </i>
    <i name="hartreedc">  -3747.06908523 </i>
    <i name="XCdc">    849.31671803 </i>
    <i name="pawpsdc">  24129.31611454 </i>
    <i name="pawaedc"> -23948.53654426 </i>
    <i name="eentropy">     -0.12963102 </i>
    <i name="bandstr">  -2800.10263772 </i>
    <i name="atom">  25482.99243790 </i>
    <i name="e_fr_energy">   -178.83175199 </i>
    <i name="e_wo_entrp">   -178.70212097 </i>
    <i name="e_0_energy">   -178.76693648 </i>
   </energy>
  </scstep>
  <scstep>
   <time name="dav">    0.49    0.49</time>
   <time name="total">    2.62    2.63</time>
   <energy>
    <i name="e_fr_energy">   -178.85355351 </i>
    <i name="e_wo_entrp">   -178.72373460 </i>
    <i name="e_0_energy">   -178.78864405 </i>
   </energy>
  </scstep>
  <scstep>
   <time name="dav">    0.53    0.53</time>
   <time name="total">    2.66    2.67</time>
   <energy>
    <i name="e_fr_energy">   -178.85265395 </i>
    <i name="e_wo_entrp">   -178.72230466 </i>
    <i name="e_0_energy">   -178.78747930 </i>
   </energy>
  </scstep>
  <scstep>
   <time name="dav">    0.53    0.53</time>
   <time name="total">    2.65    2.65</time>
   <energy>
    <i name="e_fr_energy">   -178.85240624 </i>
    <i name="e_wo_entrp">   -178.72217833 </i>
    <i name="e_0_energy">   -178.78729228 </i>
   </energy>
  </scstep>
  <scstep>
   <time name="dav">    0.52    0.52</time>
   <time name="total">    2.63    2.64</time>
   <energy>
    <i name="e_fr_energy">   -178.85195854 </i>
    <i name="e_wo_entrp">   -178.72137555 </i>
    <i name="e_0_energy">   -178.78666704 </i>
   </energy>
  </scstep>
  <scstep>
   <time name="dav">    0.51    0.51</time>
   <time name="total">    2.64    2.65</time>
   <energy>
    <i name="e_fr_energy">   -178.85199536 </i>
    <i name="e_wo_entrp">   -178.72134150 </i>
    <i name="e_0_energy">   -178.78666843 </i>
   </energy>
  </scstep>
  <scstep>
   <time name="dav">    0.43    0.43</time>
   <time name="total">    2.51    2.51</time>
   <energy>
    <i name="alphaZ">   1390.48224925 </i>
    <i name="ewald"> -21535.10137347 </i>
    <i name="hartreedc">  -3747.19409534 </i>
    <i name="XCdc">    849.31307332 </i>
    <i name="pawpsdc">  24125.01810533 </i>
    <i name="pawaedc"> -23944.23404268 </i>
    <i name="eentropy">     -0.13079245 </i>
    <i name="bandstr">  -2799.99756557 </i>
    <i name="atom">  25482.99243790 </i>
    <i name="e_fr_energy">   -178.85200370 </i>
    <i name="e_wo_entrp">   -178.72121125 </i>
    <i name="e_0_energy">   -178.78660748 </i>
   </energy>
  </scstep>
  <structure>
   <crystal>
    <varray name="basis" >
     <v>      12.22634592       0.00000000       0.00000000 </v>
     <v>       0.00000000      12.22634592       0.00000000 </v>
     <v>       0.00000000       0.00000000      12.22634592 </v>
    </varray>
    <i name="volume">   1827.63740156 </i>
    <varray name="rec_basis" >
     <v>       0.08179059       0.00000000       0.00000000 </v>
     <v>       0.00000000       0.08179059       0.00000000 </v>
     <v>       0.00000000       0.00000000       0.08179059 </v>
    </varray>
   </crystal>
   <varray name="positions" >
    <v>       0.99582631       0.99697966       0.33433928 </v>
    <v>       0.99888017       0.99923652       0.66673282 </v>
    <v>       0.99836443       0.33632105       0.00062057 </v>
    <v>       0.99998146       0.33307278       0.33320231 </v>
    <v>       0.99998342       0.33316586       0.66680134 </v>
    <v>       0.99138391       0.65774006       0.99928614 </v>
    <v>       0.00005754       0.66679118       0.33310961 </v>
    <v>       0.00004246       0.66682613       0.66685927 </v>
    <v>       0.34240011       0.00098903       0.00128302 </v>
    <v>       0.33317091       0.00000225       0.33320755 </v>
    <v>       0.33319849       0.00003735       0.66685605 </v>
    <v>       0.33319126       0.33320899       0.00001858 </v>
    <v>       0.33332325       0.33327279       0.33329610 </v>
    <v>       0.33331055       0.33330024       0.66671706 </v>
    <v>       0.33314908       0.66680957       0.99998472 </v>
    <v>       0.33333478       0.66672319       0.33325994 </v>
    <v>       0.33337213       0.66666477       0.66670458 </v>
    <v>       0.67836288       0.99985912       0.99840127 </v>
    <v>       0.66656566       0.99993154       0.33312099 </v>
    <v>       0.66664037       0.00003979       0.66684233 </v>
    <v>       0.66661376       0.33312753       0.99999943 </v>
    <v>       0.66664909       0.33323337       0.33325580 </v>
    <v>       0.66665534       0.33325038       0.66672921 </v>
    <v>       0.66636986       0.66676583       0.00002286 </v>
    <v>       0.66661397       0.66670291       0.33325749 </v>
    <v>       0.66662501       0.66676374       0.66678941 </v>
    <v>       0.16699914       0.16661584       0.16964843 </v>
    <v>       0.16664200       0.16670171       0.50002462 </v>
    <v>       0.16539063       0.17204588       0.83311026 </v>
    <v>       0.16665391       0.49999062       0.16679371 </v>
    <v>       0.16659832       0.50002736       0.49999233 </v>
    <v>       0.16664909       0.50001301       0.83322351 </v>
    <v>       0.17040790       0.83339630       0.16440939 </v>
    <v>       0.16664878       0.83321829       0.49995843 </v>
    <v>       0.17152646       0.82982161       0.83110524 </v>
    <v>       0.49999127       0.16686779       0.16686717 </v>
    <v>       0.50002009       0.16671359       0.50000126 </v>
    <v>       0.50002470       0.16683232       0.83315518 </v>
    <v>       0.50001121       0.49996825       0.16676250 </v>
    <v>       0.50003715       0.50000287       0.50000229 </v>
    <v>       0.50002457       0.49997178       0.83324475 </v>
    <v>       0.50008263       0.83318649       0.16685413 </v>
    <v>       0.50001726       0.83327284       0.50002621 </v>
    <v>       0.50004355       0.83319106       0.83313553 </v>
    <v>       0.82569912       0.16034432       0.16361858 </v>
    <v>       0.83326526       0.16675349       0.49997050 </v>
    <v>       0.83060161       0.16691805       0.83379063 </v>
    <v>       0.83314116       0.49974894       0.16694236 </v>
    <v>       0.83333609       0.50004170       0.50000364 </v>
    <v>       0.83312225       0.49997526       0.83304852 </v>
    <v>       0.82921837       0.82802850       0.16315127 </v>
    <v>       0.83323502       0.83313887       0.50012822 </v>
    <v>       0.82601344       0.83955643       0.84377813 </v>
   </varray>
  </structure>
  <varray name="forces" >
   <v>       0.07532592       0.05872719      -0.33424131 </v>
   <v>       0.02943745       0.02715791       0.31715793 </v>
   <v>       0.03533856      -0.38929805      -0.00817432 </v>
   <v>      -0.00714967      -0.05242020      -0.02456856 </v>
   <v>      -0.00596477      -0.02933435       0.02292951 </v>
   <v>       0.15372669       0.41298813       0.01683998 </v>
   <v>       0.01068740       0.02399273      -0.04328717 </v>
   <v>       0.00472080       0.03328992       0.03799290 </v>
   <v>      -0.32435776      -0.02316584      -0.03390319 </v>
   <v>      -0.03468725       0.00006107      -0.02217839 </v>
   <v>      -0.02848904       0.00789675       0.03566641 </v>
   <v>      -0.02933036      -0.02143180       0.00497415 </v>
   <v>      -0.00200348      -0.00865780      -0.00364609 </v>
   <v>      -0.00382768      -0.00256862       0.00607330 </v>
   <v>      -0.04041209       0.02710480      -0.00281327 </v>
   <v>       0.00009777       0.00981399      -0.01203426 </v>
   <v>       0.00924528      -0.00351963       0.00266109 </v>
   <v>       0.03535472       0.03255692       0.07458155 </v>
   <v>      -0.02011029      -0.01546935      -0.03863448 </v>
   <v>      -0.00410309       0.00763481       0.03205878 </v>
   <v>      -0.01069576      -0.03763517      -0.00016152 </v>
   <v>      -0.00258246      -0.01740476      -0.01157869 </v>
   <v>      -0.00212783      -0.01200119       0.00768597 </v>
   <v>      -0.06109653       0.01714392       0.00447677 </v>
   <v>      -0.00952571       0.00337784      -0.00988556 </v>
   <v>      -0.00532476       0.01856200       0.02234809 </v>
   <v>       0.08123334       0.11763334       0.07529420 </v>
   <v>      -0.00551523       0.00574132       0.00636845 </v>
   <v>       0.11917758       0.02707909      -0.10267271 </v>
   <v>      -0.00359770      -0.00274798       0.02498710 </v>
   <v>      -0.01480421       0.00582480      -0.00184543 </v>
   <v>      -0.00466844       0.00265008      -0.02101817 </v>
   <v>       0.03285947      -0.12058206       0.14246505 </v>
   <v>      -0.00468970      -0.02180404      -0.00972131 </v>
   <v>       0.01555057      -0.06185098      -0.09154001 </v>
   <v>      -0.00451914       0.04076378       0.04005600 </v>
   <v>       0.00269211       0.00840640       0.00033526 </v>
   <v>       0.00368651       0.03378033      -0.03521756 </v>
   <v>      -0.00015478      -0.00691915       0.01867385 </v>
   <v>       0.00715512       0.00062765       0.00053318 </v>
   <v>       0.00284131      -0.00636596      -0.01687614 </v>
   <v>       0.01622927      -0.02801569       0.03736234 </v>
   <v>       0.00190211      -0.01032299       0.00590180 </v>
   <v>       0.00859322      -0.02715408      -0.03950136 </v>
   <v>       0.06115438       0.25047941       0.20866784 </v>
   <v>      -0.01393514       0.01530343      -0.00732479 </v>
   <v>      -0.03929068       0.16327377      -0.16374225 </v>
   <v>      -0.03789083      -0.05562677       0.05233323 </v>
   <v>       0.00128215       0.00914941       0.00064346 </v>
   <v>      -0.04197324      -0.00197066      -0.05385413 </v>
   <v>      -0.01785777      -0.08230415       0.23104685 </v>
   <v>      -0.01892379      -0.03683263       0.02893552 </v>
   <v>       0.09131746      -0.28561689      -0.37062988 </v>
  </varray>
  <varray name="stress" >
   <v>      -8.36700477      -0.01255866      -0.09827300 </v>
   <v>      -0.01255827      -8.15129601       0.08343521 </v>
   <v>      -0.09827328       0.08343550      -8.48042749 </v>
  </varray>
  <energy>
   <i name="e_fr_energy">   -178.85200370 </i>
   <i name="e_wo_entrp">   -178.72121125 </i>
   <i name="e_0_energy">   -178.78660748 </i>
  </energy>
  <time name="totalsc">   23.32   23.37</time>
 </calculation>
 <calculation>
  <scstep>
   <time name="dav">    0.46    0.46</time>
   <time name="total">    2.59    2.59</time>
   <energy>
    <i name="alphaZ">   1390.48224925 </i>
    <i name="ewald"> -21540.05696705 </i>
    <i name="hartreedc">  -3742.83150691 </i>
    <i name="XCdc">    849.32427716 </i>
    <i name="pawpsdc">  24124.16204723 </i>
    <i name="pawaedc"> -23943.37739603 </i>
    <i name="eentropy">     -0.12698401 </i>
    <i name="bandstr">  -2799.40229064 </i>
    <i name="atom">  25482.99243790 </i>
    <i name="e_fr_energy">   -178.83413310 </i>
    <i name="e_wo_entrp">   -178.70714908 </i>
    <i name="e_0_energy">   -178.77064109 </i>
   </energy>
  </scstep>
  <scstep>
   <time name="dav">    0.49    0.49</time>
   <time name="total">    2.66    2.67</time>
   <energy>
    <i name="e_fr_energy">   -179.03896849 </i>
    <i name="e_wo_entrp">   -178.91122138 </i>
    <i name="e_0_energy">   -178.97509493 </i>
   </energy>
  </scstep>
  <scstep>
   <time name="dav">    0.53    0.53</time>
   <time name="total">    2.71    2.71</time>
   <energy>
    <i name="e_fr_energy">   -179.03025717 </i>
    <i name="e_wo_entrp">   -178.90131939 </i>
    <i name="e_0_energy">   -178.96578828 </i>
   </energy>
  </scstep>
  <scstep>
   <time name="dav">    0.52    0.52</time>
   <time name="total">    2.70    2.71</time>
   <energy>
    <i name="e_fr_energy">   -179.02786587 </i>
    <i name="e_wo_entrp">   -178.89904828 </i>
    <i name="e_0_energy">   -178.96345707 </i>
   </energy>
  </scstep>
  <scstep>
   <time name="dav">    0.52    0.52</time>
   <time name="total">    2.69    2.70</time>
   <energy>
    <i name="e_fr_energy">   -179.02415966 </i>
    <i name="e_wo_entrp">   -178.89527089 </i>
    <i name="e_0_energy">   -178.95971528 </i>
   </energy>
  </scstep>
  <scstep>
   <time name="dav">    0.52    0.52</time>
   <time name="total">    2.68    2.68</time>
   <energy>
    <i name="e_fr_energy">   -179.02440467 </i>
    <i name="e_wo_entrp">   -178.89547019 </i>
    <i name="e_0_energy">   -178.95993743 </i>
   </energy>
  </scstep>
  <scstep>
   <time name="dav">    0.50    0.50</time>
   <time name="total">    2.52    2.53</time>
   <energy>
    <i name="e_fr_energy">   -179.02442763 </i>
    <i name="e_wo_entrp">   -178.89540036 </i>
    <i name="e_0_energy">   -178.95991400 </i>
   </energy>
  </scstep>
  <scstep>
   <time name="dav">    0.53    0.53</time>
   <time name="total">    2.55    2.56</time>
   <energy>
    <i name="e_fr_energy">   -179.02444138 </i>
    <i name="e_wo_entrp">   -178.89541510 </i>
    <i name="e_0_energy">   -178.95992824 </i>
   </energy>
  </scstep>
  <scstep>
   <time name="dav">    0.52    0.52</time>
   <time name="total">    2.54    2.55</time>
   <energy>
    <i name="e_fr_energy">   -179.02445055 </i>
    <i name="e_wo_entrp">   -178.89543266 </i>
    <i name="e_0_energy">   -178.95994161 </i>
   </energy>
  </scstep>
  <scstep>
   <time name="dav">    0.43    0.43</time>
   <time name="total">    2.45    2.46</time>
   <energy>
    <i name="e_fr_energy">   -179.02446083 </i>
    <i name="e_wo_entrp">   -178.89544489 </i>
    <i name="e_0_energy">   -178.95995286 </i>
   </energy>
  </scstep>
  <scstep>
   <time name="dav">    0.36    0.36</time>
   <time name="total">    2.32    2.33</time>
   <energy>
    <i name="alphaZ">   1390.48224925 </i>
    <i name="ewald"> -21540.05696705 </i>
    <i name="hartreedc">  -3743.75617252 </i>
    <i name="XCdc">    849.37913708 </i>
    <i name="pawpsdc">  24130.17102667 </i>
    <i name="pawaedc"> -23949.39393778 </i>
    <i name="eentropy">     -0.12902077 </i>
    <i name="bandstr">  -2798.71322230 </i>
    <i name="atom">  25482.99243790 </i>
    <i name="e_fr_energy">   -179.02446952 </i>
    <i name="e_wo_entrp">   -178.89544875 </i>
    <i name="e_0_energy">   -178.95995914 </i>
   </energy>
  </scstep>
  <structure>
   <crystal>
    <varray name="basis" >
     <v>      12.22634592       0.00000000       0.00000000 </v>
     <v>       0.00000000      12.22634592       0.00000000 </v>
     <v>       0.00000000       0.00000000      12.22634592 </v>
    </varray>
    <i name="volume">   1827.63740156 </i>
    <varray name="rec_basis" >
     <v>       0.08179059       0.00000000       0.00000000 </v>
     <v>       0.00000000       0.08179059       0.00000000 </v>
     <v>       0.00000000       0.00000000       0.08179059 </v>
    </varray>
   </crystal>
   <varray name="positions" >
    <v>       0.99689627       0.99778538       0.32986176 </v>
    <v>       0.99927631       0.99961634       0.67099177 </v>
    <v>       0.99898695       0.33139645       0.00046620 </v>
    <v>       0.99992585       0.33229112       0.33280925 </v>
    <v>       0.99993368       0.33266343       0.66720537 </v>
    <v>       0.99351149       0.66331605       0.99949667 </v>
    <v>       0.00023016       0.66716472       0.33243844 </v>
    <v>       0.00016982       0.66730451       0.66743706 </v>
    <v>       0.33824208       0.00067957       0.00082518 </v>
    <v>       0.33268363       0.00000899       0.33283021 </v>
    <v>       0.33279395       0.00014942       0.66742419 </v>
    <v>       0.33276503       0.33283594       0.00007434 </v>
    <v>       0.33329300       0.33309117       0.33318438 </v>
    <v>       0.33324220       0.33320098       0.66686826 </v>
    <v>       0.33259634       0.66723827       0.99993889 </v>
    <v>       0.33333911       0.66689276       0.33303974 </v>
    <v>       0.33348851       0.66665908       0.66681832 </v>
    <v>       0.67852506       0.00044453       0.99950693 </v>
    <v>       0.66626264       0.99972618       0.33248397 </v>
    <v>       0.66656147       0.00015916       0.66736931 </v>
    <v>       0.66645503       0.33251010       0.99999774 </v>
    <v>       0.66659636       0.33293348       0.33302319 </v>
    <v>       0.66662137       0.33300152       0.66691685 </v>
    <v>       0.66547943       0.66706333       0.00009144 </v>
    <v>       0.66645586       0.66681163       0.33302995 </v>
    <v>       0.66650002       0.66705496       0.66715763 </v>
    <v>       0.16797279       0.16813716       0.17066023 </v>
    <v>       0.16656799       0.16680684       0.50009848 </v>
    <v>       0.16685852       0.17243623       0.83179022 </v>
    <v>       0.16661565       0.49996248       0.16717483 </v>
    <v>       0.16639328       0.50010943       0.49996933 </v>
    <v>       0.16659636       0.50005204       0.83289405 </v>
    <v>       0.17080718       0.83184854       0.16624839 </v>
    <v>       0.16659514       0.83287314       0.49983370 </v>
    <v>       0.17170648       0.82899893       0.82986975 </v>
    <v>       0.49996506       0.16747118       0.16746867 </v>
    <v>       0.50008034       0.16685437       0.50000505 </v>
    <v>       0.50009879       0.16732927       0.83262071 </v>
    <v>       0.50004485       0.49987301       0.16705000 </v>
    <v>       0.50014861       0.50001147       0.50000918 </v>
    <v>       0.50009827       0.49988712       0.83297900 </v>
    <v>       0.50033053       0.83274594       0.16741653 </v>
    <v>       0.50006904       0.83309137       0.50010484 </v>
    <v>       0.50017420       0.83276426       0.83254214 </v>
    <v>       0.82653634       0.16362254       0.16636785 </v>
    <v>       0.83306105       0.16701395       0.49988200 </v>
    <v>       0.83014492       0.16909295       0.83161689 </v>
    <v>       0.83256462       0.49899575       0.16776943 </v>
    <v>       0.83334434       0.50016679       0.50001454 </v>
    <v>       0.83248901       0.49990103       0.83219406 </v>
    <v>       0.82905658       0.82686007       0.16614472 </v>
    <v>       0.83294008       0.83255549       0.50051289 </v>
    <v>       0.82737550       0.83569833       0.83891999 </v>
   </varray>
  </structure>
  <varray name="forces" >
   <v>       0.05467100       0.03382231      -0.21467473 </v>
   <v>       0.01685243       0.01187518       0.23913971 </v>
   <v>       0.00940863      -0.25718037      -0.00258633 </v>
   <v>      -0.01165258      -0.01136739       0.00259133 </v>
   <v>      -0.00818057       0.00395239      -0.00691953 </v>
   <v>       0.08982570       0.31602902       0.01058287 </v>
   <v>      -0.00072320      -0.00451859      -0.00154852 </v>
   <v>      -0.01007834       0.00638659       0.00253938 </v>
   <v>      -0.27106244      -0.01854333      -0.02768872 </v>
   <v>      -0.01680704      -0.00225044       0.00389424 </v>
   <v>      -0.01344700       0.00219476      -0.00012991 </v>
   <v>      -0.01313471       0.00177377       0.00284533 </v>
   <v>      -0.00021856       0.00708199       0.01141104 </v>
   <v>      -0.00009061       0.00938768      -0.01092237 </v>
   <v>      -0.01980861      -0.00179773      -0.00246401 </v>
   <v>       0.00122305      -0.00686316       0.00587161 </v>
   <v>       0.00703997      -0.01442567      -0.01693516 </v>
   <v>       0.08085982      -0.00716175       0.02354752 </v>
   <v>      -0.00506049      -0.01138410       0.00525003 </v>
   <v>       0.00180652       0.00027392      -0.00029094 </v>
   <v>      -0.00308125       0.00085322      -0.00180412 </v>
   <v>      -0.00058578       0.00181426       0.01104502 </v>
   <v>      -0.00229633       0.00868368      -0.01521393 </v>
   <v>      -0.01805247      -0.00737194      -0.00040834 </v>
   <v>      -0.00322939      -0.01708939       0.01574377 </v>
   <v>       0.00488967      -0.00234470      -0.00370629 </v>
   <v>       0.07638472       0.08137200       0.04308543 </v>
   <v>      -0.00303368      -0.00745758       0.00564792 </v>
   <v>       0.10689404       0.00598814      -0.07462098 </v>
   <v>      -0.00390987      -0.00530712       0.00118242 </v>
   <v>      -0.00617914      -0.00028263      -0.00238687 </v>
   <v>      -0.00450750      -0.00127717       0.00034209 </v>
   <v>       0.02974366      -0.08984460       0.10148019 </v>
   <v>      -0.00336524      -0.00158268      -0.00843835 </v>
   <v>       0.01790194      -0.03926647      -0.05223915 </v>
   <v>      -0.00966787       0.00349864       0.00324441 </v>
   <v>      -0.00559297      -0.00643710      -0.00044180 </v>
   <v>      -0.00369149       0.00255405      -0.00177811 </v>
   <v>      -0.01001156      -0.00519882      -0.00098616 </v>
   <v>      -0.00168910      -0.00194168      -0.00075982 </v>
   <v>      -0.00856594      -0.00618027       0.00142858 </v>
   <v>       0.00143511       0.00019170       0.00209424 </v>
   <v>      -0.00671183       0.00387126       0.00232829 </v>
   <v>       0.00115406       0.00068815      -0.00293052 </v>
   <v>       0.03553308       0.16684691       0.13770279 </v>
   <v>      -0.00592155      -0.00767411      -0.00675521 </v>
   <v>      -0.04238151       0.09805190      -0.10205477 </v>
   <v>      -0.00891632      -0.03052517      -0.00062259 </v>
   <v>       0.00252091       0.00188824      -0.00123202 </v>
   <v>      -0.01098347       0.00475650       0.00011441 </v>
   <v>      -0.02935269      -0.03105340       0.15295793 </v>
   <v>      -0.00388229      -0.00090557       0.01334088 </v>
   <v>       0.02772910      -0.17660333      -0.23887216 </v>
  </varray>
  <varray name="stress" >
   <v>      -8.45664844      -0.01594367      -0.04837519 </v>
   <v>      -0.01594375      -8.38136714       0.02214865 </v>
   <v>      -0.04837555       0.02214830      -8.60474800 </v>
  </varray>
  <energy>
   <i name="e_fr_energy">   -179.02446952 </i>
   <i name="e_wo_entrp">   -178.89544875 </i>
   <i name="e_0_energy">   -178.95995914 </i>
  </energy>
  <time name="totalsc">   33.45   33.53</time>
 </calculation>
 <calculation>
  <scstep>
   <time name="dav">    0.46    0.46</time>
   <time name="total">    2.66    2.66</time>
   <energy>
    <i name="alphaZ">   1390.48224925 </i>
    <i name="ewald"> -21538.70227073 </i>
    <i name="hartreedc">  -3745.23213121 </i>
    <i name="XCdc">    849.33748513 </i>
    <i name="pawpsdc">  24130.43342500 </i>
    <i name="pawaedc"> -23949.65584737 </i>
    <i name="eentropy">     -0.11638011 </i>
    <i name="bandstr">  -2797.84836758 </i>
    <i name="atom">  25482.99243790 </i>
    <i name="e_fr_energy">   -178.30939973 </i>
    <i name="e_wo_entrp">   -178.19301961 </i>
    <i name="e_0_energy">   -178.25120967 </i>
   </energy>
  </scstep>
  <scstep>
   <time name="dav">    0.50    0.50</time>
   <time name="total">    2.63    2.64</time>
   <energy>
    <i name="e_fr_energy">   -179.23330622 </i>
    <i name="e_wo_entrp">   -179.11584935 </i>
    <i name="e_0_energy">   -179.17457778 </i>
   </energy>
  </scstep>
  <scstep>
   <time name="dav">    0.53    0.53</time>
   <time name="total">    2.67    2.68</time>
   <energy>
    <i name="e_fr_energy">   -179.19474425 </i>
    <i name="e_wo_entrp">   -179.07512586 </i>
    <i name="e_0_energy">   -179.13493505 </i>
   </energy>
  </scstep>
  <scstep>
   <time name="dav">    0.53    0.53</time>
   <time name="total">    2.67    2.68</time>
   <energy>
    <i name="e_fr_energy">   -179.17766200 </i>
    <i name="e_wo_entrp">   -179.05842342 </i>
    <i name="e_0_energy">   -179.11804271 </i>
   </energy>
  </scstep>
  <scstep>
   <time name="dav">    0.52    0.52</time>
   <time name="total">    2.66    2.67</time>
   <energy>
    <i name="e_fr_energy">   -179.17249867 </i>
    <i name="e_wo_entrp">   -179.05370777 </i>
    <i name="e_0_energy">   -179.11310322 </i>
   </energy>
  </scstep>
  <scstep>
   <time name="dav">    0.58    0.58</time>
   <time name="total">    2.73    2.74</time>
   <energy>
    <i name="e_fr_energy">   -179.17032747 </i>
    <i name="e_wo_entrp">   -179.05124093 </i>
    <i name="e_0_energy">   -179.11078420 </i>
   </energy>
  </scstep>
  <scstep>
   <time name="dav">    0.51    0.52</time>
   <time name="total">    2.60    2.60</time>
   <energy>
    <i name="e_fr_energy">   -179.17037903 </i>
    <i name="e_wo_entrp">   -179.05140176 </i>
    <i name="e_0_energy">   -179.11089039 </i>
   </energy>
  </scstep>
  <scstep>
   <time name="dav">    0.53    0.53</time>
   <time name="total">    2.61    2.61</time>
   <energy>
    <i name="e_fr_energy">   -179.17040541 </i>
    <i name="e_wo_entrp">   -179.05159004 </i>
    <i name="e_0_energy">   -179.11099772 </i>
   </energy>
  </scstep>
  <scstep>
   <time name="dav">    0.52    0.52</time>
   <time name="total">    2.61    2.61</time>
   <energy>
    <i name="e_fr_energy">   -179.17044618 </i>
    <i name="e_wo_entrp">   -179.05166616 </i>
    <i name="e_0_energy">   -179.11105617 </i>
   </energy>
  </scstep>
  <scstep>
   <time name="dav">    0.42    0.42</time>
   <time name="total">    2.51    2.51</time>
   <energy>
    <i name="e_fr_energy">   -179.17045925 </i>
    <i name="e_wo_entrp">   -179.05168532 </i>
    <i name="e_0_energy">   -179.11107228 </i>
   </energy>
  </scstep>
  <scstep>
   <time name="dav">    0.42    0.42</time>
   <time name="total">    2.44    2.45</time>
   <energy>
    <i name="alphaZ">   1390.48224925 </i>
    <i name="ewald"> -21538.70227073 </i>
    <i name="hartreedc">  -3748.12348571 </i>
    <i name="XCdc">    849.46757771 </i>
    <i name="pawpsdc">  24139.97450209 </i>
    <i name="pawaedc"> -23959.21110040 </i>
    <i name="eentropy">     -0.11873919 </i>
    <i name="bandstr">  -2795.93163741 </i>
    <i name="atom">  25482.99243790 </i>
    <i name="e_fr_energy">   -179.17046649 </i>
    <i name="e_wo_entrp">   -179.05172730 </i>
    <i name="e_0_energy">   -179.11109689 </i>
   </energy>
  </scstep>
  <structure>
   <crystal>
    <varray name="basis" >
     <v>      12.22634592       0.00000000       0.00000000 </v>
     <v>       0.00000000      12.22634592       0.00000000 </v>
     <v>       0.00000000       0.00000000      12.22634592 </v>
    </varray>
    <i name="volume">   1827.63740156 </i>
    <varray name="rec_basis" >
     <v>       0.08179059       0.00000000       0.00000000 </v>
     <v>       0.00000000       0.08179059       0.00000000 </v>
     <v>       0.00000000       0.00000000       0.08179059 </v>
    </varray>
   </crystal>
   <varray name="positions" >
    <v>       0.99903620       0.99939681       0.32090671 </v>
    <v>       0.00006860       0.00037597       0.67950968 </v>
    <v>       0.00023199       0.32154725       0.00015744 </v>
    <v>       0.99981462       0.33072779       0.33202314 </v>
    <v>       0.99983419       0.33165857       0.66801343 </v>
    <v>       0.99776665       0.67446805       0.99991773 </v>
    <v>       0.00057540       0.66791180       0.33109610 </v>
    <v>       0.00042456       0.66826127       0.66859266 </v>
    <v>       0.32992603       0.00006065       0.99990951 </v>
    <v>       0.33170908       0.00002248       0.33207554 </v>
    <v>       0.33198487       0.00037355       0.66856048 </v>
    <v>       0.33191258       0.33208986       0.00018585 </v>
    <v>       0.33323250       0.33272792       0.33296096 </v>
    <v>       0.33310550       0.33300244       0.66717065 </v>
    <v>       0.33149084       0.66809567       0.99984723 </v>
    <v>       0.33334777       0.66723190       0.33259936 </v>
    <v>       0.33372129       0.66664770       0.66704581 </v>
    <v>       0.67884943       0.00161535       0.00171824 </v>
    <v>       0.66565661       0.99931544       0.33120992 </v>
    <v>       0.66640366       0.00039791       0.66842329 </v>
    <v>       0.66613758       0.33127525       0.99999434 </v>
    <v>       0.66649090       0.33233370       0.33255797 </v>
    <v>       0.66655342       0.33250381       0.66729214 </v>
    <v>       0.66369857       0.66765832       0.00022860 </v>
    <v>       0.66613965       0.66702907       0.33257488 </v>
    <v>       0.66625006       0.66763741       0.66789408 </v>
    <v>       0.16992010       0.17117981       0.17268385 </v>
    <v>       0.16641998       0.16701710       0.50024620 </v>
    <v>       0.16979431       0.17321693       0.82915016 </v>
    <v>       0.16653913       0.49990620       0.16793708 </v>
    <v>       0.16598321       0.50027358       0.49992332 </v>
    <v>       0.16649089       0.50013010       0.83223512 </v>
    <v>       0.17160572       0.82875303       0.16992639 </v>
    <v>       0.16648784       0.83218286       0.49958425 </v>
    <v>       0.17206653       0.82735358       0.82739878 </v>
    <v>       0.49991266       0.16867795       0.16867167 </v>
    <v>       0.50020085       0.16713593       0.50001262 </v>
    <v>       0.50024697       0.16832316       0.83155178 </v>
    <v>       0.50011211       0.49968252       0.16762500 </v>
    <v>       0.50037153       0.50002868       0.50002295 </v>
    <v>       0.50024567       0.49971780       0.83244749 </v>
    <v>       0.50082633       0.83186485       0.16854131 </v>
    <v>       0.50017261       0.83272843       0.50026209 </v>
    <v>       0.50043549       0.83191064       0.83135534 </v>
    <v>       0.82821079       0.17017898       0.17186638 </v>
    <v>       0.83265262       0.16753488       0.49970500 </v>
    <v>       0.82923153       0.17344275       0.82726940 </v>
    <v>       0.83141156       0.49748938       0.16942356 </v>
    <v>       0.83336086       0.50041699       0.50003636 </v>
    <v>       0.83122252       0.49975258       0.83048516 </v>
    <v>       0.82873299       0.82452322       0.17213162 </v>
    <v>       0.83235019       0.83138874       0.50128223 </v>
    <v>       0.83009963       0.82798215       0.82920371 </v>
   </varray>
  </structure>
  <varray name="forces" >
   <v>       0.00568984      -0.00841836      -0.05504030 </v>
   <v>      -0.00945193      -0.01276651       0.05360553 </v>
   <v>      -0.02547990      -0.07626133       0.00541830 </v>
   <v>      -0.00846566       0.06820199       0.06046169 </v>
   <v>      -0.00498186       0.06970284      -0.06378967 </v>
   <v>       0.02983203       0.11463516      -0.00218771 </v>
   <v>      -0.01577474      -0.05921014       0.07774597 </v>
   <v>      -0.01519920      -0.05726700      -0.07183932 </v>
   <v>      -0.16687937       0.00020463       0.00208928 </v>
   <v>       0.01893873      -0.00390606       0.05436807 </v>
   <v>       0.01757490      -0.00745420      -0.06347430 </v>
   <v>       0.02049051       0.05015677       0.00142698 </v>
   <v>       0.00761946       0.04373616       0.04778760 </v>
   <v>       0.01144854       0.03832652      -0.04458475 </v>
   <v>       0.01868846      -0.05411307      -0.00073996 </v>
   <v>       0.00907848      -0.04154806       0.04858756 </v>
   <v>       0.00705683      -0.03452780      -0.04966294 </v>
   <v>       0.11266846      -0.05069704      -0.04606875 </v>
   <v>       0.01615912       0.00207986       0.08510012 </v>
   <v>       0.01100239      -0.01263147      -0.05872981 </v>
   <v>       0.00819490       0.07145629      -0.00175945 </v>
   <v>      -0.00938505       0.04901800       0.06463822 </v>
   <v>      -0.01475486       0.05950992      -0.06447673 </v>
   <v>       0.04563031      -0.04881439      -0.00894161 </v>
   <v>      -0.00049360      -0.05964265       0.07265326 </v>
   <v>       0.00440310      -0.05336165      -0.06376411 </v>
   <v>       0.06371314       0.00333138      -0.02328537 </v>
   <v>      -0.00048837      -0.02932253       0.00547544 </v>
   <v>       0.07094027      -0.03024629      -0.00672866 </v>
   <v>      -0.00447024      -0.00513175      -0.04312903 </v>
   <v>       0.00918764      -0.01024065      -0.00131840 </v>
   <v>      -0.00387231      -0.00689641       0.04337191 </v>
   <v>       0.02770800      -0.01233193       0.01505080 </v>
   <v>       0.00002100       0.03809579      -0.00239027 </v>
   <v>       0.02508790       0.01300973       0.02633977 </v>
   <v>      -0.01071289      -0.05920850      -0.05713453 </v>
   <v>      -0.01903614      -0.03232855       0.00063520 </v>
   <v>      -0.01277390      -0.05007940       0.05846008 </v>
   <v>      -0.02636324       0.00208479      -0.03776333 </v>
   <v>      -0.01644186      -0.00418829      -0.00093406 </v>
   <v>      -0.02829106      -0.00212743       0.03987763 </v>
   <v>      -0.02221221       0.04966450      -0.05748585 </v>
   <v>      -0.02032054       0.03236435      -0.00335925 </v>
   <v>      -0.00728033       0.05058074       0.06369652 </v>
   <v>      -0.02341404       0.01677527      -0.00400913 </v>
   <v>       0.00657031      -0.04636456       0.00076969 </v>
   <v>      -0.04501368      -0.03381952       0.02759817 </v>
   <v>       0.02545198       0.01696781      -0.07524070 </v>
   <v>       0.00427948      -0.00866845      -0.00252294 </v>
   <v>       0.02711475       0.00428709       0.07980185 </v>
   <v>      -0.04046119       0.05522637      -0.01255766 </v>
   <v>       0.01240799       0.05573161      -0.01864867 </v>
   <v>      -0.06494037       0.00642638       0.00660759 </v>
  </varray>
  <varray name="stress" >
   <v>      -8.11597133      -0.01704526      -0.00393783 </v>
   <v>      -0.01704521      -8.20609478      -0.01753188 </v>
   <v>      -0.00393781      -0.01753202      -8.27258989 </v>
  </varray>
  <energy>
   <i name="e_fr_energy">   -179.17046649 </i>
   <i name="e_wo_entrp">   -179.05172730 </i>
   <i name="e_0_energy">   -179.11109689 </i>
  </energy>
  <time name="totalsc">   33.88   33.96</time>
 </calculation>
 <calculation>
  <scstep>
   <time name="dav">    0.48    0.48</time>
   <time name="total">    2.68    2.69</time>
   <energy>
    <i name="alphaZ">   1390.48224925 </i>
    <i name="ewald"> -21540.95197449 </i>
    <i name="hartreedc">  -3746.11641113 </i>
    <i name="XCdc">    849.45131127 </i>
    <i name="pawpsdc">  24139.92591710 </i>
    <i name="pawaedc"> -23959.16275884 </i>
    <i name="eentropy">     -0.11862073 </i>
    <i name="bandstr">  -2795.67479494 </i>
    <i name="atom">  25482.99243790 </i>
    <i name="e_fr_energy">   -179.17264461 </i>
    <i name="e_wo_entrp">   -179.05402388 </i>
    <i name="e_0_energy">   -179.11333425 </i>
   </energy>
  </scstep>
  <scstep>
   <time name="dav">    0.49    0.50</time>
   <time name="total">    2.66    2.66</time>
   <energy>
    <i name="e_fr_energy">   -179.20461911 </i>
    <i name="e_wo_entrp">   -179.08602478 </i>
    <i name="e_0_energy">   -179.14532194 </i>
   </energy>
  </scstep>
  <scstep>
   <time name="dav">    0.54    0.54</time>
   <time name="total">    2.70    2.71</time>
   <energy>
    <i name="e_fr_energy">   -179.20359738 </i>
    <i name="e_wo_entrp">   -179.08505473 </i>
    <i name="e_0_energy">   -179.14432605 </i>
   </energy>
  </scstep>
  <scstep>
   <time name="dav">    0.52    0.52</time>
   <time name="total">    2.69    2.70</time>
   <energy>
    <i name="e_fr_energy">   -179.20286916 </i>
    <i name="e_wo_entrp">   -179.08434870 </i>
    <i name="e_0_energy">   -179.14360893 </i>
   </energy>
  </scstep>
  <scstep>
   <time name="dav">    0.54    0.54</time>
   <time name="total">    2.70    2.71</time>
   <energy>
    <i name="e_fr_energy">   -179.20288248 </i>
    <i name="e_wo_entrp">   -179.08436600 </i>
    <i name="e_0_energy">   -179.14362424 </i>
   </energy>
  </scstep>
  <scstep>
   <time name="dav">    0.47    0.47</time>
   <time name="total">    2.64    2.64</time>
   <energy>
    <i name="e_fr_energy">   -179.20287465 </i>
    <i name="e_wo_entrp">   -179.08438146 </i>
    <i name="e_0_energy">   -179.14362806 </i>
   </energy>
  </scstep>
  <scstep>
   <time name="dav">    0.45    0.45</time>
   <time name="total">    2.41    2.42</time>
   <energy>
    <i name="alphaZ">   1390.48224925 </i>
    <i name="ewald"> -21540.95197449 </i>
    <i name="hartreedc">  -3746.31119734 </i>
    <i name="XCdc">    849.46636025 </i>
    <i name="pawpsdc">  24139.88264187 </i>
    <i name="pawaedc"> -23959.12067965 </i>
    <i name="eentropy">     -0.11849339 </i>
    <i name="bandstr">  -2795.52421436 </i>
    <i name="atom">  25482.99243790 </i>
    <i name="e_fr_energy">   -179.20286995 </i>
[...]
        <r>  0.0000  0.0036  0.0000 </r>
        <r>  0.0000  0.0024  0.0000 </r>
        <r>  0.0001  0.0046  0.0000 </r>
        <r>  0.0000  0.0023  0.0000 </r>
        <r>  0.0000  0.0039  0.0000 </r>
        <r>  0.0000  0.0013  0.0000 </r>
        <r>  0.0001  0.0074  0.0000 </r>
        <r>  0.0000  0.0020  0.0000 </r>
        <r>  0.0000  0.0033  0.0000 </r>
       </set>
       <set comment="band 274">
        <r>  0.0000  0.0000  0.0004 </r>
        <r>  0.0000  0.0000  0.0002 </r>
        <r>  0.0000  0.0000  0.0009 </r>
        <r>  0.0000  0.0000  0.0033 </r>
        <r>  0.0000  0.0000  0.0060 </r>
        <r>  0.0000  0.0000  0.0000 </r>
        <r>  0.0000  0.0000  0.0064 </r>
        <r>  0.0000  0.0000  0.0042 </r>
        <r>  0.0000  0.0000  0.0007 </r>
        <r>  0.0000  0.0003  0.0249 </r>
        <r>  0.0000  0.0003  0.0197 </r>
        <r>  0.0000  0.0003  0.0224 </r>
        <r>  0.0000  0.0002  0.0095 </r>
        <r>  0.0000  0.0001  0.0094 </r>
        <r>  0.0000  0.0002  0.0224 </r>
        <r>  0.0000  0.0002  0.0121 </r>
        <r>  0.0000  0.0003  0.0104 </r>
        <r>  0.0000  0.0000  0.0009 </r>
        <r>  0.0000  0.0003  0.0210 </r>
        <r>  0.0000  0.0003  0.0222 </r>
        <r>  0.0000  0.0004  0.0240 </r>
        <r>  0.0000  0.0002  0.0090 </r>
        <r>  0.0000  0.0002  0.0096 </r>
        <r>  0.0000  0.0002  0.0159 </r>
        <r>  0.0000  0.0002  0.0078 </r>
        <r>  0.0000  0.0002  0.0101 </r>
        <r>  0.0000  0.0024  0.0000 </r>
        <r>  0.0000  0.0034  0.0000 </r>
        <r>  0.0000  0.0019  0.0000 </r>
        <r>  0.0000  0.0038  0.0000 </r>
        <r>  0.0000  0.0001  0.0000 </r>
        <r>  0.0000  0.0038  0.0000 </r>
        <r>  0.0000  0.0019  0.0000 </r>
        <r>  0.0000  0.0043  0.0000 </r>
        <r>  0.0000  0.0016  0.0000 </r>
        <r>  0.0000  0.0000  0.0000 </r>
        <r>  0.0000  0.0001  0.0000 </r>
        <r>  0.0000  0.0001  0.0000 </r>
        <r>  0.0000  0.0001  0.0000 </r>
        <r>  0.0000  0.0000  0.0000 </r>
        <r>  0.0000  0.0000  0.0000 </r>
        <r>  0.0000  0.0001  0.0000 </r>
        <r>  0.0000  0.0000  0.0000 </r>
        <r>  0.0000  0.0001  0.0000 </r>
        <r>  0.0000  0.0022  0.0000 </r>
        <r>  0.0000  0.0032  0.0000 </r>
        <r>  0.0000  0.0020  0.0000 </r>
        <r>  0.0000  0.0035  0.0000 </r>
        <r>  0.0000  0.0001  0.0000 </r>
        <r>  0.0000  0.0035  0.0000 </r>
        <r>  0.0000  0.0013  0.0000 </r>
        <r>  0.0000  0.0041  0.0000 </r>
        <r>  0.0000  0.0013  0.0000 </r>
       </set>
       <set comment="band 275">
        <r>  0.0000  0.0000  0.0001 </r>
        <r>  0.0000  0.0000  0.0003 </r>
        <r>  0.0000  0.0000  0.0005 </r>
        <r>  0.0000  0.0002  0.0131 </r>
        <r>  0.0000  0.0002  0.0321 </r>
        <r>  0.0000  0.0000  0.0005 </r>
        <r>  0.0000  0.0002  0.0284 </r>
        <r>  0.0000  0.0003  0.0141 </r>
        <r>  0.0000  0.0000  0.0001 </r>
        <r>  0.0000  0.0000  0.0035 </r>
        <r>  0.0000  0.0000  0.0020 </r>
        <r>  0.0000  0.0002  0.0230 </r>
        <r>  0.0000  0.0003  0.0122 </r>
        <r>  0.0000  0.0002  0.0165 </r>
        <r>  0.0000  0.0002  0.0120 </r>
        <r>  0.0000  0.0003  0.0134 </r>
        <r>  0.0000  0.0002  0.0064 </r>
        <r>  0.0000  0.0000  0.0006 </r>
        <r>  0.0000  0.0000  0.0014 </r>
        <r>  0.0000  0.0000  0.0042 </r>
        <r>  0.0000  0.0003  0.0146 </r>
        <r>  0.0000  0.0001  0.0067 </r>
        <r>  0.0000  0.0002  0.0120 </r>
        <r>  0.0000  0.0004  0.0282 </r>
        <r>  0.0000  0.0003  0.0141 </r>
        <r>  0.0000  0.0002  0.0119 </r>
        <r>  0.0000  0.0018  0.0000 </r>
        <r>  0.0000  0.0049  0.0000 </r>
        <r>  0.0000  0.0026  0.0000 </r>
        <r>  0.0000  0.0002  0.0000 </r>
        <r>  0.0000  0.0001  0.0000 </r>
        <r>  0.0000  0.0004  0.0000 </r>
        <r>  0.0000  0.0022  0.0000 </r>
        <r>  0.0000  0.0045  0.0000 </r>
        <r>  0.0000  0.0010  0.0000 </r>
        <r>  0.0000  0.0041  0.0000 </r>
        <r>  0.0000  0.0001  0.0000 </r>
        <r>  0.0000  0.0040  0.0000 </r>
        <r>  0.0000  0.0000  0.0000 </r>
        <r>  0.0000  0.0000  0.0000 </r>
        <r>  0.0000  0.0001  0.0000 </r>
        <r>  0.0000  0.0040  0.0000 </r>
        <r>  0.0000  0.0001  0.0000 </r>
        <r>  0.0000  0.0039  0.0000 </r>
        <r>  0.0000  0.0013  0.0000 </r>
        <r>  0.0000  0.0038  0.0000 </r>
        <r>  0.0000  0.0025  0.0000 </r>
        <r>  0.0000  0.0002  0.0000 </r>
        <r>  0.0000  0.0000  0.0000 </r>
        <r>  0.0000  0.0004  0.0000 </r>
        <r>  0.0000  0.0026  0.0000 </r>
        <r>  0.0000  0.0034  0.0000 </r>
        <r>  0.0000  0.0027  0.0000 </r>
       </set>
       <set comment="band 276">
        <r>  0.0000  0.0000  0.0004 </r>
        <r>  0.0000  0.0000  0.0001 </r>
        <r>  0.0000  0.0000  0.0002 </r>
        <r>  0.0000  0.0001  0.0190 </r>
        <r>  0.0000  0.0001  0.0236 </r>
        <r>  0.0000  0.0000  0.0000 </r>
        <r>  0.0000  0.0001  0.0215 </r>
        <r>  0.0000  0.0001  0.0180 </r>
        <r>  0.0000  0.0000  0.0001 </r>
        <r>  0.0000  0.0001  0.0124 </r>
        <r>  0.0000  0.0001  0.0331 </r>
        <r>  0.0000  0.0001  0.0166 </r>
        <r>  0.0000  0.0000  0.0021 </r>
        <r>  0.0000  0.0001  0.0106 </r>
        <r>  0.0000  0.0000  0.0173 </r>
        <r>  0.0000  0.0001  0.0051 </r>
        <r>  0.0000  0.0001  0.0096 </r>
        <r>  0.0000  0.0000  0.0002 </r>
        <r>  0.0000  0.0002  0.0285 </r>
        <r>  0.0000  0.0002  0.0134 </r>
        <r>  0.0000  0.0001  0.0145 </r>
        <r>  0.0000  0.0001  0.0073 </r>
        <r>  0.0000  0.0001  0.0037 </r>
        <r>  0.0000  0.0001  0.0140 </r>
        <r>  0.0000  0.0002  0.0070 </r>
        <r>  0.0000  0.0001  0.0023 </r>
        <r>  0.0000  0.0005  0.0000 </r>
        <r>  0.0000  0.0010  0.0000 </r>
        <r>  0.0000  0.0019  0.0000 </r>
        <r>  0.0000  0.0023  0.0000 </r>
        <r>  0.0000  0.0000  0.0000 </r>
        <r>  0.0000  0.0027  0.0000 </r>
        <r>  0.0000  0.0006  0.0000 </r>
        <r>  0.0000  0.0011  0.0000 </r>
        <r>  0.0000  0.0014  0.0000 </r>
        <r>  0.0000  0.0011  0.0000 </r>
        <r>  0.0000  0.0002  0.0000 </r>
        <r>  0.0000  0.0018  0.0000 </r>
        <r>  0.0000  0.0001  0.0000 </r>
        <r>  0.0000  0.0000  0.0000 </r>
        <r>  0.0000  0.0001  0.0000 </r>
        <r>  0.0000  0.0011  0.0000 </r>
        <r>  0.0000  0.0001  0.0000 </r>
        <r>  0.0000  0.0018  0.0000 </r>
        <r>  0.0000  0.0015  0.0000 </r>
        <r>  0.0000  0.0004  0.0000 </r>
        <r>  0.0000  0.0009  0.0000 </r>
        <r>  0.0000  0.0016  0.0000 </r>
        <r>  0.0000  0.0000  0.0000 </r>
        <r>  0.0000  0.0021  0.0000 </r>
        <r>  0.0000  0.0014  0.0000 </r>
        <r>  0.0000  0.0005  0.0000 </r>
        <r>  0.0000  0.0004  0.0000 </r>
       </set>
       <set comment="band 277">
        <r>  0.0000  0.0000  0.0004 </r>
        <r>  0.0000  0.0000  0.0003 </r>
        <r>  0.0000  0.0000  0.0002 </r>
        <r>  0.0000  0.0002  0.0295 </r>
        <r>  0.0000  0.0002  0.0118 </r>
        <r>  0.0000  0.0000  0.0002 </r>
        <r>  0.0000  0.0002  0.0109 </r>
        <r>  0.0000  0.0002  0.0358 </r>
        <r>  0.0000  0.0000  0.0000 </r>
        <r>  0.0000  0.0001  0.0249 </r>
        <r>  0.0000  0.0002  0.0132 </r>
        <r>  0.0000  0.0000  0.0051 </r>
        <r>  0.0000  0.0003  0.0119 </r>
        <r>  0.0000  0.0001  0.0047 </r>
        <r>  0.0000  0.0000  0.0120 </r>
        <r>  0.0000  0.0002  0.0083 </r>
        <r>  0.0000  0.0002  0.0125 </r>
        <r>  0.0000  0.0000  0.0006 </r>
        <r>  0.0000  0.0002  0.0127 </r>
        <r>  0.0000  0.0002  0.0271 </r>
        <r>  0.0000  0.0001  0.0105 </r>
        <r>  0.0000  0.0002  0.0107 </r>
        <r>  0.0000  0.0001  0.0080 </r>
        <r>  0.0000  0.0001  0.0064 </r>
        <r>  0.0000  0.0001  0.0033 </r>
        <r>  0.0000  0.0002  0.0145 </r>
        <r>  0.0000  0.0021  0.0000 </r>
        <r>  0.0000  0.0004  0.0000 </r>
        <r>  0.0000  0.0007  0.0000 </r>
        <r>  0.0000  0.0025  0.0000 </r>
        <r>  0.0000  0.0001  0.0000 </r>
        <r>  0.0000  0.0036  0.0000 </r>
        <r>  0.0000  0.0012  0.0000 </r>
        <r>  0.0000  0.0010  0.0000 </r>
        <r>  0.0000  0.0021  0.0000 </r>
        <r>  0.0000  0.0028  0.0000 </r>
        <r>  0.0000  0.0000  0.0000 </r>
        <r>  0.0000  0.0033  0.0000 </r>
        <r>  0.0000  0.0000  0.0000 </r>
        <r>  0.0000  0.0000  0.0000 </r>
        <r>  0.0000  0.0001  0.0000 </r>
        <r>  0.0000  0.0035  0.0000 </r>
        <r>  0.0000  0.0001  0.0000 </r>
        <r>  0.0000  0.0038  0.0000 </r>
        <r>  0.0000  0.0019  0.0000 </r>
        <r>  0.0000  0.0004  0.0000 </r>
        <r>  0.0000  0.0016  0.0000 </r>
        <r>  0.0000  0.0020  0.0000 </r>
        <r>  0.0000  0.0001  0.0000 </r>
        <r>  0.0000  0.0028  0.0000 </r>
        <r>  0.0000  0.0009  0.0000 </r>
        <r>  0.0000  0.0008  0.0000 </r>
        <r>  0.0000  0.0027  0.0000 </r>
       </set>
       <set comment="band 278">
        <r>  0.0000  0.0000  0.0035 </r>
        <r>  0.0000  0.0000  0.0035 </r>
        <r>  0.0000  0.0000  0.0041 </r>
        <r>  0.0000  0.0001  0.0123 </r>
        <r>  0.0000  0.0001  0.0140 </r>
        <r>  0.0000  0.0000  0.0041 </r>
        <r>  0.0000  0.0001  0.0122 </r>
        <r>  0.0000  0.0001  0.0131 </r>
        <r>  0.0000  0.0000  0.0006 </r>
        <r>  0.0000  0.0013  0.0093 </r>
        <r>  0.0000  0.0013  0.0116 </r>
        <r>  0.0000  0.0013  0.0079 </r>
        <r>  0.0000  0.0005  0.0154 </r>
        <r>  0.0000  0.0009  0.0103 </r>
        <r>  0.0000  0.0013  0.0083 </r>
        <r>  0.0000  0.0009  0.0092 </r>
        <r>  0.0000  0.0005  0.0144 </r>
        <r>  0.0000  0.0000  0.0008 </r>
        <r>  0.0000  0.0013  0.0115 </r>
        <r>  0.0000  0.0012  0.0139 </r>
        <r>  0.0000  0.0012  0.0099 </r>
        <r>  0.0000  0.0009  0.0100 </r>
        <r>  0.0000  0.0005  0.0156 </r>
        <r>  0.0000  0.0013  0.0089 </r>
        <r>  0.0000  0.0005  0.0166 </r>
        <r>  0.0000  0.0008  0.0110 </r>
        <r>  0.0000  0.0030  0.0000 </r>
        <r>  0.0000  0.0063  0.0000 </r>
        <r>  0.0000  0.0022  0.0000 </r>
        <r>  0.0000  0.0062  0.0000 </r>
        <r>  0.0000  0.0025  0.0000 </r>
        <r>  0.0000  0.0063  0.0000 </r>
        <r>  0.0000  0.0022  0.0000 </r>
        <r>  0.0000  0.0062  0.0000 </r>
        <r>  0.0000  0.0035  0.0000 </r>
        <r>  0.0000  0.0012  0.0000 </r>
        <r>  0.0000  0.0019  0.0000 </r>
        <r>  0.0000  0.0018  0.0000 </r>
        <r>  0.0000  0.0001  0.0000 </r>
        <r>  0.0000  0.0001  0.0000 </r>
        <r>  0.0000  0.0002  0.0000 </r>
        <r>  0.0000  0.0014  0.0000 </r>
        <r>  0.0000  0.0021  0.0000 </r>
        <r>  0.0000  0.0014  0.0000 </r>
        <r>  0.0000  0.0022  0.0000 </r>
        <r>  0.0000  0.0068  0.0000 </r>
        <r>  0.0000  0.0040  0.0000 </r>
        <r>  0.0000  0.0062  0.0000 </r>
        <r>  0.0000  0.0022  0.0000 </r>
        <r>  0.0000  0.0069  0.0000 </r>
        <r>  0.0000  0.0034  0.0000 </r>
        <r>  0.0000  0.0068  0.0000 </r>
        <r>  0.0000  0.0023  0.0000 </r>
       </set>
       <set comment="band 279">
        <r>  0.0000  0.0000  0.0015 </r>
        <r>  0.0000  0.0000  0.0015 </r>
        <r>  0.0000  0.0000  0.0028 </r>
        <r>  0.0000  0.0022  0.0093 </r>
        <r>  0.0000  0.0023  0.0079 </r>
        <r>  0.0000  0.0000  0.0025 </r>
        <r>  0.0000  0.0022  0.0094 </r>
        <r>  0.0000  0.0022  0.0081 </r>
        <r>  0.0000  0.0000  0.0081 </r>
        <r>  0.0000  0.0007  0.0123 </r>
        <r>  0.0000  0.0007  0.0115 </r>
        <r>  0.0000  0.0004  0.0109 </r>
        <r>  0.0000  0.0007  0.0107 </r>
        <r>  0.0000  0.0004  0.0157 </r>
        <r>  0.0000  0.0005  0.0115 </r>
        <r>  0.0000  0.0004  0.0151 </r>
        <r>  0.0000  0.0008  0.0100 </r>
        <r>  0.0000  0.0000  0.0084 </r>
        <r>  0.0000  0.0007  0.0122 </r>
        <r>  0.0000  0.0007  0.0104 </r>
        <r>  0.0000  0.0004  0.0107 </r>
        <r>  0.0000  0.0005  0.0154 </r>
        <r>  0.0000  0.0009  0.0104 </r>
        <r>  0.0000  0.0005  0.0113 </r>
        <r>  0.0000  0.0009  0.0104 </r>
        <r>  0.0000  0.0005  0.0147 </r>
        <r>  0.0000  0.0029  0.0000 </r>
        <r>  0.0000  0.0020  0.0000 </r>
        <r>  0.0000  0.0038  0.0000 </r>
        <r>  0.0000  0.0033  0.0000 </r>
        <r>  0.0000  0.0002  0.0000 </r>
        <r>  0.0000  0.0029  0.0000 </r>
        <r>  0.0000  0.0039  0.0000 </r>
        <r>  0.0000  0.0017  0.0000 </r>
        <r>  0.0000  0.0028  0.0000 </r>
        <r>  0.0000  0.0089  0.0000 </r>
        <r>  0.0000  0.0002  0.0000 </r>
        <r>  0.0000  0.0087  0.0000 </r>
        <r>  0.0000  0.0000  0.0000 </r>
        <r>  0.0000  0.0000  0.0000 </r>
        <r>  0.0000  0.0001  0.0000 </r>
        <r>  0.0000  0.0096  0.0000 </r>
        <r>  0.0000  0.0002  0.0000 </r>
        <r>  0.0000  0.0089  0.0000 </r>
        <r>  0.0000  0.0039  0.0000 </r>
        <r>  0.0000  0.0020  0.0000 </r>
        <r>  0.0000  0.0025  0.0000 </r>
        <r>  0.0000  0.0031  0.0000 </r>
        <r>  0.0000  0.0002  0.0000 </r>
        <r>  0.0000  0.0029  0.0000 </r>
        <r>  0.0000  0.0027  0.0000 </r>
        <r>  0.0000  0.0020  0.0000 </r>
        <r>  0.0000  0.0035  0.0000 </r>
       </set>
       <set comment="band 280">
        <r>  0.0000  0.0003  0.0020 </r>
        <r>  0.0000  0.0001  0.0006 </r>
        <r>  0.0000  0.0001  0.0019 </r>
        <r>  0.0000  0.0001  0.0186 </r>
        <r>  0.0000  0.0001  0.0157 </r>
        <r>  0.0001  0.0007  0.0104 </r>
        <r>  0.0000  0.0002  0.0268 </r>
        <r>  0.0000  0.0002  0.0239 </r>
        <r>  0.0000  0.0007  0.0090 </r>
        <r>  0.0000  0.0003  0.0339 </r>
        <r>  0.0000  0.0002  0.0213 </r>
        <r>  0.0000  0.0004  0.0086 </r>
        <r>  0.0000  0.0001  0.0053 </r>
        <r>  0.0000  0.0000  0.0075 </r>
        <r>  0.0000  0.0002  0.0035 </r>
        <r>  0.0000  0.0003  0.0015 </r>
        <r>  0.0000  0.0004  0.0003 </r>
        <r>  0.0000  0.0001  0.0029 </r>
        <r>  0.0000  0.0001  0.0160 </r>
        <r>  0.0000  0.0003  0.0168 </r>
        <r>  0.0000  0.0003  0.0019 </r>
        <r>  0.0000  0.0003  0.0085 </r>
        <r>  0.0000  0.0005  0.0061 </r>
        <r>  0.0000  0.0005  0.0057 </r>
        <r>  0.0000  0.0002  0.0041 </r>
        <r>  0.0000  0.0001  0.0070 </r>
        <r>  0.0000  0.0014  0.0000 </r>
        <r>  0.0000  0.0033  0.0000 </r>
        <r>  0.0000  0.0010  0.0000 </r>
        <r>  0.0000  0.0025  0.0000 </r>
        <r>  0.0000  0.0036  0.0000 </r>
        <r>  0.0000  0.0016  0.0000 </r>
        <r>  0.0000  0.0037  0.0000 </r>
        <r>  0.0000  0.0092  0.0000 </r>
        <r>  0.0000  0.0021  0.0000 </r>
        <r>  0.0000  0.0042  0.0000 </r>
        <r>  0.0000  0.0123  0.0000 </r>
        <r>  0.0000  0.0045  0.0000 </r>
        <r>  0.0000  0.0005  0.0000 </r>
        <r>  0.0000  0.0039  0.0000 </r>
        <r>  0.0000  0.0026  0.0000 </r>
        <r>  0.0000  0.0027  0.0000 </r>
        <r>  0.0000  0.0037  0.0000 </r>
        <r>  0.0000  0.0008  0.0000 </r>
        <r>  0.0000  0.0019  0.0000 </r>
        <r>  0.0000  0.0057  0.0000 </r>
        <r>  0.0000  0.0020  0.0000 </r>
        <r>  0.0000  0.0040  0.0000 </r>
        <r>  0.0000  0.0109  0.0000 </r>
        <r>  0.0000  0.0050  0.0000 </r>
        <r>  0.0000  0.0007  0.0000 </r>
        <r>  0.0000  0.0018  0.0000 </r>
        <r>  0.0000  0.0009  0.0000 </r>
       </set>
      </set>
     </set>
    </set>
   </array>
  </projected>
 </calculation>
 <structure name="finalpos" >
  <crystal>
   <varray name="basis" >
    <v>      12.22634592       0.00000000       0.00000000 </v>
    <v>       0.00000000      12.22634592       0.00000000 </v>
    <v>       0.00000000       0.00000000      12.22634592 </v>
   </varray>
   <i name="volume">   1827.63740156 </i>
   <varray name="rec_basis" >
    <v>       0.08179059       0.00000000       0.00000000 </v>
    <v>       0.00000000       0.08179059       0.00000000 </v>
    <v>       0.00000000       0.00000000       0.08179059 </v>
   </varray>
  </crystal>
  <varray name="positions" >
   <v>       0.99982927       0.99955117       0.31629485 </v>
   <v>       0.99995110       0.99995341       0.68390115 </v>
   <v>       0.99971557       0.31594422       0.00012816 </v>
   <v>       0.99977104       0.33310933       0.33378349 </v>
   <v>       0.99976560       0.33370682       0.66636047 </v>
   <v>       0.99981030       0.68223232       0.99998506 </v>
   <v>       0.99986667       0.66599583       0.33358566 </v>
   <v>       0.99998845       0.66640223       0.66626782 </v>
   <v>       0.31976354       0.99998578       0.99999171 </v>
   <v>       0.33294245       0.99991030       0.33369663 </v>
   <v>       0.33313691       0.99995562       0.66637685 </v>
   <v>       0.33306864       0.33363361       0.00020199 </v>
   <v>       0.33351320       0.33375303       0.33404308 </v>
   <v>       0.33354047       0.33375696       0.66623038 </v>
   <v>       0.33286687       0.66620684       0.99989841 </v>
   <v>       0.33368023       0.66615968       0.33371878 </v>
   <v>       0.33382497       0.66602986       0.66593854 </v>
   <v>       0.68407509       0.99961856       0.99996927 </v>
   <v>       0.66617982       0.99957206       0.33401613 </v>
   <v>       0.66645038       0.99995342       0.66655111 </v>
   <v>       0.66607854       0.33360677       0.99998183 </v>
   <v>       0.66586676       0.33346946       0.33409278 </v>
   <v>       0.66582966       0.33403328       0.66574456 </v>
   <v>       0.66584438       0.66607903       0.00008445 </v>
   <v>       0.66597610       0.66541576       0.33442266 </v>
   <v>       0.66612790       0.66607826       0.66616360 </v>
   <v>       0.17306599       0.17239674       0.17269314 </v>
   <v>       0.16606650       0.16618651       0.50042774 </v>
   <v>       0.17326585       0.17252504       0.82761878 </v>
   <v>       0.16593435       0.49965732       0.16663407 </v>
   <v>       0.16639389       0.49983179       0.49991126 </v>
   <v>       0.16591715       0.49980182       0.83354283 </v>
   <v>       0.17292152       0.82709246       0.17216518 </v>
   <v>       0.16615494       0.83329824       0.49955764 </v>
   <v>       0.17309810       0.82713305       0.82741842 </v>
   <v>       0.49972404       0.16646266       0.16675666 </v>
   <v>       0.49942409       0.16631827       0.50012623 </v>
   <v>       0.49993399       0.16652377       0.83354768 </v>
   <v>       0.49908956       0.49985735       0.16678731 </v>
   <v>       0.49963890       0.49984961       0.50003588 </v>
   <v>       0.49912453       0.49976501       0.83335175 </v>
   <v>       0.49998672       0.83347217       0.16660393 </v>
   <v>       0.49938313       0.83338004       0.50017641 </v>
   <v>       0.50028268       0.83357202       0.83359053 </v>
   <v>       0.82704318       0.17246878       0.17318049 </v>
   <v>       0.83305847       0.16599491       0.49992120 </v>
   <v>       0.82681943       0.17301726       0.82705383 </v>
   <v>       0.83263155       0.49861496       0.16670120 </v>
   <v>       0.83339957       0.49995044       0.49998482 </v>
   <v>       0.83256765       0.49988311       0.83338728 </v>
   <v>       0.82675413       0.82617756       0.17313751 </v>
   <v>       0.83302556       0.83327538       0.50040072 </v>
   <v>       0.82729774       0.82653889       0.82730262 </v>
  </varray>
 </structure>
</modeling>
