       N       E                     dE             d eps       ncg     rms          rms(c)
DAV:   1     0.807484860565E+02    0.80748E+02   -0.79640E+03   416   0.138E+03
DAV:   2    -0.287823136264E+01   -0.83627E+02   -0.80522E+02   476   0.260E+02
DAV:   3    -0.792978496529E+01   -0.50516E+01   -0.50344E+01   491   0.668E+01
DAV:   4    -0.798787878153E+01   -0.58094E-01   -0.58080E-01   476   0.789E+00
DAV:   5    -0.798877226336E+01   -0.89348E-03   -0.89347E-03   506   0.937E-01    0.677E+00
DAV:   6    -0.760087211617E+01    0.38790E+00   -0.10283E+00   578   0.396E+01    0.532E+00
DAV:   7    -0.758519710363E+01    0.15675E-01   -0.32446E-01   426   0.601E+00    0.255E+00
DAV:   8    -0.758213482622E+01    0.30623E-02   -0.52551E-03   491   0.749E-01    0.685E-01
DAV:   9    -0.758191731148E+01    0.21751E-03   -0.85505E-04   469   0.344E-01    0.111E-01
DAV:  10    -0.758200350836E+01   -0.86197E-04   -0.17680E-04   467   0.176E-01    0.591E-02
DAV:  11    -0.758200241110E+01    0.10973E-05   -0.41152E-05   501   0.135E-01    0.835E-03
DAV:  12    -0.758200256629E+01   -0.15519E-06   -0.40219E-06   634   0.434E-02    0.283E-03
DAV:  13    -0.758200240873E+01    0.15755E-06   -0.78804E-07   525   0.213E-02    0.111E-03
DAV:  14    -0.758200238202E+01    0.26712E-07   -0.12814E-07   276   0.429E-03
   1 F= -.75820024E+01 E0= -.75820024E+01  d E =-.758200E+01
       N       E                     dE             d eps       ncg     rms          rms(c)
DAV:   1    -0.769782861265E+01   -0.11583E+00   -0.13987E+00   496   0.277E+01    0.245E+00
DAV:   2    -0.759888105346E+01    0.98948E-01   -0.38325E-01   501   0.219E+01    0.915E-01
DAV:   3    -0.758776907293E+01    0.11112E-01   -0.15047E-02   519   0.206E+00    0.418E-01
DAV:   4    -0.758497894666E+01    0.27901E-02   -0.27468E-03   506   0.836E-01    0.215E-01
DAV:   5    -0.758454779647E+01    0.43115E-03   -0.45557E-04   653   0.452E-01    0.582E-02
DAV:   6    -0.758451605905E+01    0.31737E-04   -0.13045E-04   441   0.135E-01    0.176E-02
DAV:   7    -0.758451621980E+01   -0.16076E-06   -0.70642E-06   451   0.255E-02    0.855E-03
DAV:   8    -0.758451604077E+01    0.17903E-06   -0.87992E-07   485   0.947E-03    0.922E-04
DAV:   9    -0.758451614237E+01   -0.10160E-06   -0.18029E-07   266   0.833E-03    0.840E-04
DAV:  10    -0.758451612781E+01    0.14563E-07   -0.30179E-08   208   0.531E-03
   2 F= -.75845161E+01 E0= -.75845161E+01  d E =-.251375E-02
       N       E                     dE             d eps       ncg     rms          rms(c)
DAV:   1    -0.759293717685E+01   -0.84210E-02   -0.10195E-01   491   0.775E+00    0.644E-01
DAV:   2    -0.758596851589E+01    0.69687E-02   -0.24394E-02   496   0.490E+00    0.247E-01
DAV:   3    -0.758515642720E+01    0.81209E-03   -0.92741E-04   426   0.303E-01    0.113E-01
DAV:   4    -0.758495670051E+01    0.19973E-03   -0.10720E-04   484   0.175E-01    0.519E-02
DAV:   5    -0.758492398874E+01    0.32712E-04   -0.29705E-05   632   0.115E-01    0.102E-02
DAV:   6    -0.758492371876E+01    0.26998E-06   -0.92424E-06   441   0.381E-02    0.472E-03
DAV:   7    -0.758492401909E+01   -0.30033E-06   -0.42443E-07   466   0.130E-02    0.220E-03
DAV:   8    -0.758492399939E+01    0.19693E-07   -0.11272E-07   208   0.525E-03
   3 F= -.75849240E+01 E0= -.75849240E+01  d E =-.292162E-02
