 vasp.6.5.1 10Mar25 (build May 13 2025 11:33:44) complex                         
 executed on              LinuxNV date 2026.05.16  18:49:59
 running    2 mpi-ranks, on    1 nodes
 distrk:  each k-point on    1 cores,    2 groups
 distr:  one band on NCORE=   1 cores,    1 groups
 Offloading initialized ...    2 GPUs detected


--------------------------------------------------------------------------------------------------------


 INCAR:
   ALGO = Normal
   PREC = Normal
   LREAL = False
   EDIFF = 1e-07
   ENCUT = 400.0
   LASPH = True
   NELM = 100
   ISIF = 3
   IBRION = 2
   EDIFFG = -0.005
   NSW = 300
   ISMEAR = -5
   SIGMA = 0.1
   LWAVE = False
   LCHARG = False
   LORBIT = 10
   GGA = Ps
   KPAR = 4

 POTCAR:    PAW_PBE Zn 06Sep2000                  
 POTCAR:    PAW_PBE S 06Sep2000                   
 POTCAR:    PAW_PBE Zn 06Sep2000                  
   SHA256 =  501fddbd8274dd8e9725d4f3de27861d7f1e553a7e18441bc79fed8f346e7f23 Zn/POTCAR             
   COPYR  = (c) Copyright 06Sep2000 Georg Kresse                                                    
   COPYR  = This file is part of the software VASP. Any use, copying, and all other rights are regul
   COPYR  = If you do not have a valid VASP license, you may not use, copy or distribute this file. 
   VRHFIN =Zn: d10 p2                                                                               
   LEXCH  = PE                                                                                      
   EATOM  =  1748.8345 eV,  128.5357 Ry                                                             
                                                                                                    
   TITEL  = PAW_PBE Zn 06Sep2000                                                                    
   LULTRA =        F    use ultrasoft PP ?                                                          
   IUNSCR =        1    unscreen: 0-lin 1-nonlin 2-no                                               
   RPACOR =    2.000    partial core radius                                                         
   POMASS =   65.390; ZVAL   =   12.000    mass and valenz                                          
   RCORE  =    2.300    outmost cutoff radius                                                       
   RWIGS  =    2.400; RWIGS  =    1.270    wigner-seitz radius (au A)                               
   ENMAX  =  276.723; ENMIN  =  207.542 eV                                                          
   RCLOC  =    1.828    cutoff for local pot                                                        
   LCOR   =        T    correct aug charges                                                         
   LPAW   =        T    paw PP                                                                      
   EAUG   =  575.892                                                                                
   DEXC   =    0.000                                                                                
   RMAX   =    2.347    core radius for proj-oper                                                   
   RAUG   =    1.300    factor for augmentation sphere                                              
   RDEP   =    2.324    radius for radial grids                                                     
   RDEPT  =    1.788    core radius for aug-charge                                                  
                                                                                                    
   Atomic configuration                                                                             
    9 entries                                                                                       
     n  l   j            E        occ.                                                              
     1  0  0.50     -9524.6913   2.0000                                                             
     2  0  0.50     -1158.1882   2.0000                                                             
     2  1  1.50     -1003.8506   6.0000                                                             
     3  0  0.50      -129.2194   2.0000                                                             
     3  1  1.50       -83.3890   6.0000                                                             
     3  2  2.50       -10.1410  10.0000                                                             
     4  0  0.50        -5.9785   2.0000                                                             
     4  1  0.50        -4.0817   0.0000                                                             
     4  3  2.50        -1.3606   0.0000                                                             
   Description                                                                                      
     l       E           TYP  RCUT    TYP  RCUT                                                     
     2    -10.1410010     23  2.300                                                                 
     2    -11.5015836     23  2.300                                                                 
     0     -5.9785163     23  2.300                                                                 
     0      1.1858015     23  2.300                                                                 
     1     -2.7211652     23  2.300                                                                 
     1     13.2444212     23  2.300                                                                 
  local pseudopotential read in
  partial core-charges read in
  partial kinetic energy density read in
  atomic valenz-charges read in
  non local Contribution for L=            2  read in
    real space projection operators read in
  non local Contribution for L=            2  read in
    real space projection operators read in
  non local Contribution for L=            0  read in
    real space projection operators read in
  non local Contribution for L=            0  read in
    real space projection operators read in
  non local Contribution for L=            1  read in
    real space projection operators read in
  non local Contribution for L=            1  read in
    real space projection operators read in
    PAW grid and wavefunctions read in
 
   number of l-projection  operators is LMAX  =            6
   number of lm-projection operators is LMMAX =           18
 
 POTCAR:    PAW_PBE S 06Sep2000                   
   SHA256 =  0fc7481fb0695f01bdc6462160264c5c84044ae9ec85a907d398b887a2bc3132 S/POTCAR              
   COPYR  = (c) Copyright 06Sep2000 Georg Kresse                                                    
   COPYR  = This file is part of the software VASP. Any use, copying, and all other rights are regul
   COPYR  = If you do not have a valid VASP license, you may not use, copy or distribute this file. 
   VRHFIN =S : s2p4                                                                                 
   LEXCH  = PE                                                                                      
   EATOM  =   276.8230 eV,   20.3459 Ry                                                             
                                                                                                    
   TITEL  = PAW_PBE S 06Sep2000                                                                     
   LULTRA =        F    use ultrasoft PP ?                                                          
   IUNSCR =        1    unscreen: 0-lin 1-nonlin 2-no                                               
   RPACOR =    1.500    partial core radius                                                         
   POMASS =   32.066; ZVAL   =    6.000    mass and valenz                                          
   RCORE  =    1.900    outmost cutoff radius                                                       
   RWIGS  =    2.200; RWIGS  =    1.164    wigner-seitz radius (au A)                               
   ENMAX  =  258.689; ENMIN  =  194.016 eV                                                          
   ICORE  =        2    local potential                                                             
   LCOR   =        T    correct aug charges                                                         
   LPAW   =        T    paw PP                                                                      
   EAUG   =  335.092                                                                                
   DEXC   =    0.000                                                                                
   RMAX   =    1.942    core radius for proj-oper                                                   
   RAUG   =    1.300    factor for augmentation sphere                                              
   RDEP   =    1.954    radius for radial grids                                                     
   RDEPT  =    1.744    core radius for aug-charge                                                  
                                                                                                    
   Atomic configuration                                                                             
    6 entries                                                                                       
     n  l   j            E        occ.                                                              
     1  0  0.50     -2405.8406   2.0000                                                             
     2  0  0.50      -211.7007   2.0000                                                             
     2  1  1.50      -156.4958   6.0000                                                             
     3  0  0.50       -17.2562   2.0000                                                             
     3  1  0.50        -7.0085   4.0000                                                             
     3  2  1.50        -6.8029   0.0000                                                             
   Description                                                                                      
     l       E           TYP  RCUT    TYP  RCUT                                                     
     0    -17.2561641     23  1.900                                                                 
     0    -15.8743224     23  1.900                                                                 
     1     -7.0085400     23  1.900                                                                 
     1     -2.7779785     23  1.900                                                                 
     2     -6.8029130     23  1.900                                                                 
  local pseudopotential read in
  partial core-charges read in
  partial kinetic energy density read in
  atomic valenz-charges read in
  non local Contribution for L=            0  read in
    real space projection operators read in
  non local Contribution for L=            0  read in
    real space projection operators read in
  non local Contribution for L=            1  read in
    real space projection operators read in
  non local Contribution for L=            1  read in
    real space projection operators read in
    PAW grid and wavefunctions read in
 
   number of l-projection  operators is LMAX  =            4
   number of lm-projection operators is LMMAX =            8
 
 -----------------------------------------------------------------------------
|                                                                             |
|               ----> ADVICE to this user running VASP <----                  |
|                                                                             |
|     You enforced a specific xc type in the INCAR file but a different       |
|     type was found in the POTCAR file.                                      |
|     I HOPE YOU KNOW WHAT YOU ARE DOING!                                     |
|                                                                             |
 -----------------------------------------------------------------------------

  PAW_PBE Zn 06Sep2000                  :
 energy of atom  1       EATOM=-1748.8345
 kinetic energy error for atom=    0.0107 (will be added to EATOM!!)
  PAW_PBE S 06Sep2000                   :
 energy of atom  2       EATOM= -276.8230
 kinetic energy error for atom=    0.0046 (will be added to EATOM!!)
 
 
 POSCAR: Zn1 S1
  positions in direct lattice
  No initial velocities read in


 exchange-correlation table for PS
   RHO(1)=    0.500       N(1)  =     2000
   RHO(2)=  100.500       N(2)  =     4000
 


--------------------------------------------------------------------------------------------------------


 ion  position               nearest neighbor table
   1  0.000  0.000  0.000-   2 2.33   2 2.33   2 2.33   2 2.33
   2  0.250  0.250  0.250-   1 2.33   1 2.33   1 2.33   1 2.33
 
  LATTYP: Found a face centered cubic cell.
 ALAT       =     5.3873657546
  
  Lattice vectors:
  
 A1 = (   0.0000000000,   2.6936828773,   2.6936828773)
 A2 = (   2.6936828773,   0.0000000000,   2.6936828773)
 A3 = (   2.6936828773,   2.6936828773,   0.0000000000)


Analysis of symmetry for initial positions (statically):
=====================================================================
 Subroutine PRICEL returns:
 Original cell was already a primitive cell.
 

 Routine SETGRP: Setting up the symmetry group for a 
 face centered cubic supercell.


 Subroutine GETGRP returns: Found 24 space group operations
 (whereof 24 operations were pure point group operations)
 out of a pool of 48 trial point group operations.


The static configuration has the point symmetry T_d .


Analysis of symmetry for dynamics (positions and initial velocities):
=====================================================================
 Subroutine PRICEL returns:
 Original cell was already a primitive cell.
 

 Routine SETGRP: Setting up the symmetry group for a 
 face centered cubic supercell.


 Subroutine GETGRP returns: Found 24 space group operations
 (whereof 24 operations were pure point group operations)
 out of a pool of 48 trial point group operations.


The dynamic configuration has the point symmetry T_d .


 Subroutine INISYM returns: Found 24 space group operations
 (whereof 24 operations are pure point group operations),
 and found     1 'primitive' translations


----------------------------------------------------------------------------------------

                                     Primitive cell                                     

  volume of cell :      39.0903

  direct lattice vectors                    reciprocal lattice vectors
     0.000000000  2.693682877  2.693682877    -0.185619474  0.185619474  0.185619474
     2.693682877  0.000000000  2.693682877     0.185619474 -0.185619474  0.185619474
     2.693682877  2.693682877  0.000000000     0.185619474  0.185619474 -0.185619474

  length of vectors
     3.809442858  3.809442858  3.809442858     0.321502361  0.321502361  0.321502361

  position of ions in fractional coordinates (direct lattice)
     0.000000000  0.000000000  0.000000000
     0.250000000  0.250000000  0.250000000

  ion indices of the primitive-cell ions
   primitive index   ion index
                 1           1
                 2           2

----------------------------------------------------------------------------------------

 
 
 KPOINTS: Num irrep kpoints: 16                   

Automatic generation of k-mesh.
 Grid dimensions read from file:
 generate k-points for:    6    6    6

 Generating k-lattice:

  Cartesian coordinates                     Fractional coordinates (reciprocal lattice)
    -0.030936579  0.030936579  0.030936579     0.166666667  0.000000000  0.000000000
     0.030936579 -0.030936579  0.030936579     0.000000000  0.166666667 -0.000000000
     0.030936579  0.030936579 -0.030936579    -0.000000000 -0.000000000  0.166666667

  Length of vectors
     0.053583727  0.053583727  0.053583727

  Shift w.r.t. Gamma in fractional coordinates (k-lattice)
     0.000000000  0.000000000  0.000000000

 TETIRR: Found     35 inequivalent tetrahedra from     1296
 
 Subroutine IBZKPT returns following result:
 ===========================================
 
 Found     16 irreducible k-points:
 
 Following reciprocal coordinates:
            Coordinates               Weight
  0.000000  0.000000  0.000000      1.000000
  0.166667  0.000000  0.000000      8.000000
  0.333333  0.000000  0.000000      8.000000
  0.500000  0.000000  0.000000      4.000000
  0.166667  0.166667  0.000000      6.000000
  0.333333  0.166667  0.000000     24.000000
  0.500000  0.166667  0.000000     24.000000
 -0.333333  0.166667  0.000000     24.000000
 -0.166667  0.166667  0.000000     12.000000
  0.333333  0.333333  0.000000      6.000000
  0.500000  0.333333  0.000000     24.000000
 -0.333333  0.333333  0.000000     12.000000
  0.500000  0.500000  0.000000      3.000000
  0.500000  0.333333  0.166667     24.000000
 -0.333333  0.333333  0.166667     24.000000
 -0.333333  0.500000  0.166667     12.000000
 
 Following cartesian coordinates:
            Coordinates               Weight
  0.000000  0.000000  0.000000      1.000000
 -0.030937  0.030937  0.030937      8.000000
 -0.061873  0.061873  0.061873      8.000000
 -0.092810  0.092810  0.092810      4.000000
  0.000000  0.000000  0.061873      6.000000
 -0.030937  0.030937  0.092810     24.000000
 -0.061873  0.061873  0.123746     24.000000
  0.092810 -0.092810 -0.030937     24.000000
  0.061873 -0.061873  0.000000     12.000000
  0.000000  0.000000  0.123746      6.000000
 -0.030937  0.030937  0.154683     24.000000
  0.123746 -0.123746  0.000000     12.000000
  0.000000  0.000000  0.185619      3.000000
  0.000000  0.061873  0.123746     24.000000
  0.154683 -0.092810 -0.030937     24.000000
  0.185619 -0.123746  0.000000     12.000000
 


--------------------------------------------------------------------------------------------------------




 Dimension of arrays:
   k-points           NKPTS =     16   k-points in BZ     NKDIM =     16   number of bands    NBANDS=     13
   number of dos      NEDOS =    301   number of ions     NIONS =      2
   non local maximal  LDIM  =      6   non local SUM 2l+1 LMDIM =     18
   total plane-waves  NPLWV =   8000
   max r-space proj   IRMAX =      1   max aug-charges    IRDMAX=   6646
   dimension x,y,z NGX =    20 NGY =   20 NGZ =   20
   dimension x,y,z NGXF=    40 NGYF=   40 NGZF=   40
   support grid    NGXF=    40 NGYF=   40 NGZF=   40
   ions per type =               1   1
   NGX,Y,Z   is equivalent  to a cutoff of   8.73,  8.73,  8.73 a.u.
   NGXF,Y,Z  is equivalent  to a cutoff of  17.46, 17.46, 17.46 a.u.

 SYSTEM =  unknown system                          
 POSCAR =  Zn1 S1                                  

 Startparameter for this run:
   NWRITE =      2    write-flag & timer
   PREC   = normal    normal or accurate (medium, high low for compatibility)
   ISTART =      0    job   : 0-new  1-cont  2-samecut
   ICHARG =      2    charge: 1-file 2-atom 10-const
   ISPIN  =      1    spin polarized calculation?
   LNONCOLLINEAR =      F non collinear calculations
   LSORBIT =      F    spin-orbit coupling
   INIWAV =      1    electr: 0-lowe 1-rand  2-diag
   LASPH  =      T    aspherical Exc in radial PAW
 Electronic Relaxation 1
   ENCUT  =  400.0 eV  29.40 Ry    5.42 a.u.   6.21  6.21  6.21*2*pi/ulx,y,z
   ENINI  =  400.0     initial cutoff
   ENAUG  =  575.9 eV  augmentation charge cutoff
   NELM   =    100;   NELMIN=  2; NELMDL= -5     # of ELM steps 
   EDIFF  = 0.1E-06   stopping-criterion for ELM
   LREAL  =      F    real-space projection
   NLSPLINE    = F    spline interpolate recip. space projectors
   LCOMPAT=      F    compatible to vasp.4.4
   GGA_COMPAT  = T    GGA compatible to vasp.4.4-vasp.4.6
   LMAXPAW     = -100 max onsite density
   LMAXMIX     =    2 max onsite mixed and CHGCAR
   VOSKOWN=      0    Vosko Wilk Nusair interpolation
   ROPT   =    0.00000   0.00000
 Ionic relaxation
   EDIFFG = -.5E-02   stopping-criterion for IOM
   NSW    =    300    number of steps for IOM
   NBLOCK =      1;   KBLOCK =    300    inner block; outer block 
   IBRION =      2    ionic relax: 0-MD 1-quasi-New 2-CG
   NFREE  =      1    steps in history (QN), initial steepest desc. (CG)
   ISIF   =      3    stress and relaxation
   IWAVPR =     11    prediction:  0-non 1-charg 2-wave 3-comb
   ISYM   =      2    0-nonsym 1-usesym 2-fastsym
   LCORR  =      T    Harris-Foulkes like correction to forces

   POTIM  = 0.5000    time-step for ionic-motion
   TEIN   =    0.0    initial temperature
   TEBEG  =    0.0;   TEEND  =   0.0 temperature during run
   SMASS  =  -3.00    Nose mass-parameter (am)
   estimated Nose-frequenzy (Omega)   =  0.10E-29 period in steps = 0.13E+47 mass=  -0.332E-27a.u.
   SCALEE = 1.0000    scale energy and forces
   NPACO  =    256;   APACO  = 10.0  distance and # of slots for P.C.
   PSTRESS=    0.0 pullay stress

  Mass of Ions in am
   POMASS =  65.39 32.07
  Ionic Valenz
   ZVAL   =  12.00  6.00
  Atomic Wigner-Seitz radii
   RWIGS  =  -1.00 -1.00
  virtual crystal weights 
   VCA    =   1.00  1.00
   NELECT =      18.0000    total number of electrons
   NUPDOWN=      -1.0000    fix difference up-down

 DOS related values:
   EMIN   =  10.00;   EMAX   =-10.00  energy-range for DOS
   EFERMI =   0.00;   METHOD = LEGACY      
   ISMEAR =    -5;   SIGMA  =   0.10  broadening in eV -4-tet -1-fermi 0-gaus
   EFERMI_NEDOS =   21; number of points for ismear=-14 and -15

 Electronic relaxation 2 (details)
   IALGO  =     38    algorithm
   LDIAG  =      T    sub-space diagonalisation (order eigenvalues)
   LSUBROT=      F    optimize rotation matrix (better conditioning)
   LROBUST=      F    robust break criterion during scf (extrapolated energy error)
   ISEARCH=      0    line search for conjugate gradient (0, 1=use gradient)
   TURBO    =      0    0=normal 1=particle mesh
   IRESTART =      0    0=no restart 2=restart with 2 vectors
   NREBOOT  =      0    no. of reboots
   NMIN     =      0    reboot dimension
   EREF     =   0.00    reference energy to select bands
   IMIX   =      4    mixing-type and parameters
     AMIX     =   0.40;   BMIX     =  1.00
     AMIX_MAG =   1.60;   BMIX_MAG =  1.00
     AMIN     =   0.10
     WC   =   100.;   INIMIX=   1;  MIXPRE=   1;  MAXMIX= -45

 Intra band minimization:
   WEIMIN = 0.0010     energy-eigenvalue tresh-hold
   EBREAK =  0.19E-08  absolut break condition
   DEPER  =   0.30     relativ break condition  

   TIME   =   0.40     timestep for ELM

  volume/ion in A,a.u.               =      19.55       131.90
  Fermi-wavevector in a.u.,A,eV,Ry     =   1.264181  2.388955 21.744194  1.598153
  Thomas-Fermi vector in A             =   2.397499
 
 Write flags
   LWAVE        =      F    write WAVECAR
   LDOWNSAMPLE  =      F    k-point downsampling of WAVECAR
   LCHARG       =      F    write CHGCAR
   LVTOT        =      F    write LOCPOT, total local potential
   LVHAR        =      F    write LOCPOT, Hartree potential only
   WRT_POTENTIAL= false  ! write potential to hdf5 file
   LELF         =      F    write electronic localiz. function (ELF)
   LORBIT       =     10    0 simple, 1 ext, 2 COOP (PROOUT), +10 PAW based schemes


 Python interface
   PLUGINS active      =      F    recompile with -DPLUGINS to activate
 
 Dipole corrections
   LMONO      =      F    monopole corrections only (constant potential shift)
   LDIPOL     =      F    correct potential (dipole corrections)
   IDIPOL     =      0    1-x, 2-y, 3-z, 4-all directions 
   EPSILON    =  1.0000000 bulk dielectric constant
   LVACPOTAV  =      F  vacuum potentials using an averaging scheme for the charge density
   VACPOTFLAT =  0.1000000 required flatness to determine vacuum potential
 
Coulomb truncation method
  LTRUNCATE          =      F  Coulomb kernel truncation to be used

 
 Exchange correlation treatment:
   GGA     = PS    functional components
   XC_C    = 1    coefficients multiplying the functional components
   LIBXC   =     F    Libxc                    
   VOSKOWN =     0    Vosko Wilk Nusair interpolation
   LHFCALC =     F    Hartree Fock is set to
   LHFONE  =     F    Hartree Fock one center treatment
   AEXX    =    0.0000 exact exchange contribution

 Parameters of functionals:
   PS:
     No parameter
 
 Van der Waals corrections
   IVDW    =     0    specifies the selected vdW correction

 Linear response parameters
   LEPSILON=     F    determine dielectric tensor
   LRPA    =     F    only Hartree local field effects (RPA)
   LNABLA  =     F    use nabla operator in PAW spheres
   LVEL    =     F    velocity operator in full k-point grid
   CSHIFT  =0.1000    complex shift for real part using Kramers Kronig
   OMEGAMAX=  -1.0    maximum frequency
   DEG_THRESHOLD= 0.2000000E-02 threshold for treating states as degnerate
   RTIME   =   -0.100 relaxation time in fs
  (WPLASMAI=    0.000 imaginary part of plasma frequency in eV, 0.658/RTIME)
   DFIELD  = 0.0000000 0.0000000 0.0000000 field for delta impulse in time
 
  Optional k-point grid parameters
   LKPOINTS_OPT  =     F    use optional k-point grid
   KPOINTS_OPT_MODE=     1    mode for optional k-point grid
 
 Orbital magnetization related:
   ORBITALMAG=     F  switch on orbital magnetization
   LCHIMAG   =     F  perturbation theory with respect to B field
   DQ        =  0.001000  dq finite difference perturbation B field
   LLRAUG    =     F  two centre corrections for induced B field
   LBONE     =     F  B-component reconstruction in AE one-centre
   LVGVCALC  =     T  calculate vGv susceptibility
   LVGVAPPL  =     F  apply vGv susceptibility instead of pGv for G=0

 Random number generation:
   RANDOM_GENERATOR = DEFAULT
   PCG_SEED         = not used


--------------------------------------------------------------------------------------------------------


 conjugate gradient relaxation of ions
 charge density and potential will be updated during run
 non-spin polarized calculation
 Variant of blocked Davidson
 Davidson routine will perform the subspace rotation
 perform sub-space diagonalisation
    after iterative eigenvector-optimisation
 modified Broyden-mixing scheme, WC =      100.0
 initial mixing is a Kerker type mixing with AMIX =  0.4000 and BMIX =      1.0000
 Hartree-type preconditioning will be used
 using additional bands             4
 reciprocal scheme for non local part
 use partial core corrections
 calculate Harris-corrections to forces 
   (improved forces if not selfconsistent)
 use gradient corrections 
 use of overlap-Matrix (Vanderbilt PP)
 Fermi weights with tetrahedron method with Bloechl corrections


--------------------------------------------------------------------------------------------------------


  energy-cutoff  :      400.00
  volume of cell :       39.09
      direct lattice vectors                 reciprocal lattice vectors
     0.000000000  2.693682877  2.693682877    -0.185619474  0.185619474  0.185619474
     2.693682877  0.000000000  2.693682877     0.185619474 -0.185619474  0.185619474
     2.693682877  2.693682877  0.000000000     0.185619474  0.185619474 -0.185619474

  length of vectors
     3.809442858  3.809442858  3.809442858     0.321502361  0.321502361  0.321502361


 
 k-points in units of 2pi/SCALE and weight: Num irrep kpoints: 16                   
   0.00000000  0.00000000  0.00000000       0.005
  -0.03093658  0.03093658  0.03093658       0.037
  -0.06187316  0.06187316  0.06187316       0.037
  -0.09280974  0.09280974  0.09280974       0.019
   0.00000000  0.00000000  0.06187316       0.028
  -0.03093658  0.03093658  0.09280974       0.111
  -0.06187316  0.06187316  0.12374632       0.111
   0.09280974 -0.09280974 -0.03093658       0.111
   0.06187316 -0.06187316  0.00000000       0.056
   0.00000000  0.00000000  0.12374632       0.028
  -0.03093658  0.03093658  0.15468290       0.111
   0.12374632 -0.12374632  0.00000000       0.056
   0.00000000  0.00000000  0.18561947       0.014
   0.00000000  0.06187316  0.12374632       0.111
   0.15468290 -0.09280974 -0.03093658       0.111
   0.18561947 -0.12374632  0.00000000       0.056
 
 k-points in reciprocal lattice and weights: Num irrep kpoints: 16                   
   0.00000000  0.00000000  0.00000000       0.005
   0.16666667  0.00000000  0.00000000       0.037
   0.33333333  0.00000000  0.00000000       0.037
   0.50000000  0.00000000  0.00000000       0.019
   0.16666667  0.16666667  0.00000000       0.028
   0.33333333  0.16666667  0.00000000       0.111
   0.50000000  0.16666667  0.00000000       0.111
  -0.33333333  0.16666667  0.00000000       0.111
  -0.16666667  0.16666667  0.00000000       0.056
   0.33333333  0.33333333  0.00000000       0.028
   0.50000000  0.33333333  0.00000000       0.111
  -0.33333333  0.33333333  0.00000000       0.056
   0.50000000  0.50000000  0.00000000       0.014
   0.50000000  0.33333333  0.16666667       0.111
  -0.33333333  0.33333333  0.16666667       0.111
  -0.33333333  0.50000000  0.16666667       0.056
 
 position of ions in fractional coordinates (direct lattice) 
   0.00000000  0.00000000  0.00000000
   0.25000000  0.25000000  0.25000000
 
 position of ions in cartesian coordinates  (Angst):
   0.00000000  0.00000000  0.00000000
   1.34684144  1.34684144  1.34684144
 


--------------------------------------------------------------------------------------------------------


 k-point     1 :   0.0000 0.0000 0.0000  plane waves:     725
 k-point     2 :   0.1667 0.0000 0.0000  plane waves:     712
 k-point     3 :   0.3333 0.0000 0.0000  plane waves:     697
 k-point     4 :   0.5000 0.0000 0.0000  plane waves:     718
 k-point     5 :   0.1667 0.1667 0.0000  plane waves:     697
 k-point     6 :   0.3333 0.1667 0.0000  plane waves:     714
 k-point     7 :   0.5000 0.1667 0.0000  plane waves:     714
 k-point     8 :  -0.3333 0.1667 0.0000  plane waves:     703
 k-point     9 :  -0.1667 0.1667 0.0000  plane waves:     710
 k-point    10 :   0.3333 0.3333 0.0000  plane waves:     717
 k-point    11 :   0.5000 0.3333 0.0000  plane waves:     709
 k-point    12 :  -0.3333 0.3333 0.0000  plane waves:     716
 k-point    13 :   0.5000 0.5000 0.0000  plane waves:     724
 k-point    14 :   0.5000 0.3333 0.1667  plane waves:     709
 k-point    15 :  -0.3333 0.3333 0.1667  plane waves:     714
 k-point    16 :  -0.3333 0.5000 0.1667  plane waves:     716

 maximum and minimum number of plane-waves per node :       725      697

 maximum number of plane-waves:       725
 maximum index in each direction: 
   IXMAX=    6   IYMAX=    6   IZMAX=    6
   IXMIN=   -6   IYMIN=   -6   IZMIN=   -6


 serial   3D FFT for wavefunctions
 parallel 3D FFT for charge:
    minimum data exchange during FFTs selected (reduces bandwidth)


 total amount of memory used by VASP MPI-rank0    42216. kBytes
=======================================================================

   base                                    :      30000. kBytes
   nonl-proj                               :       3364. kBytes
   fftplans                                :       2284. kBytes
   grid                                    :       4038. kBytes
   one-center                              :         31. kBytes
   wavefun                                 :       2499. kBytes
 
     INWAV:  cpu time      0.0001: real time      0.0002
 Broyden mixing: mesh for mixing (old mesh)
   NGX = 13   NGY = 13   NGZ = 13
  (NGX  = 40   NGY  = 40   NGZ  = 40)
  gives a total of   2197 points

 initial charge density was supplied:
 charge density of overlapping atoms calculated
 number of electron      18.0000000 magnetization 
 keeping initial charge density in first step


--------------------------------------------------------------------------------------------------------


 Maximum index for augmentation-charges          6339 (set IRDMAX)


--------------------------------------------------------------------------------------------------------


 First call to EWALD:  gamma=   0.522
 Maximum number of real-space cells   3x   3x   3
 Maximum number of reciprocal cells   3x   3x   3

    FEWALD:  cpu time      0.0007: real time      0.0007


--------------------------------------- Ionic step        1  -------------------------------------------




--------------------------------------- Iteration      1(   1)  ---------------------------------------


    POTLOK:  cpu time      0.0214: real time      0.0218
    SETDIJ:  cpu time      0.0558: real time      0.0559
     EDDAV:  cpu time      0.2504: real time      0.2520
 BZINTS: Fermi energy:   12.116769;   18.000000 electrons
         Band energy: 0.338044E+02;  BLOECHL correction:   -0.226085
       DOS:  cpu time      0.0031: real time      0.0031
    --------------------------------------------
      LOOP:  cpu time      0.3307: real time      0.3329

 eigenvalue-minimisations  :   416
 total energy-change (2. order) : 0.8074849E+02  (-0.7963999E+03)
 number of electron      18.0000000 magnetization 
 augmentation part       18.0000000 magnetization 

 Free energy of the ion-electron system (eV)
  ---------------------------------------------------
  alpha Z        PSCENC =        72.31960888
  Ewald energy   TEWEN  =     -1257.26166089
  -Hartree energ DENC   =      -688.29909216
  -exchange      EXHF   =         0.00000000
  -V(xc)+E(xc)   XCENC  =        70.41014712
  PAW double counting   =      1671.72180957    -1846.00842002
  entropy T*S    EENTRO =         0.00000000
  eigenvalues    EBANDS =        33.80435878
  atomic energy  EATOM  =      2024.06173478
  Solvation  Ediel_sol  =         0.00000000
  ---------------------------------------------------
  free energy    TOTEN  =        80.74848606 eV

  energy without entropy =       80.74848606  energy(sigma->0) =       80.74848606


--------------------------------------------------------------------------------------------------------




--------------------------------------- Iteration      1(   2)  ---------------------------------------


     EDDAV:  cpu time      0.1005: real time      0.1010
 BZINTS: Fermi energy:    2.325255;   18.000000 electrons
         Band energy:-0.498224E+02;  BLOECHL correction:    0.000000
       DOS:  cpu time      0.0010: real time      0.0010
    --------------------------------------------
      LOOP:  cpu time      0.1015: real time      0.1020

 eigenvalue-minimisations  :   476
 total energy-change (2. order) :-0.8362672E+02  (-0.8052227E+02)
 number of electron      18.0000000 magnetization 
 augmentation part       18.0000000 magnetization 

 Free energy of the ion-electron system (eV)
  ---------------------------------------------------
  alpha Z        PSCENC =        72.31960888
  Ewald energy   TEWEN  =     -1257.26166089
  -Hartree energ DENC   =      -688.29909216
  -exchange      EXHF   =         0.00000000
  -V(xc)+E(xc)   XCENC  =        70.41014712
  PAW double counting   =      1671.72180957    -1846.00842002
  entropy T*S    EENTRO =         0.00000000
  eigenvalues    EBANDS =       -49.82235864
  atomic energy  EATOM  =      2024.06173478
  Solvation  Ediel_sol  =         0.00000000
  ---------------------------------------------------
  free energy    TOTEN  =        -2.87823136 eV

  energy without entropy =       -2.87823136  energy(sigma->0) =       -2.87823136


--------------------------------------------------------------------------------------------------------




--------------------------------------- Iteration      1(   3)  ---------------------------------------


     EDDAV:  cpu time      0.1009: real time      0.1014
 BZINTS: Fermi energy:    1.716736;   18.000000 electrons
         Band energy:-0.548739E+02;  BLOECHL correction:    0.000000
       DOS:  cpu time      0.0009: real time      0.0009
    --------------------------------------------
      LOOP:  cpu time      0.1018: real time      0.1023

 eigenvalue-minimisations  :   491
 total energy-change (2. order) :-0.5051554E+01  (-0.5034359E+01)
 number of electron      18.0000000 magnetization 
 augmentation part       18.0000000 magnetization 

 Free energy of the ion-electron system (eV)
  ---------------------------------------------------
  alpha Z        PSCENC =        72.31960888
  Ewald energy   TEWEN  =     -1257.26166089
  -Hartree energ DENC   =      -688.29909216
  -exchange      EXHF   =         0.00000000
  -V(xc)+E(xc)   XCENC  =        70.41014712
  PAW double counting   =      1671.72180957    -1846.00842002
  entropy T*S    EENTRO =         0.00000000
  eigenvalues    EBANDS =       -54.87391224
  atomic energy  EATOM  =      2024.06173478
  Solvation  Ediel_sol  =         0.00000000
  ---------------------------------------------------
  free energy    TOTEN  =        -7.92978497 eV

  energy without entropy =       -7.92978497  energy(sigma->0) =       -7.92978497


--------------------------------------------------------------------------------------------------------




--------------------------------------- Iteration      1(   4)  ---------------------------------------


     EDDAV:  cpu time      0.0992: real time      0.0996
 BZINTS: Fermi energy:    1.672200;   18.000000 electrons
         Band energy:-0.549320E+02;  BLOECHL correction:    0.000000
       DOS:  cpu time      0.0009: real time      0.0009
    --------------------------------------------
      LOOP:  cpu time      0.1001: real time      0.1005

 eigenvalue-minimisations  :   476
 total energy-change (2. order) :-0.5809382E-01  (-0.5807976E-01)
 number of electron      18.0000000 magnetization 
 augmentation part       18.0000000 magnetization 

 Free energy of the ion-electron system (eV)
  ---------------------------------------------------
  alpha Z        PSCENC =        72.31960888
  Ewald energy   TEWEN  =     -1257.26166089
  -Hartree energ DENC   =      -688.29909216
  -exchange      EXHF   =         0.00000000
  -V(xc)+E(xc)   XCENC  =        70.41014712
  PAW double counting   =      1671.72180957    -1846.00842002
  entropy T*S    EENTRO =         0.00000000
  eigenvalues    EBANDS =       -54.93200606
  atomic energy  EATOM  =      2024.06173478
  Solvation  Ediel_sol  =         0.00000000
  ---------------------------------------------------
  free energy    TOTEN  =        -7.98787878 eV

  energy without entropy =       -7.98787878  energy(sigma->0) =       -7.98787878


--------------------------------------------------------------------------------------------------------




--------------------------------------- Iteration      1(   5)  ---------------------------------------


     EDDAV:  cpu time      0.1041: real time      0.1046
 BZINTS: Fermi energy:    1.666977;   18.000000 electrons
         Band energy:-0.549329E+02;  BLOECHL correction:    0.000000
       DOS:  cpu time      0.0009: real time      0.0009
    CHARGE:  cpu time      0.1838: real time      0.2065
    MIXING:  cpu time      0.0012: real time      0.0012
    --------------------------------------------
      LOOP:  cpu time      0.2900: real time      0.3132

 eigenvalue-minimisations  :   506
 total energy-change (2. order) :-0.8934818E-03  (-0.8934726E-03)
 number of electron      18.0000112 magnetization 
 augmentation part        7.0977692 magnetization 

 Broyden mixing:
  rms(total) = 0.67708E+00    rms(broyden)= 0.67707E+00
  rms(prec ) = 0.12157E+01
  weight for this iteration     100.00

 Free energy of the ion-electron system (eV)
  ---------------------------------------------------
  alpha Z        PSCENC =        72.31960888
  Ewald energy   TEWEN  =     -1257.26166089
  -Hartree energ DENC   =      -688.29909216
  -exchange      EXHF   =         0.00000000
  -V(xc)+E(xc)   XCENC  =        70.41014712
  PAW double counting   =      1671.72180957    -1846.00842002
  entropy T*S    EENTRO =         0.00000000
  eigenvalues    EBANDS =       -54.93289954
  atomic energy  EATOM  =      2024.06173478
  Solvation  Ediel_sol  =         0.00000000
  ---------------------------------------------------
  free energy    TOTEN  =        -7.98877226 eV

  energy without entropy =       -7.98877226  energy(sigma->0) =       -7.98877226


--------------------------------------------------------------------------------------------------------




--------------------------------------- Iteration      1(   6)  ---------------------------------------


    POTLOK:  cpu time      0.0039: real time      0.0042
    SETDIJ:  cpu time      0.0563: real time      0.0565
     EDDAV:  cpu time      0.1176: real time      0.1179
 BZINTS: Fermi energy:    1.961540;   18.000000 electrons
         Band energy:-0.653172E+02;  BLOECHL correction:    0.000000
       DOS:  cpu time      0.0010: real time      0.0010
    CHARGE:  cpu time      0.0133: real time      0.0133
    MIXING:  cpu time      0.0010: real time      0.0010
    --------------------------------------------
      LOOP:  cpu time      0.1932: real time      0.1940

 eigenvalue-minimisations  :   578
 total energy-change (2. order) : 0.3879001E+00  (-0.1028277E+00)
 number of electron      18.0000114 magnetization 
 augmentation part        7.2271048 magnetization 

 Broyden mixing:
  rms(total) = 0.53165E+00    rms(broyden)= 0.53165E+00
  rms(prec ) = 0.62721E+00
  weight for this iteration     100.00

 eigenvalues of (default mixing * dielectric matrix)
  average eigenvalue GAMMA=   1.8651
  1.8651

 Free energy of the ion-electron system (eV)
  ---------------------------------------------------
  alpha Z        PSCENC =        72.31960888
  Ewald energy   TEWEN  =     -1257.26166089
  -Hartree energ DENC   =      -680.34450811
  -exchange      EXHF   =         0.00000000
  -V(xc)+E(xc)   XCENC  =        70.29872616
  PAW double counting   =      1801.98184374    -1973.33941922
  entropy T*S    EENTRO =         0.00000000
  eigenvalues    EBANDS =       -65.31719745
  atomic energy  EATOM  =      2024.06173478
  Solvation  Ediel_sol  =         0.00000000
  ---------------------------------------------------
  free energy    TOTEN  =        -7.60087212 eV

  energy without entropy =       -7.60087212  energy(sigma->0) =       -7.60087212


--------------------------------------------------------------------------------------------------------




--------------------------------------- Iteration      1(   7)  ---------------------------------------


    POTLOK:  cpu time      0.0034: real time      0.0036
    SETDIJ:  cpu time      0.0550: real time      0.0551
     EDDAV:  cpu time      0.0900: real time      0.0902
 BZINTS: Fermi energy:    2.105725;   18.000000 electrons
         Band energy:-0.621072E+02;  BLOECHL correction:    0.000000
       DOS:  cpu time      0.0009: real time      0.0009
    CHARGE:  cpu time      0.0133: real time      0.0133
    MIXING:  cpu time      0.0010: real time      0.0010
    --------------------------------------------
      LOOP:  cpu time      0.1635: real time      0.1640

 eigenvalue-minimisations  :   426
 total energy-change (2. order) : 0.1567501E-01  (-0.3244553E-01)
 number of electron      18.0000114 magnetization 
 augmentation part        7.2119609 magnetization 

 Broyden mixing:
  rms(total) = 0.25547E+00    rms(broyden)= 0.25547E+00
  rms(prec ) = 0.28822E+00
  weight for this iteration     100.00

 eigenvalues of (default mixing * dielectric matrix)
  average eigenvalue GAMMA=   1.6855
  0.9150  2.4561

 Free energy of the ion-electron system (eV)
  ---------------------------------------------------
  alpha Z        PSCENC =        72.31960888
  Ewald energy   TEWEN  =     -1257.26166089
  -Hartree energ DENC   =      -681.44736787
  -exchange      EXHF   =         0.00000000
  -V(xc)+E(xc)   XCENC  =        70.45901104
  PAW double counting   =      1959.16307810    -2132.77244555
  entropy T*S    EENTRO =         0.00000000
  eigenvalues    EBANDS =       -62.10715559
  atomic energy  EATOM  =      2024.06173478
  Solvation  Ediel_sol  =         0.00000000
  ---------------------------------------------------
  free energy    TOTEN  =        -7.58519710 eV

  energy without entropy =       -7.58519710  energy(sigma->0) =       -7.58519710


--------------------------------------------------------------------------------------------------------




--------------------------------------- Iteration      1(   8)  ---------------------------------------


    POTLOK:  cpu time      0.0034: real time      0.0036
    SETDIJ:  cpu time      0.0549: real time      0.0551
     EDDAV:  cpu time      0.1023: real time      0.1025
 BZINTS: Fermi energy:    2.113890;   18.000000 electrons
         Band energy:-0.622078E+02;  BLOECHL correction:    0.000000
       DOS:  cpu time      0.0009: real time      0.0009
    CHARGE:  cpu time      0.0132: real time      0.0133
    MIXING:  cpu time      0.0010: real time      0.0010
    --------------------------------------------
      LOOP:  cpu time      0.1758: real time      0.1764

 eigenvalue-minimisations  :   491
 total energy-change (2. order) : 0.3062277E-02  (-0.5255108E-03)
 number of electron      18.0000113 magnetization 
 augmentation part        7.2106267 magnetization 

 Broyden mixing:
  rms(total) = 0.68482E-01    rms(broyden)= 0.68482E-01
  rms(prec ) = 0.83047E-01
  weight for this iteration     100.00

 eigenvalues of (default mixing * dielectric matrix)
  average eigenvalue GAMMA=   1.5006
  2.3851  1.0167  1.1000

 Free energy of the ion-electron system (eV)
  ---------------------------------------------------
  alpha Z        PSCENC =        72.31960888
  Ewald energy   TEWEN  =     -1257.26166089
  -Hartree energ DENC   =      -680.61993429
  -exchange      EXHF   =         0.00000000
  -V(xc)+E(xc)   XCENC  =        70.45662030
  PAW double counting   =      2085.82978692    -2260.16050364
  entropy T*S    EENTRO =         0.00000000
  eigenvalues    EBANDS =       -62.20778688
  atomic energy  EATOM  =      2024.06173478
  Solvation  Ediel_sol  =         0.00000000
  ---------------------------------------------------
  free energy    TOTEN  =        -7.58213483 eV

  energy without entropy =       -7.58213483  energy(sigma->0) =       -7.58213483


--------------------------------------------------------------------------------------------------------




--------------------------------------- Iteration      1(   9)  ---------------------------------------


    POTLOK:  cpu time      0.0033: real time      0.0036
    SETDIJ:  cpu time      0.0550: real time      0.0551
     EDDAV:  cpu time      0.0966: real time      0.0968
 BZINTS: Fermi energy:    2.109870;   18.000000 electrons
         Band energy:-0.623787E+02;  BLOECHL correction:    0.000000
       DOS:  cpu time      0.0009: real time      0.0009
    CHARGE:  cpu time      0.0132: real time      0.0132
    MIXING:  cpu time      0.0010: real time      0.0010
    --------------------------------------------
      LOOP:  cpu time      0.1700: real time      0.1706

 eigenvalue-minimisations  :   469
 total energy-change (2. order) : 0.2175147E-03  (-0.8550500E-04)
 number of electron      18.0000114 magnetization 
 augmentation part        7.2107053 magnetization 

 Broyden mixing:
  rms(total) = 0.11121E-01    rms(broyden)= 0.11121E-01
  rms(prec ) = 0.14156E-01
  weight for this iteration     100.00

 eigenvalues of (default mixing * dielectric matrix)
  average eigenvalue GAMMA=   1.8160
  2.5466  2.5466  1.0055  1.1654

 Free energy of the ion-electron system (eV)
  ---------------------------------------------------
  alpha Z        PSCENC =        72.31960888
  Ewald energy   TEWEN  =     -1257.26166089
  -Hartree energ DENC   =      -680.19826450
  -exchange      EXHF   =         0.00000000
  -V(xc)+E(xc)   XCENC  =        70.45053809
  PAW double counting   =      2135.77462995    -2310.34980439
  entropy T*S    EENTRO =         0.00000000
  eigenvalues    EBANDS =       -62.37869923
  atomic energy  EATOM  =      2024.06173478
  Solvation  Ediel_sol  =         0.00000000
  ---------------------------------------------------
  free energy    TOTEN  =        -7.58191731 eV

  energy without entropy =       -7.58191731  energy(sigma->0) =       -7.58191731


--------------------------------------------------------------------------------------------------------




--------------------------------------- Iteration      1(  10)  ---------------------------------------


    POTLOK:  cpu time      0.0033: real time      0.0036
    SETDIJ:  cpu time      0.0550: real time      0.0551
     EDDAV:  cpu time      0.0961: real time      0.0963
 BZINTS: Fermi energy:    2.111788;   18.000000 electrons
         Band energy:-0.624353E+02;  BLOECHL correction:    0.000000
       DOS:  cpu time      0.0009: real time      0.0009
    CHARGE:  cpu time      0.0132: real time      0.0132
    MIXING:  cpu time      0.0011: real time      0.0011
    --------------------------------------------
      LOOP:  cpu time      0.1695: real time      0.1702

 eigenvalue-minimisations  :   467
 total energy-change (2. order) :-0.8619688E-04  (-0.1767976E-04)
 number of electron      18.0000114 magnetization 
 augmentation part        7.2114537 magnetization 

 Broyden mixing:
  rms(total) = 0.59091E-02    rms(broyden)= 0.59091E-02
  rms(prec ) = 0.68477E-02
  weight for this iteration     100.00

 eigenvalues of (default mixing * dielectric matrix)
  average eigenvalue GAMMA=   1.6784
  2.6236  2.6236  0.9318  1.1065  1.1065

 Free energy of the ion-electron system (eV)
  ---------------------------------------------------
  alpha Z        PSCENC =        72.31960888
  Ewald energy   TEWEN  =     -1257.26166089
  -Hartree energ DENC   =      -680.17584554
  -exchange      EXHF   =         0.00000000
  -V(xc)+E(xc)   XCENC  =        70.44738798
  PAW double counting   =      2123.29001065    -2297.82794544
  entropy T*S    EENTRO =         0.00000000
  eigenvalues    EBANDS =       -62.43529393
  atomic energy  EATOM  =      2024.06173478
  Solvation  Ediel_sol  =         0.00000000
  ---------------------------------------------------
  free energy    TOTEN  =        -7.58200351 eV

  energy without entropy =       -7.58200351  energy(sigma->0) =       -7.58200351


--------------------------------------------------------------------------------------------------------




--------------------------------------- Iteration      1(  11)  ---------------------------------------


    POTLOK:  cpu time      0.0034: real time      0.0035
    SETDIJ:  cpu time      0.0550: real time      0.0552
     EDDAV:  cpu time      0.1023: real time      0.1025
 BZINTS: Fermi energy:    2.112959;   18.000000 electrons
         Band energy:-0.623743E+02;  BLOECHL correction:    0.000000
       DOS:  cpu time      0.0009: real time      0.0009
    CHARGE:  cpu time      0.0133: real time      0.0133
    MIXING:  cpu time      0.0010: real time      0.0010
    --------------------------------------------
      LOOP:  cpu time      0.1760: real time      0.1765

 eigenvalue-minimisations  :   501
 total energy-change (2. order) : 0.1097264E-05  (-0.4115223E-05)
 number of electron      18.0000114 magnetization 
 augmentation part        7.2108781 magnetization 

 Broyden mixing:
  rms(total) = 0.83476E-03    rms(broyden)= 0.83474E-03
  rms(prec ) = 0.12463E-02
  weight for this iteration     100.00

 eigenvalues of (default mixing * dielectric matrix)
  average eigenvalue GAMMA=   1.4612
  2.6110  2.6110  1.1055  1.1055  0.9383  0.3959

 Free energy of the ion-electron system (eV)
  ---------------------------------------------------
  alpha Z        PSCENC =        72.31960888
  Ewald energy   TEWEN  =     -1257.26166089
  -Hartree energ DENC   =      -680.20076520
  -exchange      EXHF   =         0.00000000
  -V(xc)+E(xc)   XCENC  =        70.44967716
  PAW double counting   =      2127.02806810    -2301.60435024
  entropy T*S    EENTRO =         0.00000000
  eigenvalues    EBANDS =       -62.37431500
  atomic energy  EATOM  =      2024.06173478
  Solvation  Ediel_sol  =         0.00000000
  ---------------------------------------------------
  free energy    TOTEN  =        -7.58200241 eV

  energy without entropy =       -7.58200241  energy(sigma->0) =       -7.58200241


--------------------------------------------------------------------------------------------------------




--------------------------------------- Iteration      1(  12)  ---------------------------------------


    POTLOK:  cpu time      0.0033: real time      0.0036
    SETDIJ:  cpu time      0.0549: real time      0.0551
     EDDAV:  cpu time      0.1213: real time      0.1216
 BZINTS: Fermi energy:    2.113776;   18.000000 electrons
         Band energy:-0.623790E+02;  BLOECHL correction:    0.000000
       DOS:  cpu time      0.0010: real time      0.0010
    CHARGE:  cpu time      0.0133: real time      0.0133
    MIXING:  cpu time      0.0011: real time      0.0011
    --------------------------------------------
      LOOP:  cpu time      0.1950: real time      0.1957

 eigenvalue-minimisations  :   634
 total energy-change (2. order) :-0.1551900E-06  (-0.4021852E-06)
 number of electron      18.0000114 magnetization 
 augmentation part        7.2110143 magnetization 

 Broyden mixing:
  rms(total) = 0.28315E-03    rms(broyden)= 0.28315E-03
  rms(prec ) = 0.79073E-03
  weight for this iteration     100.00

 eigenvalues of (default mixing * dielectric matrix)
  average eigenvalue GAMMA=   1.7252
  3.0993  2.4348  2.4348  1.2092  0.9964  0.9964  0.9057

 Free energy of the ion-electron system (eV)
  ---------------------------------------------------
  alpha Z        PSCENC =        72.31960888
  Ewald energy   TEWEN  =     -1257.26166089
  -Hartree energ DENC   =      -680.20456459
  -exchange      EXHF   =         0.00000000
  -V(xc)+E(xc)   XCENC  =        70.45024507
  PAW double counting   =      2127.81910582    -2302.38746046
  entropy T*S    EENTRO =         0.00000000
  eigenvalues    EBANDS =       -62.37901117
  atomic energy  EATOM  =      2024.06173478
  Solvation  Ediel_sol  =         0.00000000
  ---------------------------------------------------
  free energy    TOTEN  =        -7.58200257 eV

  energy without entropy =       -7.58200257  energy(sigma->0) =       -7.58200257


--------------------------------------------------------------------------------------------------------




--------------------------------------- Iteration      1(  13)  ---------------------------------------


    POTLOK:  cpu time      0.0034: real time      0.0037
    SETDIJ:  cpu time      0.0551: real time      0.0553
     EDDAV:  cpu time      0.1076: real time      0.1079
 BZINTS: Fermi energy:    2.113698;   18.000000 electrons
         Band energy:-0.623707E+02;  BLOECHL correction:    0.000000
       DOS:  cpu time      0.0010: real time      0.0010
    CHARGE:  cpu time      0.0134: real time      0.0135
    MIXING:  cpu time      0.0012: real time      0.0012
    --------------------------------------------
      LOOP:  cpu time      0.1816: real time      0.1825

 eigenvalue-minimisations  :   525
 total energy-change (2. order) : 0.1575547E-06  (-0.7880358E-07)
 number of electron      18.0000114 magnetization 
 augmentation part        7.2109486 magnetization 

 Broyden mixing:
  rms(total) = 0.11079E-03    rms(broyden)= 0.11079E-03
  rms(prec ) = 0.20981E-03
  weight for this iteration     100.00

 eigenvalues of (default mixing * dielectric matrix)
  average eigenvalue GAMMA=   1.6972
  3.1554  2.5370  2.5370  1.1830  1.1830  0.9331  1.0244  1.0244

 Free energy of the ion-electron system (eV)
  ---------------------------------------------------
  alpha Z        PSCENC =        72.31960888
  Ewald energy   TEWEN  =     -1257.26166089
  -Hartree energ DENC   =      -680.21156826
  -exchange      EXHF   =         0.00000000
  -V(xc)+E(xc)   XCENC  =        70.45036917
  PAW double counting   =      2127.88703815    -2302.45678059
  entropy T*S    EENTRO =         0.00000000
  eigenvalues    EBANDS =       -62.37074365
  atomic energy  EATOM  =      2024.06173478
  Solvation  Ediel_sol  =         0.00000000
  ---------------------------------------------------
  free energy    TOTEN  =        -7.58200241 eV

  energy without entropy =       -7.58200241  energy(sigma->0) =       -7.58200241


--------------------------------------------------------------------------------------------------------




--------------------------------------- Iteration      1(  14)  ---------------------------------------


    POTLOK:  cpu time      0.0034: real time      0.0037
    SETDIJ:  cpu time      0.0551: real time      0.0552
     EDDAV:  cpu time      0.0705: real time      0.0707
 BZINTS: Fermi energy:    2.113641;   18.000000 electrons
         Band energy:-0.623698E+02;  BLOECHL correction:    0.000000
       DOS:  cpu time      0.0010: real time      0.0010
    --------------------------------------------
      LOOP:  cpu time      0.1300: real time      0.1306

 eigenvalue-minimisations  :   276
 total energy-change (2. order) : 0.2671197E-07  (-0.1281427E-07)
 number of electron      18.0000114 magnetization 
 augmentation part        7.2109486 magnetization 

 Free energy of the ion-electron system (eV)
  ---------------------------------------------------
  alpha Z        PSCENC =        72.31960888
  Ewald energy   TEWEN  =     -1257.26166089
  -Hartree energ DENC   =      -680.21223829
  -exchange      EXHF   =         0.00000000
  -V(xc)+E(xc)   XCENC  =        70.45036724
  PAW double counting   =      2127.96136425    -2302.53134716
  entropy T*S    EENTRO =         0.00000000
  eigenvalues    EBANDS =       -62.36983119
  atomic energy  EATOM  =      2024.06173478
  Solvation  Ediel_sol  =         0.00000000
  ---------------------------------------------------
  free energy    TOTEN  =        -7.58200238 eV

  energy without entropy =       -7.58200238  energy(sigma->0) =       -7.58200238


--------------------------------------------------------------------------------------------------------




 average (electrostatic) potential at core
  the test charge radii are     0.9521  0.9698
  (the norm of the test charge is              1.0000)
       1 -36.0153       2 -88.6193
 
 
 
 E-fermi :   2.1136     XC(G=0):  -9.8924     alpha+bet : -8.1319

 val. band max:        2.1033717561   @ k =   0.0000   0.0000   0.0000
 cond. band min:       4.1186727772   @ k =   0.0000   0.0000   0.0000
 fundamental gap:      2.0153010211
 Fermi energy:         2.1136408314

 k-point     1 :       0.0000    0.0000    0.0000
  band No.  band energies     occupation 
      1     -11.1179      2.00000
      2      -4.3054      2.00000
      3      -4.3054      2.00000
      4      -4.3054      2.00000
      5      -3.7949      2.00000
      6      -3.7949      2.00000
      7       2.1034      2.00000
      8       2.1034      2.00000
      9       2.1034      2.00000
     10       4.1187      0.00000
     11       8.4017      0.00000
     12       8.4017      0.00000
     13       8.4017      0.00000

 k-point     2 :       0.1667    0.0000    0.0000
  band No.  band energies     occupation 
      1     -10.9087      2.00000
      2      -4.3025      2.00000
      3      -4.2692      2.00000
      4      -4.2692      2.00000
      5      -3.7970      2.00000
      6      -3.7970      2.00000
      7       0.3722      2.00000
      8       1.8492      2.00000
      9       1.8492      2.00000
     10       5.2485      0.00000
     11       8.3795      0.00000
     12       8.8120      0.00000
     13       8.8120      0.00000

 k-point     3 :       0.3333    0.0000    0.0000
  band No.  band energies     occupation 
      1     -10.4321      2.00000
      2      -4.2091      2.00000
      3      -4.2091      2.00000
      4      -4.1547      2.00000
      5      -3.7829      2.00000
      6      -3.7829      2.00000
      7      -1.8719      2.00000
      8       1.4096      2.00000
      9       1.4097      2.00000
     10       5.4444      0.00000
     11       9.0541      0.00000
     12       9.0541      0.00000
     13       9.8390      0.00000

 k-point     4 :       0.5000    0.0000    0.0000
  band No.  band energies     occupation 
      1     -10.1546      2.00000
      2      -4.1882      2.00000
      3      -4.1882      2.00000
      4      -3.7639      2.00000
      5      -3.7639      2.00000
      6      -3.5915      2.00000
      7      -3.3226      2.00000
      8       1.2127      2.00000
      9       1.2127      2.00000
     10       5.3126      0.00000
     11       8.9285      0.00000
     12       8.9285      0.00000
     13      10.8357      0.00000

 k-point     5 :       0.1667    0.1667    0.0000
  band No.  band energies     occupation 
      1     -10.8388      2.00000
      2      -4.3424      2.00000
      3      -4.2352      2.00000
      4      -4.2352      2.00000
      5      -3.8230      2.00000
      6      -3.7753      2.00000
      7       0.4900      2.00000
      8       1.4100      2.00000
      9       1.4100      2.00000
     10       5.8705      0.00000
     11       7.2675      0.00000
     12       9.4911      0.00000
     13       9.4911      0.00000

 k-point     6 :       0.3333    0.1667    0.0000
  band No.  band energies     occupation 
      1     -10.4469      2.00000
      2      -4.3034      2.00000
      3      -4.1635      2.00000
      4      -4.1515      2.00000
      5      -3.8158      2.00000
      6      -3.7586      2.00000
      7      -1.1875      2.00000
      8       0.8433      2.00000
      9       0.9180      2.00000
     10       6.3851      0.00000
     11       7.5695      0.00000
     12       9.4698      0.00000
     13      10.1337      0.00000

 k-point     7 :       0.5000    0.1667    0.0000
  band No.  band energies     occupation 
      1     -10.0830      2.00000
      2      -4.1985      2.00000
      3      -4.1324      2.00000
      4      -3.9064      2.00000
      5      -3.7582      2.00000
      6      -3.6386      2.00000
      7      -2.8170      2.00000
      8       0.2220      2.00000
      9       0.8171      2.00000
     10       6.3117      0.00000
     11       8.2021      0.00000
     12       9.8647      0.00000
     13      10.4208      0.00000

 k-point     8 :      -0.3333    0.1667    0.0000
  band No.  band energies     occupation 
      1     -10.1763      2.00000
      2      -4.1852      2.00000
      3      -4.1562      2.00000
      4      -3.9835      2.00000
      5      -3.7981      2.00000
      6      -3.7303      2.00000
      7      -2.3483      2.00000
      8       0.0263      2.00000
      9       1.1827      2.00000
     10       6.4847      0.00000
     11       8.4447      0.00000
     12       9.5902      0.00000
     13      10.0419      0.00000

 k-point     9 :      -0.1667    0.1667    0.0000
  band No.  band energies     occupation 
      1     -10.6063      2.00000
      2      -4.2692      2.00000
      3      -4.2237      2.00000
      4      -4.2085      2.00000
      5      -3.8170      2.00000
      6      -3.7699      2.00000
      7      -0.7061      2.00000
      8       0.6420      2.00000
      9       1.7130      2.00000
     10       6.3019      0.00000
     11       8.2578      0.00000
     12       9.1645      0.00000
     13       9.1848      0.00000

 k-point    10 :       0.3333    0.3333    0.0000
  band No.  band energies     occupation 
      1     -10.2019      2.00000
      2      -4.3709      2.00000
      3      -4.0635      2.00000
      4      -4.0635      2.00000
      5      -3.8092      2.00000
      6      -3.7365      2.00000
      7      -1.4365      2.00000
      8       0.3061      2.00000
      9       0.3061      2.00000
     10       5.8577      0.00000
     11       6.4967      0.00000
     12      11.4027      0.00000
     13      11.8711      0.00000

 k-point    11 :       0.5000    0.3333    0.0000
  band No.  band energies     occupation 
      1      -9.9217      2.00000
      2      -4.2850      2.00000
      3      -4.0135      2.00000
      4      -3.9751      2.00000
      5      -3.7377      2.00000
      6      -3.6120      2.00000
      7      -2.3291      2.00000
      8      -0.5562      2.00000
      9       0.1312      2.00000
     10       5.9293      0.00000
     11       7.1179      0.00000
     12      11.1408      0.00000
     13      12.1043      0.00000

 k-point    12 :      -0.3333    0.3333    0.0000
  band No.  band energies     occupation 
      1      -9.9121      2.00000
      2      -4.2016      2.00000
      3      -4.0572      2.00000
      4      -3.8574      2.00000
      5      -3.7800      2.00000
      6      -3.5136      2.00000
      7      -2.5788      2.00000
      8      -1.1462      2.00000
      9       0.5317      2.00000
     10       6.4114      0.00000
     11       8.6360      0.00000
     12      10.7840      0.00000
     13      11.0808      0.00000

 k-point    13 :       0.5000    0.5000    0.0000
  band No.  band energies     occupation 
      1      -9.8304      2.00000
      2      -4.3548      2.00000
      3      -3.9541      2.00000
      4      -3.9541      2.00000
      5      -3.7171      2.00000
      6      -3.5764      2.00000
      7      -2.5424      2.00000
      8      -0.1815      2.00000
      9      -0.1815      2.00000
     10       5.3189      0.00000
     11       6.0666      0.00000
     12      12.9981      0.00000
     13      14.0421      0.00000

 k-point    14 :       0.5000    0.3333    0.1667
  band No.  band energies     occupation 
      1     -10.1010      2.00000
      2      -4.2214      2.00000
      3      -4.1242      2.00000
      4      -4.0072      2.00000
      5      -3.7726      2.00000
      6      -3.7202      2.00000
      7      -1.9540      2.00000
      8      -0.4140      2.00000
      9       0.5432      2.00000
     10       7.3452      0.00000
     11       7.4111      0.00000
     12       8.9854      0.00000
     13      11.6858      0.00000

 k-point    15 :      -0.3333    0.3333    0.1667
  band No.  band energies     occupation 
      1      -9.9120      2.00000
      2      -4.1753      2.00000
      3      -4.0813      2.00000
      4      -3.8519      2.00000
      5      -3.8069      2.00000
      6      -3.4743      2.00000
      7      -2.6862      2.00000
      8      -0.7926      2.00000
      9       0.1628      2.00000
     10       7.3812      0.00000
     11       7.9156      0.00000
     12       9.6473      0.00000
     13      11.4789      0.00000

 k-point    16 :      -0.3333    0.5000    0.1667
  band No.  band energies     occupation 
      1      -9.8257      2.00000
      2      -4.2245      2.00000
      3      -4.0045      2.00000
      4      -3.9169      2.00000
      5      -3.7720      2.00000
      6      -3.4299      2.00000
      7      -2.5702      2.00000
      8      -0.6129      2.00000
      9      -0.5742      2.00000
     10       6.7962      0.00000
     11       7.3971      0.00000
     12      11.0299      0.00000
     13      11.0506      0.00000


--------------------------------------------------------------------------------------------------------


 soft charge-density along one line, spin component            1
         0         1         2         3         4         5         6         7         8         9
 total charge-density along one line
 
 pseudopotential strength for first ion, spin component:            1
 -9.822  -0.000   0.000  -0.000  -0.000 -10.187  -0.000   0.000
 -0.000  -9.822  -0.000  -0.000   0.000  -0.000 -10.187  -0.000
  0.000  -0.000  -9.822  -0.000   0.000   0.000  -0.000 -10.187
 -0.000  -0.000  -0.000  -9.822  -0.000  -0.000  -0.000  -0.000
 -0.000   0.000   0.000  -0.000  -9.822  -0.000   0.000   0.000
-10.187  -0.000   0.000  -0.000  -0.000 -10.478  -0.000   0.000
 -0.000 -10.187  -0.000  -0.000   0.000  -0.000 -10.478  -0.000
  0.000  -0.000 -10.187  -0.000   0.000   0.000  -0.000 -10.477
 -0.000  -0.000  -0.000 -10.187  -0.000  -0.000  -0.000  -0.000
 -0.000   0.000   0.000  -0.000 -10.187  -0.000   0.000  -0.000
 -0.000  -0.000  -0.000  -0.000   0.000  -0.000  -0.000  -0.000
 -0.000  -0.000  -0.000  -0.000   0.000  -0.000  -0.000  -0.000
  0.000   0.000   0.000  -0.002   0.000   0.000   0.000   0.000
 -0.002   0.000  -0.000   0.000   0.000  -0.002   0.000  -0.000
  0.000  -0.002   0.000   0.000  -0.000   0.000  -0.002   0.000
  0.000   0.000   0.000  -0.001   0.000   0.000   0.000   0.000
 -0.001   0.000  -0.000   0.000   0.000  -0.001   0.000  -0.000
  0.000  -0.001   0.000   0.000  -0.000   0.000  -0.001   0.000
 total augmentation occupancy for first ion, spin component:            1
  4.066   0.000  -0.000  -0.000   0.000  -2.082  -0.000   0.000   0.000  -0.000   0.000  -0.000   0.000  -0.703   0.000  -0.000
 -0.000   4.066  -0.000   0.000   0.000  -0.000  -2.082   0.000  -0.000  -0.000  -0.000   0.000  -0.000  -0.000  -0.703   0.000
 -0.000  -0.000   2.539   0.000   0.000   0.000   0.000  -0.565  -0.000  -0.000   0.000  -0.000  -0.000   0.000   0.000   0.000
 -0.000   0.000   0.000   4.066  -0.000   0.000  -0.000  -0.000  -2.082   0.000   0.000   0.000  -0.703   0.000  -0.000   0.105
 -0.000   0.000   0.000  -0.000   2.539   0.000  -0.000  -0.000   0.000  -0.565   0.000  -0.000   0.000   0.000  -0.000  -0.000
 -2.082  -0.000   0.000   0.000  -0.000   2.092   0.000  -0.000  -0.000   0.000  -0.000   0.000  -0.000   0.683  -0.000   0.000
 -0.000  -2.082   0.000  -0.000  -0.000   0.000   2.092  -0.000   0.000   0.000   0.000  -0.000   0.000   0.000   0.683  -0.000
  0.000   0.000  -0.565  -0.000  -0.000  -0.000  -0.000   0.585   0.000   0.000  -0.000   0.000   0.000  -0.000  -0.000  -0.000
  0.000  -0.000  -0.000  -2.082   0.000  -0.000   0.000   0.000   2.092  -0.000   0.000   0.000   0.683  -0.000   0.000  -0.118
  0.000  -0.000  -0.000   0.000  -0.565   0.000   0.000   0.000  -0.000   0.585   0.000  -0.000  -0.000  -0.000   0.000   0.000
  0.000  -0.000   0.000   0.000   0.000  -0.000   0.000  -0.000   0.000   0.000   2.603  -0.623   0.000   0.000   0.000   0.000
 -0.000   0.000  -0.000  -0.000  -0.000   0.000  -0.000   0.000   0.000  -0.000  -0.623   0.175   0.000   0.000   0.000   0.000
  0.000  -0.000  -0.000  -0.703   0.000  -0.000   0.000   0.000   0.683  -0.000   0.000   0.000   0.374  -0.000   0.000  -0.065
 -0.703  -0.000   0.000   0.000   0.000   0.683   0.000  -0.000  -0.000   0.000   0.000   0.000  -0.000   0.374  -0.000   0.000
  0.000  -0.703   0.000  -0.000  -0.000  -0.000   0.683  -0.000   0.000   0.000   0.000   0.000   0.000  -0.000   0.374  -0.000
 -0.000   0.000   0.000   0.105  -0.000   0.000  -0.000  -0.000  -0.118   0.000   0.000   0.000  -0.065   0.000  -0.000   0.014
  0.105   0.000  -0.000  -0.000  -0.000  -0.118  -0.000   0.000   0.000   0.000   0.000   0.000   0.000  -0.065   0.000  -0.000
 -0.000   0.105  -0.000   0.000   0.000   0.000  -0.118   0.000  -0.000  -0.000   0.000   0.000  -0.000   0.000  -0.065   0.000


------------------------ aborting loop because EDIFF is reached ----------------------------------------





 total charge

# of ion       s       p       d       tot
------------------------------------------
    1        0.527   0.490   9.798  10.816
    2        1.309   2.414   0.000   3.722
--------------------------------------------------
tot          1.836   2.904   9.798  14.539
 
    CHARGE:  cpu time      0.0160: real time      0.0160
    FORLOC:  cpu time      0.0011: real time      0.0011
    FORNL :  cpu time      0.0266: real time      0.0267
    STRESS:  cpu time      0.2877: real time      0.2884
    FORCOR:  cpu time      0.0029: real time      0.0029
    FORHAR:  cpu time      0.0008: real time      0.0008
    MIXING:  cpu time      0.0014: real time      0.0014
    OFIELD:  cpu time      0.0000: real time      0.0000

  FORCE on cell =-STRESS in cart. coord.  units (eV):
  Direction    XX          YY          ZZ          XY          YZ          ZX
  --------------------------------------------------------------------------------------
  Alpha Z    72.31961    72.31961    72.31961
  Ewald    -419.08738  -419.08738  -419.08738    -0.00000    -0.00000    -0.00000
  Hartree   226.73750   226.73750   226.73750     0.00000     0.00000     0.00000
  E(xc)     -92.11146   -92.11146   -92.11146    -0.00001    -0.00001    -0.00001
  Local      -1.23711    -1.23711    -1.23711     0.00089     0.00089     0.00089
  n-local    39.60282    40.02588    37.28711     1.80961    -1.10862     0.74903
  augment    22.42802    22.42802    22.42802    -0.00081    -0.00081    -0.00081
  Kinetic   153.25423   152.77766   148.91412     3.97870    -2.24021     1.64871
  Fock        0.00000     0.00000     0.00000     0.00000     0.00000     0.00000
  -------------------------------------------------------------------------------------
  Total      -0.33022    -0.33022    -0.33022     0.00000    -0.00000     0.00000
  in kB     -13.53450   -13.53450   -13.53450     0.00000    -0.00000     0.00000
  external pressure =      -13.53 kB  Pullay stress =        0.00 kB


 VOLUME and BASIS-vectors are now :
 -----------------------------------------------------------------------------
  energy-cutoff  :      400.00
  volume of cell :       39.09
      direct lattice vectors                 reciprocal lattice vectors
     0.000000000  2.693682877  2.693682877    -0.185619474  0.185619474  0.185619474
     2.693682877  0.000000000  2.693682877     0.185619474 -0.185619474  0.185619474
     2.693682877  2.693682877  0.000000000     0.185619474  0.185619474 -0.185619474

  length of vectors
     3.809442858  3.809442858  3.809442858     0.321502361  0.321502361  0.321502361


 FORCES acting on ions
    electron-ion (+dipol)            ewald-force                    non-local-force                 convergence-correction
 -----------------------------------------------------------------------------------------------
   0.180E-06 0.180E-06 0.145E-06   -.662E-14 -.248E-14 0.716E-13   -.694E-17 -.347E-17 -.347E-17   -.266E-07 -.266E-07 -.266E-07
   -.125E-05 -.125E-05 0.222E-05   0.740E-14 -.738E-15 -.744E-13   -.555E-16 0.000E+00 -.520E-17   0.115E-08 0.115E-08 0.115E-08
 -----------------------------------------------------------------------------------------------
   -.107E-05 -.107E-05 0.236E-05   0.785E-15 -.322E-14 -.282E-14   -.625E-16 -.347E-17 -.867E-17   -.255E-07 -.255E-07 -.255E-07
 
 
 POSITION                                       TOTAL-FORCE (eV/Angst)
 -----------------------------------------------------------------------------------
      0.00000      0.00000      0.00000         0.000000      0.000000      0.000000
      1.34684      1.34684      1.34684        -0.000000     -0.000000     -0.000000
 -----------------------------------------------------------------------------------
    total drift:                               -0.000001     -0.000001      0.000002


--------------------------------------------------------------------------------------------------------



  FREE ENERGIE OF THE ION-ELECTRON SYSTEM (eV)
  ---------------------------------------------------
  free  energy   TOTEN  =        -7.58200238 eV

  energy  without entropy=       -7.58200238  energy(sigma->0) =       -7.58200238
 


--------------------------------------------------------------------------------------------------------


    POTLOK:  cpu time      0.0597: real time      0.0598


--------------------------------------------------------------------------------------------------------




--------------------------------------------------------------------------------------------------------


      MLFF:  cpu time      0.0006: real time      0.0015
    WAVPRE:  cpu time      0.0056: real time      0.0056
    FEWALD:  cpu time      0.0006: real time      0.0006
    GENKIN:  cpu time      0.0010: real time      0.0010
    ORTHCH:  cpu time      0.0140: real time      0.0140
     LOOP+:  cpu time      2.9610: real time      2.9964


--------------------------------------- Ionic step        2  -------------------------------------------




--------------------------------------- Iteration      2(   1)  ---------------------------------------


    POTLOK:  cpu time      0.0032: real time      0.0032
    SETDIJ:  cpu time      0.0556: real time      0.0557
     EDDAV:  cpu time      0.1027: real time      0.1030
 BZINTS: Fermi energy:    2.642797;   18.000000 electrons
         Band energy:-0.493251E+02;  BLOECHL correction:    0.000000
       DOS:  cpu time      0.0010: real time      0.0010
    CHARGE:  cpu time      0.0134: real time      0.0135
    MIXING:  cpu time      0.0010: real time      0.0010
    --------------------------------------------
      LOOP:  cpu time      0.1769: real time      0.1774

 eigenvalue-minimisations  :   496
 total energy-change (2. order) :-0.1158262E+00  (-0.1398656E+00)
 number of electron      18.0000109 magnetization 
 augmentation part        7.1263013 magnetization 

 Broyden mixing:
  rms(total) = 0.24466E+00    rms(broyden)= 0.24461E+00
  rms(prec ) = 0.53854E+00
  weight for this iteration     100.00

 Free energy of the ion-electron system (eV)
  ---------------------------------------------------
  alpha Z        PSCENC =        74.07565178
  Ewald energy   TEWEN  =     -1267.35653889
  -Hartree energ DENC   =      -685.67374668
  -exchange      EXHF   =         0.00000000
  -V(xc)+E(xc)   XCENC  =        71.09017917
  PAW double counting   =      2127.95363152    -2302.52367919
  entropy T*S    EENTRO =         0.00000000
  eigenvalues    EBANDS =       -49.32506109
  atomic energy  EATOM  =      2024.06173478
  Solvation  Ediel_sol  =         0.00000000
  ---------------------------------------------------
  free energy    TOTEN  =        -7.69782861 eV

  energy without entropy =       -7.69782861  energy(sigma->0) =       -7.69782861


--------------------------------------------------------------------------------------------------------




--------------------------------------- Iteration      2(   2)  ---------------------------------------


    POTLOK:  cpu time      0.0033: real time      0.0036
    SETDIJ:  cpu time      0.0553: real time      0.0555
     EDDAV:  cpu time      0.1034: real time      0.1037
 BZINTS: Fermi energy:    2.457960;   18.000000 electrons
         Band energy:-0.591225E+02;  BLOECHL correction:    0.000000
       DOS:  cpu time      0.0011: real time      0.0011
    CHARGE:  cpu time      0.0137: real time      0.0137
    MIXING:  cpu time      0.0010: real time      0.0010
    --------------------------------------------
      LOOP:  cpu time      0.1778: real time      0.1787

 eigenvalue-minimisations  :   501
 total energy-change (2. order) : 0.9894756E-01  (-0.3832542E-01)
 number of electron      18.0000110 magnetization 
 augmentation part        7.2083623 magnetization 

 Broyden mixing:
  rms(total) = 0.91534E-01    rms(broyden)= 0.91525E-01
  rms(prec ) = 0.14724E+00
  weight for this iteration     100.00

 eigenvalues of (default mixing * dielectric matrix)
  average eigenvalue GAMMA=   1.0482
  1.0482

 Free energy of the ion-electron system (eV)
  ---------------------------------------------------
  alpha Z        PSCENC =        74.07565178
  Ewald energy   TEWEN  =     -1267.35653889
  -Hartree energ DENC   =      -677.38501004
  -exchange      EXHF   =         0.00000000
  -V(xc)+E(xc)   XCENC  =        70.68752627
  PAW double counting   =      2146.81835337    -2319.37808876
  entropy T*S    EENTRO =         0.00000000
  eigenvalues    EBANDS =       -59.12250956
  atomic energy  EATOM  =      2024.06173478
  Solvation  Ediel_sol  =         0.00000000
  ---------------------------------------------------
  free energy    TOTEN  =        -7.59888105 eV

  energy without entropy =       -7.59888105  energy(sigma->0) =       -7.59888105


[...]
  eigenvalues    EBANDS =       -60.50778856
  atomic energy  EATOM  =      2024.06173478
  Solvation  Ediel_sol  =         0.00000000
  ---------------------------------------------------
  free energy    TOTEN  =        -7.58492400 eV

  energy without entropy =       -7.58492400  energy(sigma->0) =       -7.58492400


--------------------------------------------------------------------------------------------------------




 average (electrostatic) potential at core
  the test charge radii are     0.9521  0.9698
  (the norm of the test charge is              1.0000)
       1 -35.8950       2 -88.4928
 
 
 
 E-fermi :   2.2844     XC(G=0):  -9.9751     alpha+bet : -8.2757

 val. band max:        2.2705514554   @ k =   0.0000   0.0000   0.0000
 cond. band min:       4.3623293145   @ k =   0.0000   0.0000   0.0000
 fundamental gap:      2.0917778591
 Fermi energy:         2.2843859138

 k-point     1 :       0.0000    0.0000    0.0000
  band No.  band energies     occupation 
      1     -11.0771      2.00000
      2      -4.2135      2.00000
      3      -4.2135      2.00000
      4      -4.2135      2.00000
      5      -3.6820      2.00000
      6      -3.6820      2.00000
      7       2.2705      2.00000
      8       2.2705      2.00000
      9       2.2706      2.00000
     10       4.3623      0.00000
     11       8.5555      0.00000
     12       8.5555      0.00000
     13       8.5555      0.00000

 k-point     2 :       0.1667    0.0000    0.0000
  band No.  band energies     occupation 
      1     -10.8614      2.00000
      2      -4.2133      2.00000
      3      -4.1760      2.00000
      4      -4.1760      2.00000
      5      -3.6842      2.00000
      6      -3.6842      2.00000
      7       0.5189      2.00000
      8       2.0084      2.00000
      9       2.0084      2.00000
     10       5.4832      0.00000
     11       8.5589      0.00000
     12       8.9749      0.00000
     13       8.9749      0.00000

 k-point     3 :       0.3333    0.0000    0.0000
  band No.  band energies     occupation 
      1     -10.3686      2.00000
      2      -4.1137      2.00000
      3      -4.1137      2.00000
      4      -4.0699      2.00000
      5      -3.6695      2.00000
      6      -3.6695      2.00000
      7      -1.7669      2.00000
      8       1.5562      2.00000
      9       1.5562      2.00000
     10       5.6508      0.00000
     11       9.2160      0.00000
     12       9.2160      0.00000
     13      10.0703      0.00000

 k-point     4 :       0.5000    0.0000    0.0000
  band No.  band energies     occupation 
      1     -10.0803      2.00000
      2      -4.0922      2.00000
      3      -4.0922      2.00000
      4      -3.6495      2.00000
      5      -3.6495      2.00000
      6      -3.4769      2.00000
      7      -3.2700      2.00000
      8       1.3538      2.00000
      9       1.3538      2.00000
     10       5.5131      0.00000
     11       9.0846      0.00000
     12       9.0846      0.00000
     13      11.0653      0.00000

 k-point     5 :       0.1667    0.1667    0.0000
  band No.  band energies     occupation 
      1     -10.7893      2.00000
      2      -4.2549      2.00000
      3      -4.1410      2.00000
      4      -4.1410      2.00000
      5      -3.7117      2.00000
      6      -3.6614      2.00000
      7       0.6503      2.00000
      8       1.5553      2.00000
      9       1.5553      2.00000
     10       6.1161      0.00000
     11       7.4154      0.00000
     12       9.6711      0.00000
     13       9.6712      0.00000

 k-point     6 :       0.3333    0.1667    0.0000
  band No.  band energies     occupation 
      1     -10.3842      2.00000
      2      -4.2189      2.00000
      3      -4.0665      2.00000
      4      -4.0560      2.00000
      5      -3.7045      2.00000
      6      -3.6440      2.00000
      7      -1.0638      2.00000
      8       0.9776      2.00000
      9       1.0498      2.00000
     10       6.5918      0.00000
     11       7.7562      0.00000
     12       9.6393      0.00000
     13      10.3217      0.00000

 k-point     7 :       0.5000    0.1667    0.0000
  band No.  band energies     occupation 
      1     -10.0064      2.00000
      2      -4.1053      2.00000
      3      -4.0342      2.00000
      4      -3.8071      2.00000
      5      -3.6436      2.00000
      6      -3.5252      2.00000
      7      -2.7385      2.00000
      8       0.3433      2.00000
      9       0.9466      2.00000
     10       6.5129      0.00000
     11       8.3703      0.00000
     12      10.0395      0.00000
     13      10.6421      0.00000

 k-point     8 :      -0.3333    0.1667    0.0000
  band No.  band energies     occupation 
      1     -10.1034      2.00000
      2      -4.0903      2.00000
      3      -4.0587      2.00000
      4      -3.8936      2.00000
      5      -3.6855      2.00000
      6      -3.6164      2.00000
      7      -2.2530      2.00000
      8       0.1407      2.00000
      9       1.3228      2.00000
     10       6.7009      0.00000
     11       8.6046      0.00000
     12       9.7610      0.00000
     13      10.2707      0.00000

 k-point     9 :      -0.1667    0.1667    0.0000
  band No.  band energies     occupation 
      1     -10.5491      2.00000
      2      -4.1827      2.00000
      3      -4.1287      2.00000
      4      -4.1140      2.00000
      5      -3.7053      2.00000
      6      -3.6559      2.00000
      7      -0.5720      2.00000
      8       0.7655      2.00000
      9       1.8686      2.00000
     10       6.5440      0.00000
     11       8.4384      0.00000
     12       9.3329      0.00000
     13       9.3550      0.00000

 k-point    10 :       0.3333    0.3333    0.0000
  band No.  band energies     occupation 
      1     -10.1305      2.00000
      2      -4.2929      2.00000
      3      -3.9625      2.00000
      4      -3.9625      2.00000
      5      -3.6989      2.00000
      6      -3.6207      2.00000
      7      -1.3076      2.00000
      8       0.4213      2.00000
      9       0.4213      2.00000
     10       5.9894      0.00000
     11       6.6839      0.00000
     12      11.6487      0.00000
     13      12.0981      0.00000

 k-point    11 :       0.5000    0.3333    0.0000
  band No.  band energies     occupation 
      1      -9.8393      2.00000
      2      -4.2042      2.00000
      3      -3.9103      2.00000
      4      -3.8714      2.00000
      5      -3.6221      2.00000
      6      -3.4956      2.00000
      7      -2.2279      2.00000
      8      -0.4620      2.00000
      9       0.2418      2.00000
     10       6.0719      0.00000
     11       7.3033      0.00000
     12      11.3741      0.00000
     13      12.3240      0.00000

 k-point    12 :      -0.3333    0.3333    0.0000
  band No.  band energies     occupation 
      1      -9.8291      2.00000
      2      -4.1112      2.00000
      3      -3.9557      2.00000
      4      -3.7481      2.00000
      5      -3.6666      2.00000
      6      -3.3966      2.00000
      7      -2.4954      2.00000
      8      -1.0627      2.00000
      9       0.6535      2.00000
     10       6.5710      0.00000
     11       8.8632      0.00000
     12      10.9952      0.00000
     13      11.2805      0.00000

 k-point    13 :       0.5000    0.5000    0.0000
  band No.  band energies     occupation 
      1      -9.7443      2.00000
      2      -4.2802      2.00000
      3      -3.8481      2.00000
      4      -3.8481      2.00000
      5      -3.6005      2.00000
      6      -3.4573      2.00000
      7      -2.4449      2.00000
      8      -0.0796      2.00000
      9      -0.0796      2.00000
     10       5.4454      0.00000
     11       6.2285      0.00000
     12      13.2930      0.00000
     13      14.3300      0.00000

 k-point    14 :       0.5000    0.3333    0.1667
  band No.  band energies     occupation 
      1     -10.0255      2.00000
      2      -4.1346      2.00000
      3      -4.0268      2.00000
      4      -3.9077      2.00000
      5      -3.6596      2.00000
      6      -3.6064      2.00000
      7      -1.8427      2.00000
      8      -0.3156      2.00000
      9       0.6654      2.00000
     10       7.5273      0.00000
     11       7.6225      0.00000
     12       9.1491      0.00000
     13      11.9121      0.00000

 k-point    15 :      -0.3333    0.3333    0.1667
  band No.  band energies     occupation 
      1      -9.8290      2.00000
      2      -4.0829      2.00000
      3      -3.9819      2.00000
      4      -3.7432      2.00000
      5      -3.6959      2.00000
      6      -3.3509      2.00000
      7      -2.6100      2.00000
      8      -0.6981      2.00000
      9       0.2737      2.00000
     10       7.5829      0.00000
     11       8.0941      0.00000
     12       9.8516      0.00000
     13      11.6697      0.00000

 k-point    16 :      -0.3333    0.5000    0.1667
  band No.  band energies     occupation 
      1      -9.7394      2.00000
      2      -4.1390      2.00000
      3      -3.9002      2.00000
      4      -3.8114      2.00000
      5      -3.6586      2.00000
      6      -3.3020      2.00000
      7      -2.4835      2.00000
      8      -0.5284      2.00000
      9      -0.4758      2.00000
     10       6.9474      0.00000
     11       7.5999      0.00000
     12      11.2496      0.00000
     13      11.2586      0.00000


--------------------------------------------------------------------------------------------------------


 soft charge-density along one line, spin component            1
         0         1         2         3         4         5         6         7         8         9
 total charge-density along one line
 
 pseudopotential strength for first ion, spin component:            1
 -9.725  -0.000   0.000  -0.000  -0.000 -10.095  -0.000   0.000
 -0.000  -9.725  -0.000  -0.000   0.000  -0.000 -10.095  -0.000
  0.000  -0.000  -9.724  -0.000   0.000   0.000  -0.000 -10.095
 -0.000  -0.000  -0.000  -9.725  -0.000  -0.000  -0.000  -0.000
 -0.000   0.000   0.000  -0.000  -9.724  -0.000   0.000   0.000
-10.095  -0.000   0.000  -0.000  -0.000 -10.391  -0.000   0.000
 -0.000 -10.095  -0.000  -0.000   0.000  -0.000 -10.391  -0.000
  0.000  -0.000 -10.095  -0.000   0.000   0.000  -0.000 -10.390
 -0.000  -0.000  -0.000 -10.095  -0.000  -0.000  -0.000  -0.000
 -0.000   0.000   0.000  -0.000 -10.095  -0.000   0.000  -0.000
 -0.000  -0.000  -0.000  -0.000   0.000  -0.000  -0.000  -0.000
 -0.000  -0.000  -0.000  -0.000   0.000  -0.000  -0.000  -0.000
  0.000   0.000   0.000  -0.002   0.000   0.000   0.000   0.000
 -0.002   0.000  -0.000   0.000   0.000  -0.002   0.000  -0.000
  0.000  -0.002   0.000   0.000  -0.000   0.000  -0.002   0.000
  0.000   0.000   0.000  -0.002   0.000   0.000   0.000   0.000
 -0.002   0.000  -0.000   0.000   0.000  -0.001   0.000  -0.000
  0.000  -0.002   0.000   0.000  -0.000   0.000  -0.001   0.000
 total augmentation occupancy for first ion, spin component:            1
  4.144  -0.000   0.000   0.000   0.000  -2.168   0.000  -0.000  -0.000  -0.000  -0.000   0.000  -0.000  -0.728  -0.000   0.000
 -0.000   4.144   0.000  -0.000  -0.000  -0.000  -2.168  -0.000   0.000   0.000   0.000  -0.000   0.000   0.000  -0.728  -0.000
  0.000   0.000   2.558  -0.000   0.000  -0.000  -0.000  -0.590   0.000  -0.000  -0.000   0.000   0.000  -0.000  -0.000  -0.000
  0.000  -0.000  -0.000   4.144   0.000  -0.000   0.000   0.000  -2.168  -0.000   0.000  -0.000  -0.728  -0.000   0.000   0.110
 -0.000  -0.000   0.000   0.000   2.558  -0.000   0.000  -0.000  -0.000  -0.590   0.000  -0.000  -0.000  -0.000   0.000   0.000
 -2.168   0.000  -0.000  -0.000  -0.000   2.185  -0.000   0.000   0.000   0.000   0.000  -0.000   0.000   0.708   0.000  -0.000
 -0.000  -2.168  -0.000   0.000   0.000  -0.000   2.185   0.000  -0.000  -0.000   0.000   0.000  -0.000  -0.000   0.708   0.000
 -0.000  -0.000  -0.590   0.000  -0.000   0.000   0.000   0.615  -0.000   0.000   0.000  -0.000  -0.000   0.000   0.000   0.000
 -0.000   0.000   0.000  -2.168   0.000   0.000  -0.000  -0.000   2.185   0.000   0.000   0.000   0.708   0.000  -0.000  -0.122
  0.000   0.000  -0.000   0.000  -0.590  -0.000  -0.000   0.000   0.000   0.615   0.000  -0.000   0.000  -0.000  -0.000  -0.000
  0.000   0.000  -0.000   0.000   0.000   0.000   0.000   0.000   0.000   0.000   2.657  -0.643   0.000   0.000   0.000  -0.000
 -0.000  -0.000   0.000  -0.000   0.000  -0.000   0.000  -0.000   0.000  -0.000  -0.643   0.182   0.000   0.000   0.000   0.000
 -0.000   0.000   0.000  -0.728  -0.000   0.000  -0.000  -0.000   0.708   0.000  -0.000   0.000   0.387   0.000  -0.000  -0.068
 -0.728   0.000  -0.000  -0.000  -0.000   0.708  -0.000   0.000   0.000  -0.000   0.000   0.000   0.000   0.387   0.000   0.000
 -0.000  -0.728  -0.000   0.000   0.000   0.000   0.708   0.000  -0.000  -0.000   0.000   0.000  -0.000   0.000   0.387   0.000
  0.000  -0.000  -0.000   0.110   0.000  -0.000   0.000   0.000  -0.122  -0.000  -0.000   0.000  -0.068  -0.000   0.000   0.014
  0.110  -0.000   0.000   0.000  -0.000  -0.122   0.000  -0.000  -0.000  -0.000  -0.000   0.000  -0.000  -0.068  -0.000   0.000
  0.000   0.110   0.000  -0.000  -0.000  -0.000  -0.122   0.000   0.000   0.000   0.000  -0.000   0.000   0.000  -0.068   0.000


------------------------ aborting loop because EDIFF is reached ----------------------------------------





 total charge

# of ion       s       p       d       tot
------------------------------------------
    1        0.533   0.506   9.801  10.839
    2        1.308   2.423   0.000   3.731
--------------------------------------------------
tot          1.840   2.929   9.801  14.570
 
    CHARGE:  cpu time      0.0159: real time      0.0160
    FORLOC:  cpu time      0.0003: real time      0.0003
    FORNL :  cpu time      0.0268: real time      0.0269
    STRESS:  cpu time      0.2891: real time      0.2898
    FORCOR:  cpu time      0.0029: real time      0.0029
    FORHAR:  cpu time      0.0008: real time      0.0008
    MIXING:  cpu time      0.0013: real time      0.0013
    OFIELD:  cpu time      0.0000: real time      0.0000

  FORCE on cell =-STRESS in cart. coord.  units (eV):
  Direction    XX          YY          ZZ          XY          YZ          ZX
  --------------------------------------------------------------------------------------
  Alpha Z    73.59860    73.59860    73.59860
  Ewald    -421.54352  -421.54352  -421.54352     0.00000     0.00000    -0.00000
  Hartree   225.30911   225.30911   225.30911     0.00000     0.00000     0.00000
  E(xc)     -92.17817   -92.17817   -92.17817    -0.00001    -0.00001    -0.00001
  Local       1.13313     1.13313     1.13313     0.00088     0.00088     0.00088
  n-local    39.83590    40.25486    37.52532     1.82066    -1.11035     0.75023
  augment    22.50399    22.50399    22.50399    -0.00077    -0.00077    -0.00077
  Kinetic   153.57341   153.03714   149.30951     3.98882    -2.23000     1.64505
  Fock        0.00000     0.00000     0.00000     0.00000     0.00000     0.00000
  -------------------------------------------------------------------------------------
  Total       0.00186     0.00186     0.00186    -0.00000    -0.00000    -0.00000
  in kB       0.07758     0.07758     0.07758    -0.00000    -0.00000    -0.00000
  external pressure =        0.08 kB  Pullay stress =        0.00 kB


 VOLUME and BASIS-vectors are now :
 -----------------------------------------------------------------------------
  energy-cutoff  :      400.00
  volume of cell :       38.41
      direct lattice vectors                 reciprocal lattice vectors
    -0.000000000  2.677988012  2.677988012    -0.186707333  0.186707333  0.186707333
     2.677988012  0.000000000  2.677988012     0.186707333 -0.186707333  0.186707333
     2.677988012  2.677988012 -0.000000000     0.186707333  0.186707333 -0.186707333

  length of vectors
     3.787246966  3.787246966  3.787246966     0.323386587  0.323386587  0.323386587


 FORCES acting on ions
    electron-ion (+dipol)            ewald-force                    non-local-force                 convergence-correction
 -----------------------------------------------------------------------------------------------
   0.689E-06 0.689E-06 0.493E-06   -.491E-14 -.348E-14 -.450E-14   0.278E-16 0.347E-17 0.104E-16   0.816E-08 0.816E-08 0.816E-08
   0.181E-06 0.181E-06 0.260E-05   0.594E-14 0.108E-14 0.332E-14   0.416E-16 0.416E-16 0.746E-16   -.121E-08 -.121E-08 -.121E-08
 -----------------------------------------------------------------------------------------------
   0.870E-06 0.870E-06 0.310E-05   0.103E-14 -.240E-14 -.118E-14   0.694E-16 0.451E-16 0.850E-16   0.695E-08 0.695E-08 0.695E-08
 
 
 POSITION                                       TOTAL-FORCE (eV/Angst)
 -----------------------------------------------------------------------------------
      0.00000      0.00000      0.00000        -0.000000     -0.000000     -0.000000
      1.33899      1.33899      1.33899         0.000000      0.000000      0.000000
 -----------------------------------------------------------------------------------
    total drift:                                0.000001      0.000001      0.000003


--------------------------------------------------------------------------------------------------------



  FREE ENERGIE OF THE ION-ELECTRON SYSTEM (eV)
  ---------------------------------------------------
  free  energy   TOTEN  =        -7.58492400 eV

  energy  without entropy=       -7.58492400  energy(sigma->0) =       -7.58492400
 d Force = 0.0000000E+00[ 0.000E+00, 0.000E+00]  d Energy = 0.4078716E-03-0.408E-03
 d Force = 0.0000000E+00[ 0.000E+00, 0.000E+00]  d Ewald  =-0.2726453E+01 0.273E+01
 


--------------------------------------------------------------------------------------------------------


    POTLOK:  cpu time      0.0597: real time      0.0599


--------------------------------------------------------------------------------------------------------




--------------------------------------------------------------------------------------------------------


  
 reached required accuracy - stopping structural energy minimisation
     LOOP+:  cpu time      1.8051: real time      1.8128
    4ORBIT:  cpu time      0.0000: real time      0.0000



 total charge

# of ion       s       p       d       tot
------------------------------------------
    1        0.533   0.506   9.801  10.839
    2        1.308   2.423   0.000   3.731
--------------------------------------------------
tot          1.840   2.929   9.801  14.570
 
 BZINTS: Fermi energy:    2.284386;   18.000000 electrons
         Band energy:-0.605078E+02;  BLOECHL correction:    0.000000

 total amount of memory used by VASP MPI-rank0    42216. kBytes
=======================================================================

   base                                    :      30000. kBytes
   nonl-proj                               :       3364. kBytes
   fftplans                                :       2284. kBytes
   grid                                    :       4038. kBytes
   one-center                              :         31. kBytes
   wavefun                                 :       2499. kBytes
 
  
  
 General timing and accounting informations for this job:
 ========================================================
  
                  Total CPU time used (sec):        9.492
                            User time (sec):        7.928
                          System time (sec):        1.564
                         Elapsed time (sec):       10.189
  
                   Maximum memory used (kb):     2030236.
                   Average memory used (kb):          N/A
  
                          Minor page faults:       296622
                          Major page faults:           26
                 Voluntary context switches:         6736
