<?xml version="1.0" encoding="ISO-8859-1"?>
<modeling>
 <generator>
  <i name="program" type="string">vasp </i>
  <i name="version" type="string">6.5.1  </i>
  <i name="subversion" type="string">10Mar25 (build May 13 2025 11:33:44) complex                          parallel </i>
  <i name="platform" type="string">LinuxNV </i>
  <i name="date" type="string">2026 05 16 </i>
  <i name="time" type="string">18:49:59 </i>
 </generator>
 <incar>
  <i type="string" name="PREC">Normal</i>
  <i type="string" name="ALGO">Normal</i>
  <i type="int" name="NELM">   100</i>
  <i type="int" name="IBRION">     2</i>
  <i name="EDIFF">      0.00000010</i>
  <i name="EDIFFG">     -0.00500000</i>
  <i type="int" name="NSW">   300</i>
  <i type="int" name="ISIF">     3</i>
  <i name="ENCUT">    400.00000000</i>
  <i type="logical" name="LREAL"> F  </i>
  <i type="int" name="ISMEAR">    -5</i>
  <i name="SIGMA">      0.10000000</i>
  <i type="logical" name="LWAVE"> F  </i>
  <i type="logical" name="LCHARG"> F  </i>
  <i type="int" name="LORBIT">    10</i>
  <i type="logical" name="LASPH"> T  </i>
  <i type="string" name="GGA">Ps</i>
 </incar>
 <primitive_cell>
  <structure name="primitive_cell" >
   <crystal>
    <varray name="basis" >
     <v>       0.00000000       2.69368288       2.69368288 </v>
     <v>       2.69368288       0.00000000       2.69368288 </v>
     <v>       2.69368288       2.69368288       0.00000000 </v>
    </varray>
    <i name="volume">     39.09033503 </i>
    <varray name="rec_basis" >
     <v>      -0.18561947       0.18561947       0.18561947 </v>
     <v>       0.18561947      -0.18561947       0.18561947 </v>
     <v>       0.18561947       0.18561947      -0.18561947 </v>
    </varray>
   </crystal>
   <varray name="positions" >
    <v>       0.00000000       0.00000000       0.00000000 </v>
    <v>       0.25000000       0.25000000       0.25000000 </v>
   </varray>
  </structure>
  <varray name="primitive_index" >
   <v type="int" >        1 </v>
   <v type="int" >        2 </v>
  </varray>
 </primitive_cell>
 <kpoints>
  <generation param="Gamma">
   <v type="int" name="divisions">       6        6        6 </v>
   <v name="usershift">      0.00000000       0.00000000       0.00000000 </v>
   <v name="genvec1">      0.16666667       0.00000000       0.00000000 </v>
   <v name="genvec2">      0.00000000       0.16666667      -0.00000000 </v>
   <v name="genvec3">     -0.00000000      -0.00000000       0.16666667 </v>
   <v name="shift">      0.00000000       0.00000000       0.00000000 </v>
  </generation>
  <varray name="kpointlist" >
   <v>       0.00000000       0.00000000       0.00000000 </v>
   <v>       0.16666667       0.00000000       0.00000000 </v>
   <v>       0.33333333       0.00000000       0.00000000 </v>
   <v>       0.50000000       0.00000000       0.00000000 </v>
   <v>       0.16666667       0.16666667       0.00000000 </v>
   <v>       0.33333333       0.16666667       0.00000000 </v>
   <v>       0.50000000       0.16666667       0.00000000 </v>
   <v>      -0.33333333       0.16666667       0.00000000 </v>
   <v>      -0.16666667       0.16666667       0.00000000 </v>
   <v>       0.33333333       0.33333333       0.00000000 </v>
   <v>       0.50000000       0.33333333       0.00000000 </v>
   <v>      -0.33333333       0.33333333       0.00000000 </v>
   <v>       0.50000000       0.50000000       0.00000000 </v>
   <v>       0.50000000       0.33333333       0.16666667 </v>
   <v>      -0.33333333       0.33333333       0.16666667 </v>
   <v>      -0.33333333       0.50000000       0.16666667 </v>
  </varray>
  <varray name="weights" >
   <v>       0.00462963 </v>
   <v>       0.03703704 </v>
   <v>       0.03703704 </v>
   <v>       0.01851852 </v>
   <v>       0.02777778 </v>
   <v>       0.11111111 </v>
   <v>       0.11111111 </v>
   <v>       0.11111111 </v>
   <v>       0.05555556 </v>
   <v>       0.02777778 </v>
   <v>       0.11111111 </v>
   <v>       0.05555556 </v>
   <v>       0.01388889 </v>
   <v>       0.11111111 </v>
   <v>       0.11111111 </v>
   <v>       0.05555556 </v>
  </varray>
  <varray name="tetrahedronlist"  type="int" >
   <v type="int" >       48        2        3        6        9 </v>
   <v type="int" >       48        6        8        9       14 </v>
   <v type="int" >       24        8        8        9       14 </v>
   <v type="int" >       48        3        6        8        9 </v>
   <v type="int" >       48        8       12       14       15 </v>
   <v type="int" >       48        7        8       12       15 </v>
   <v type="int" >       24        8        8       12       14 </v>
   <v type="int" >       48        7       11       14       15 </v>
   <v type="int" >       48        6        7       11       14 </v>
   <v type="int" >       48        7       11       12       15 </v>
   <v type="int" >       24        6        6       10       14 </v>
   <v type="int" >       24        5        6        6       10 </v>
   <v type="int" >       48        6       10       11       14 </v>
   <v type="int" >       24        5        6        6        9 </v>
   <v type="int" >       48        2        5        6        9 </v>
   <v type="int" >       48        6        7        8       14 </v>
   <v type="int" >       48        3        6        7        8 </v>
   <v type="int" >       48       11       14       15       16 </v>
   <v type="int" >       24       14       15       15       16 </v>
   <v type="int" >       24       12       14       15       15 </v>
   <v type="int" >       48        7        8       14       15 </v>
   <v type="int" >       24       15       15       16       16 </v>
   <v type="int" >       24       12       15       15       16 </v>
   <v type="int" >       48       11       12       15       16 </v>
   <v type="int" >       24       11       11       14       16 </v>
   <v type="int" >       24       10       11       11       14 </v>
   <v type="int" >       24        6        6        9       14 </v>
   <v type="int" >       24       11       11       12       16 </v>
   <v type="int" >       48        7        7        8       15 </v>
   <v type="int" >       24        2        2        5        9 </v>
   <v type="int" >       48        3        4        7        8 </v>
   <v type="int" >       48        4        7        7        8 </v>
   <v type="int" >       48       11       11       13       16 </v>
   <v type="int" >       24       10       11       11       13 </v>
   <v type="int" >       24        1        2        2        5 </v>
  </varray>
  <i name="volumeweight">      0.00077160 </i>
 </kpoints>
 <parameters>
  <separator name="general" >
   <i type="string" name="SYSTEM">unknown system</i>
   <i type="logical" name="LCOMPAT"> F  </i>
  </separator>
  <separator name="electronic" >
   <i type="string" name="PREC">normal</i>
   <i name="ENMAX">    400.00000000</i>
   <i name="ENAUG">    575.89200000</i>
   <i name="EDIFF">      0.00000010</i>
   <i type="int" name="IALGO">    38</i>
   <i type="int" name="IWAVPR">    11</i>
   <i type="int" name="NBANDS">    13</i>
   <i type="int" name="NBANDSLOW">    -1</i>
   <i type="int" name="NBANDSHIGH">    -1</i>
   <i name="NELECT">     18.00000000</i>
   <i type="int" name="TURBO">     0</i>
   <i type="int" name="IRESTART">     0</i>
   <i type="int" name="NREBOOT">     0</i>
   <i type="int" name="NMIN">     0</i>
   <i name="EREF">      0.00000000</i>
   <separator name="electronic smearing" >
    <i type="int" name="ISMEAR">    -5</i>
    <i name="SIGMA">      0.10000000</i>
    <i name="KSPACING">      0.50000000</i>
    <i type="logical" name="KGAMMA"> T  </i>
    <i type="logical" name="KBLOWUP"> T  </i>
   </separator>
   <separator name="electronic projectors" >
    <i type="logical" name="LREAL"> F  </i>
    <v name="ROPT">      0.00000000      0.00000000</v>
    <i type="int" name="LMAXPAW">  -100</i>
    <i type="int" name="LMAXMIX">     2</i>
    <i type="logical" name="NLSPLINE"> F  </i>
   </separator>
   <separator name="electronic startup" >
    <i type="int" name="ISTART">     0</i>
    <i type="int" name="ICHARG">     2</i>
    <i type="int" name="INIWAV">     1</i>
   </separator>
   <separator name="electronic spin" >
    <i type="int" name="ISPIN">     1</i>
    <i type="logical" name="LNONCOLLINEAR"> F  </i>
    <v name="MAGMOM">      1.00000000      1.00000000</v>
    <i name="NUPDOWN">     -1.00000000</i>
    <i type="logical" name="LSORBIT"> F  </i>
    <v name="SAXIS">      0.00000000      0.00000000      1.00000000</v>
    <i type="logical" name="LSPIRAL"> F  </i>
    <v name="QSPIRAL">      0.00000000      0.00000000      0.00000000</v>
    <i type="logical" name="LZEROZ"> F  </i>
   </separator>
   <separator name="electronic exchange-correlation" >
    <i type="logical" name="LASPH"> T  </i>
   </separator>
   <separator name="electronic convergence" >
    <i type="int" name="NELM">   100</i>
    <i type="int" name="NELMDL">    -5</i>
    <i type="int" name="NELMIN">     2</i>
    <i name="ENINI">    400.00000000</i>
    <separator name="electronic convergence detail" >
     <i type="logical" name="LDIAG"> T  </i>
     <i type="logical" name="LSUBROT"> F  </i>
     <i type="logical" name="LROBUST"> F  </i>
     <i type="int" name="ISEARCH">     0</i>
     <i name="WEIMIN">      0.00100000</i>
     <i name="EBREAK">      0.00000000</i>
     <i name="DEPER">      0.30000000</i>
     <i type="int" name="NRMM">     4</i>
     <i name="TIME">      0.40000000</i>
    </separator>
   </separator>
   <separator name="electronic mixer" >
    <i name="AMIX">      0.40000000</i>
    <i name="BMIX">      1.00000000</i>
    <i name="AMIN">      0.10000000</i>
    <i name="AMIX_MAG">      1.60000000</i>
    <i name="BMIX_MAG">      1.00000000</i>
    <separator name="electronic mixer details" >
     <i type="int" name="IMIX">     4</i>
     <i type="logical" name="MIXFIRST"> F  </i>
     <i type="int" name="MAXMIX">   -45</i>
     <i name="WC">    100.00000000</i>
     <i type="int" name="INIMIX">     1</i>
     <i type="int" name="MIXPRE">     1</i>
     <i type="int" name="MREMOVE">     5</i>
    </separator>
   </separator>
   <separator name="electronic dipolcorrection" >
    <i type="logical" name="LDIPOL"> F  </i>
    <i type="logical" name="LMONO"> F  </i>
    <i type="int" name="IDIPOL">     0</i>
    <i name="EPSILON">      1.00000000</i>
    <v name="DIPOL">   -100.00000000   -100.00000000   -100.00000000</v>
    <i name="EFIELD">      0.00000000</i>
    <i type="logical" name="LVACPOTAV"> F  </i>
   </separator>
  </separator>
  <separator name="grids" >
   <i type="int" name="NGX">    20</i>
   <i type="int" name="NGY">    20</i>
   <i type="int" name="NGZ">    20</i>
   <i type="int" name="NGXF">    40</i>
   <i type="int" name="NGYF">    40</i>
   <i type="int" name="NGZF">    40</i>
   <i type="logical" name="ADDGRID"> F  </i>
  </separator>
  <separator name="ionic" >
   <i type="int" name="NSW">   300</i>
   <i type="int" name="IBRION">     2</i>
   <i type="int" name="MDALGO">     0</i>
   <i type="int" name="ISIF">     3</i>
   <i name="PSTRESS">      0.00000000</i>
   <i name="EDIFFG">     -0.00500000</i>
   <i type="int" name="NFREE">     1</i>
   <i name="POTIM">      0.50000000</i>
   <i name="SMASS">     -3.00000000</i>
   <i name="SCALEE">      1.00000000</i>
  </separator>
  <separator name="ionic md" >
   <i name="TEBEG">      0.00010000</i>
   <i name="TEEND">      0.00010000</i>
   <i type="int" name="NBLOCK">     1</i>
   <i type="int" name="KBLOCK">   300</i>
   <i type="int" name="NPACO">   256</i>
   <i name="APACO">     10.00000000</i>
  </separator>
  <separator name="symmetry" >
   <i type="int" name="ISYM">     2</i>
   <i name="SYMPREC">      0.00001000</i>
  </separator>
  <separator name="dos" >
   <i type="int" name="LORBIT">    10</i>
   <v name="RWIGS">     -1.00000000     -1.00000000</v>
   <i type="int" name="NEDOS">   301</i>
   <i name="EMIN">     10.00000000</i>
   <i name="EMAX">    -10.00000000</i>
   <i name="EFERMI">      0.00000000</i>
  </separator>
  <separator name="writing" >
   <i type="int" name="NWRITE">     2</i>
   <i type="logical" name="LWAVE"> F  </i>
   <i type="logical" name="LDOWNSAMPLE"> F  </i>
   <i type="logical" name="LCHARG"> F  </i>
   <i type="logical" name="LPARD"> F  </i>
   <i type="logical" name="LVTOT"> F  </i>
   <i type="logical" name="LVHAR"> F  </i>
   <i type="logical" name="LELF"> F  </i>
   <i type="logical" name="LOPTICS"> F  </i>
   <v name="STM">      0.00000000      0.00000000      0.00000000      0.00000000      0.00000000      0.00000000      0.00000000</v>
  </separator>
  <separator name="performance" >
   <i type="int" name="NPAR">     1</i>
   <i type="int" name="NSIM">     4</i>
   <i type="int" name="NBLK">    -1</i>
   <i type="logical" name="LPLANE"> T  </i>
   <i type="logical" name="LSCALAPACK"> T  </i>
   <i type="logical" name="LSCAAWARE"> F  </i>
   <i type="logical" name="LSCALU"> F  </i>
   <i type="logical" name="LASYNC"> F  </i>
   <i type="logical" name="LORBITALREAL"> F  </i>
  </separator>
  <separator name="miscellaneous" >
   <i type="int" name="IDIOT">     3</i>
   <i type="int" name="PHON_NSTRUCT">    -1</i>
   <i type="logical" name="LMUSIC"> F  </i>
   <v name="POMASS">     65.39000000     32.06600000</v>
   <v name="DARWINR">      0.00000000      0.00000000</v>
   <v name="DARWINV">      1.00000000      1.00000000</v>
   <i type="logical" name="LCORR"> T  </i>
  </separator>
  <i type="logical" name="GGA_COMPAT"> T  </i>
  <i type="logical" name="LBERRY"> F  </i>
  <i type="int" name="ICORELEVEL">     0</i>
  <i type="logical" name="LDAU"> F  </i>
  <i type="int" name="I_CONSTRAINED_M">     0</i>
  <separator name="electronic exchange-correlation" >
   <i type="string" name="GGA    ">PS</i>
   <i type="string" name="XC_C">1</i>
   <i type="int" name="VOSKOWN">     0</i>
   <i type="logical" name="LHFCALC"> F  </i>
   <i type="string" name="PRECFOCK"></i>
   <i type="logical" name="LSYMGRAD"> F  </i>
   <i type="logical" name="LHFONE"> F  </i>
   <i type="logical" name="LRHFCALC"> F  </i>
   <i type="logical" name="LTHOMAS"> F  </i>
   <i type="logical" name="LMODELHF"> F  </i>
   <i type="logical" name="LFOCKACE"> F  </i>
   <i name="ENCUT4O">     -1.00000000</i>
   <i type="int" name="EXXOEP">     0</i>
   <i type="int" name="FOURORBIT">     0</i>
   <i name="AEXX">      0.00000000</i>
   <i name="HFALPHA">      0.00000000</i>
   <i name="MCALPHA">      0.00000000</i>
   <i name="ALDAX">      1.00000000</i>
   <i name="AGGAX">      1.00000000</i>
   <i name="AMGGAX">      1.00000000</i>
   <i name="ALDAC">      1.00000000</i>
   <i name="AGGAC">      1.00000000</i>
   <i name="AMGGAC">      1.00000000</i>
   <i type="int" name="NKREDX">     1</i>
   <i type="int" name="NKREDY">     1</i>
   <i type="int" name="NKREDZ">     1</i>
   <i type="logical" name="SHIFTRED"> F  </i>
   <i type="logical" name="ODDONLY"> F  </i>
   <i type="logical" name="EVENONLY"> F  </i>
   <i type="int" name="LMAXFOCK">     0</i>
   <i type="int" name="NMAXFOCKAE">     0</i>
   <i type="logical" name="LFOCKAEDFT"> F  </i>
   <i name="HFSCREEN">      0.00000000</i>
   <i name="HFSCREENC">      0.00000000</i>
   <i type="int" name="NBANDSGWLOW">     0</i>
  </separator>
  <separator name="vdW DFT" >
   <i type="logical" name="LUSE_VDW"> F  </i>
   <i type="int" name="IVDW_NL">    -1</i>
   <i type="logical" name="LSPIN_VDW"> F  </i>
   <i name="ZAB_VDW">     -0.84910000</i>
   <i name="GAMMA_VDW">      1.39626340</i>
   <i name="ALPHA_VDW">      0.00000000</i>
   <i name="PARAM1">      0.12340000</i>
   <i name="PARAM2">      1.00000000</i>
   <i name="BPARAM">      6.30000000</i>
   <i name="CPARAM">      0.00930000</i>
  </separator>
  <separator name="model GW" >
   <i type="int" name="MODEL_GW">     0</i>
   <i name="MODEL_EPS0">     11.72710051</i>
   <i name="MODEL_ALPHA">      1.00000000</i>
  </separator>
  <separator name="linear response parameters" >
   <i type="logical" name="LEPSILON"> F  </i>
   <i type="logical" name="LRPA"> F  </i>
   <i type="logical" name="LNABLA"> F  </i>
   <i type="logical" name="LVEL"> F  </i>
   <i name="CSHIFT">      0.10000000</i>
   <i name="OMEGAMAX">     -1.00000000</i>
   <i name="DEG_THRESHOLD">      0.00200000</i>
   <i name="RTIME">     -0.10000000</i>
   <i name="WPLASMAI">      0.00000000</i>
   <v name="DFIELD">      0.00000000      0.00000000      0.00000000</v>
   <v name="WPLASMA">      0.00000000      0.00000000      0.00000000      0.00000000      0.00000000      0.00000000      0.00000000      0.00000000      0.00000000</v>
  </separator>
  <separator name="orbital magnetization" >
   <i type="logical" name="NUCIND"> F  </i>
   <v name="MAGPOS">      0.00000000      0.00000000      0.00000000</v>
   <i type="logical" name="LNICSALL"> T  </i>
   <i type="logical" name="ORBITALMAG"> F  </i>
   <i type="logical" name="LMAGBLOCH"> F  </i>
   <i type="logical" name="LCHIMAG"> F  </i>
   <i type="logical" name="LGAUGE"> T  </i>
   <i type="int" name="MAGATOM">     0</i>
   <v name="MAGDIPOL">      0.00000000      0.00000000      0.00000000</v>
   <v name="AVECCONST">      0.00000000      0.00000000      0.00000000</v>
  </separator>
  <separator name="response functions" >
   <i type="logical" name="LALL_IN_ONE"> F  </i>
   <i type="int" name="IALL_IN_ONE">    -1</i>
   <i type="int" name="NBANDS_WAVE">    -1</i>
   <i type="logical" name="LFINITE_TEMPERATURE"> F  </i>
   <i type="logical" name="LADDER"> F  </i>
   <i type="logical" name="LRPAFORCE"> F  </i>
   <i type="logical" name="LFXC"> F  </i>
   <i type="logical" name="LHARTREE"> T  </i>
   <i type="int" name="IBSE">     2</i>
   <v type="int" name="KPOINT">    -1     0     0     0</v>
   <i type="logical" name="LTCTC"> F  </i>
   <i type="logical" name="LTCTE"> F  </i>
   <i type="logical" name="LTETE"> F  </i>
   <i type="logical" name="LTRIPLET"> F  </i>
   <i type="logical" name="LFXCEPS"> F  </i>
   <i type="logical" name="LFXHEG"> F  </i>
   <i type="int" name="NATURALO">     2</i>
   <i type="logical" name="LHOLEGF"> F  </i>
   <i type="logical" name="L2ORDER"> F  </i>
   <i type="logical" name="LDMP1"> F  </i>
   <i type="logical" name="LMP2LT"> F  </i>
   <i type="logical" name="LSMP2LT"> F  </i>
   <i type="logical" name="LGWLF"> F  </i>
   <i name="ENCUTGW">     -1.60000002</i>
   <i name="ENCUTGWSOFT">     -1.60000002</i>
   <i name="ENCUTLF">     -1.00000000</i>
   <i type="logical" name="ESF_SPLINES"> F  </i>
   <i name="ESF_CONV">      0.01000000</i>
   <i type="int" name="ESF_NINTER">    15</i>
   <i type="int" name="LMAXMP2">    -1</i>
   <i name="SCISSOR">      0.00000000</i>
   <i type="int" name="NOMEGA">     0</i>
   <i type="int" name="NOMEGAR">     0</i>
   <i type="int" name="NBANDSGW">    -1</i>
   <i type="int" name="NBANDSO">    -1</i>
   <i type="int" name="NBANDSV">    -1</i>
   <i type="int" name="NELMGW">     1</i>
   <i type="int" name="NELMHF">     1</i>
   <i type="int" name="DIM">     3</i>
   <i type="int" name="IESPILON">     4</i>
   <i type="int" name="ANTIRES">     0</i>
   <i name="OMEGAMAX">    -30.00000000</i>
   <i name="OMEGAMIN">    -30.00000000</i>
   <i name="OMEGATL">   -200.00000000</i>
   <i type="int" name="OMEGAGRID">     0</i>
   <i name="CSHIFT">     -0.10000000</i>
   <i type="logical" name="LSELFENERGY"> F  </i>
   <i type="logical" name="LSPECTRAL"> F  </i>
   <i type="logical" name="LSPECTRALGW"> F  </i>
   <i type="logical" name="LSINGLES"> F  </i>
   <i type="logical" name="LFERMIGW"> F  </i>
   <i type="logical" name="ODDONLYGW"> F  </i>
   <i type="logical" name="EVENONLYGW"> F  </i>
   <i type="int" name="NKREDLFX">     1</i>
   <i type="int" name="NKREDLFY">     1</i>
   <i type="int" name="NKREDLFZ">     1</i>
   <i type="int" name="MAXMEM">  2800</i>
   <i type="int" name="TELESCOPE">     0</i>
   <i type="int" name="NTAUPAR">    -1</i>
   <i type="int" name="NOMEGAPAR">    -1</i>
   <i name="DAMP_NEWTON">      0.80000001</i>
   <i name="LAMBDA">      1.00000000</i>
  </separator>
  <separator name="External order field" >
   <i name="OFIELD_KAPPA">      0.00000000</i>
   <v name="OFIELD_K">      0.00000000      0.00000000      0.00000000</v>
   <i name="OFIELD_Q6_NEAR">      0.00000000</i>
   <i name="OFIELD_Q6_FAR">      0.00000000</i>
   <i name="OFIELD_A">      0.00000000</i>
  </separator>
  <separator name="optional k-points parameters" >
   <i type="int" name="KPOINTS_OPT_MODE">     1</i>
   <i type="logical" name="LKPOINTS_OPT"> F  </i>
  </separator>
 </parameters>
 <atominfo>
  <atoms>       2 </atoms>
  <types>       2 </types>
  <array name="atoms" >
   <dimension dim="1">ion</dimension>
   <field type="string">element</field>
   <field type="int">atomtype</field>
   <set>
    <rc><c>Zn</c><c>   1</c></rc>
    <rc><c>S </c><c>   2</c></rc>
   </set>
  </array>
  <array name="atomtypes" >
   <dimension dim="1">type</dimension>
   <field type="int">atomspertype</field>
   <field type="string">element</field>
   <field>mass</field>
   <field>valence</field>
   <field type="string">pseudopotential</field>
   <set>
    <rc><c>   1</c><c>Zn</c><c>     65.39000000</c><c>     12.00000000</c><c>  PAW_PBE Zn 06Sep2000                  </c></rc>
    <rc><c>   1</c><c>S </c><c>     32.06600000</c><c>      6.00000000</c><c>  PAW_PBE S 06Sep2000                   </c></rc>
   </set>
  </array>
 </atominfo>
 <structure name="initialpos" >
  <crystal>
   <varray name="basis" >
    <v>       0.00000000       2.69368288       2.69368288 </v>
    <v>       2.69368288       0.00000000       2.69368288 </v>
    <v>       2.69368288       2.69368288       0.00000000 </v>
   </varray>
   <i name="volume">     39.09033503 </i>
   <varray name="rec_basis" >
    <v>      -0.18561947       0.18561947       0.18561947 </v>
    <v>       0.18561947      -0.18561947       0.18561947 </v>
    <v>       0.18561947       0.18561947      -0.18561947 </v>
   </varray>
  </crystal>
  <varray name="positions" >
   <v>       0.00000000       0.00000000       0.00000000 </v>
   <v>       0.25000000       0.25000000       0.25000000 </v>
  </varray>
 </structure>
 <calculation>
  <scstep>
   <time name="dav">    0.25    0.25</time>
   <time name="total">    0.33    0.33</time>
   <energy>
    <i name="alphaZ">     72.31960888 </i>
    <i name="ewald">  -1257.26166089 </i>
    <i name="hartreedc">   -688.29909216 </i>
    <i name="XCdc">     70.41014712 </i>
    <i name="pawpsdc">   1671.72180957 </i>
    <i name="pawaedc">  -1846.00842002 </i>
    <i name="eentropy">      0.00000000 </i>
    <i name="bandstr">     33.80435878 </i>
    <i name="atom">   2024.06173478 </i>
    <i name="e_fr_energy">     80.74848606 </i>
    <i name="e_wo_entrp">     80.74848606 </i>
    <i name="e_0_energy">     80.74848606 </i>
   </energy>
  </scstep>
  <scstep>
   <time name="dav">    0.10    0.10</time>
   <time name="total">    0.10    0.10</time>
   <energy>
    <i name="e_fr_energy">     -2.87823136 </i>
    <i name="e_wo_entrp">     -2.87823136 </i>
    <i name="e_0_energy">     -2.87823136 </i>
   </energy>
  </scstep>
  <scstep>
   <time name="dav">    0.10    0.10</time>
   <time name="total">    0.10    0.10</time>
   <energy>
    <i name="e_fr_energy">     -7.92978497 </i>
    <i name="e_wo_entrp">     -7.92978497 </i>
    <i name="e_0_energy">     -7.92978497 </i>
   </energy>
  </scstep>
  <scstep>
   <time name="dav">    0.10    0.10</time>
   <time name="total">    0.10    0.10</time>
   <energy>
    <i name="e_fr_energy">     -7.98787878 </i>
    <i name="e_wo_entrp">     -7.98787878 </i>
    <i name="e_0_energy">     -7.98787878 </i>
   </energy>
  </scstep>
  <scstep>
   <time name="dav">    0.10    0.10</time>
   <time name="total">    0.29    0.31</time>
   <energy>
    <i name="e_fr_energy">     -7.98877226 </i>
    <i name="e_wo_entrp">     -7.98877226 </i>
    <i name="e_0_energy">     -7.98877226 </i>
   </energy>
  </scstep>
  <scstep>
   <time name="dav">    0.12    0.12</time>
   <time name="total">    0.19    0.19</time>
   <energy>
    <i name="e_fr_energy">     -7.60087212 </i>
    <i name="e_wo_entrp">     -7.60087212 </i>
    <i name="e_0_energy">     -7.60087212 </i>
   </energy>
  </scstep>
  <scstep>
   <time name="dav">    0.09    0.09</time>
   <time name="total">    0.16    0.16</time>
   <energy>
    <i name="e_fr_energy">     -7.58519710 </i>
    <i name="e_wo_entrp">     -7.58519710 </i>
    <i name="e_0_energy">     -7.58519710 </i>
   </energy>
  </scstep>
  <scstep>
   <time name="dav">    0.10    0.10</time>
   <time name="total">    0.18    0.18</time>
   <energy>
    <i name="e_fr_energy">     -7.58213483 </i>
    <i name="e_wo_entrp">     -7.58213483 </i>
    <i name="e_0_energy">     -7.58213483 </i>
   </energy>
  </scstep>
  <scstep>
   <time name="dav">    0.10    0.10</time>
   <time name="total">    0.17    0.17</time>
   <energy>
    <i name="e_fr_energy">     -7.58191731 </i>
    <i name="e_wo_entrp">     -7.58191731 </i>
    <i name="e_0_energy">     -7.58191731 </i>
   </energy>
  </scstep>
  <scstep>
   <time name="dav">    0.10    0.10</time>
   <time name="total">    0.17    0.17</time>
   <energy>
    <i name="e_fr_energy">     -7.58200351 </i>
    <i name="e_wo_entrp">     -7.58200351 </i>
    <i name="e_0_energy">     -7.58200351 </i>
   </energy>
  </scstep>
  <scstep>
   <time name="dav">    0.10    0.10</time>
   <time name="total">    0.18    0.18</time>
   <energy>
    <i name="e_fr_energy">     -7.58200241 </i>
    <i name="e_wo_entrp">     -7.58200241 </i>
    <i name="e_0_energy">     -7.58200241 </i>
   </energy>
  </scstep>
  <scstep>
   <time name="dav">    0.12    0.12</time>
   <time name="total">    0.19    0.20</time>
   <energy>
    <i name="e_fr_energy">     -7.58200257 </i>
    <i name="e_wo_entrp">     -7.58200257 </i>
    <i name="e_0_energy">     -7.58200257 </i>
   </energy>
  </scstep>
  <scstep>
   <time name="dav">    0.11    0.11</time>
   <time name="total">    0.18    0.18</time>
   <energy>
    <i name="e_fr_energy">     -7.58200241 </i>
    <i name="e_wo_entrp">     -7.58200241 </i>
    <i name="e_0_energy">     -7.58200241 </i>
   </energy>
  </scstep>
  <scstep>
   <time name="dav">    0.07    0.07</time>
   <time name="total">    0.13    0.13</time>
   <energy>
    <i name="alphaZ">     72.31960888 </i>
    <i name="ewald">  -1257.26166089 </i>
    <i name="hartreedc">   -680.21223829 </i>
    <i name="XCdc">     70.45036724 </i>
    <i name="pawpsdc">   2127.96136425 </i>
    <i name="pawaedc">  -2302.53134716 </i>
    <i name="eentropy">      0.00000000 </i>
    <i name="bandstr">    -62.36983119 </i>
    <i name="atom">   2024.06173478 </i>
    <i name="e_fr_energy">     -7.58200238 </i>
    <i name="e_wo_entrp">     -7.58200238 </i>
    <i name="e_0_energy">     -7.58200238 </i>
   </energy>
  </scstep>
  <structure>
   <crystal>
    <varray name="basis" >
     <v>       0.00000000       2.69368288       2.69368288 </v>
     <v>       2.69368288       0.00000000       2.69368288 </v>
     <v>       2.69368288       2.69368288       0.00000000 </v>
    </varray>
    <i name="volume">     39.09033503 </i>
    <varray name="rec_basis" >
     <v>      -0.18561947       0.18561947       0.18561947 </v>
     <v>       0.18561947      -0.18561947       0.18561947 </v>
     <v>       0.18561947       0.18561947      -0.18561947 </v>
    </varray>
   </crystal>
   <varray name="positions" >
    <v>       0.00000000       0.00000000       0.00000000 </v>
    <v>       0.25000000       0.25000000       0.25000000 </v>
   </varray>
  </structure>
  <varray name="forces" >
   <v>       0.00000000       0.00000000       0.00000000 </v>
   <v>      -0.00000000      -0.00000000      -0.00000000 </v>
  </varray>
  <varray name="stress" >
   <v>     -13.53450128       0.00000000       0.00000000 </v>
   <v>       0.00000000     -13.53450128      -0.00000000 </v>
   <v>      -0.00000000      -0.00000000     -13.53450128 </v>
  </varray>
  <energy>
   <i name="e_fr_energy">     -7.58200238 </i>
   <i name="e_wo_entrp">     -7.58200238 </i>
   <i name="e_0_energy">     -7.58200238 </i>
  </energy>
  <time name="totalsc">    2.96    3.00</time>
 </calculation>
 <calculation>
  <scstep>
   <time name="dav">    0.10    0.10</time>
   <time name="total">    0.18    0.18</time>
   <energy>
    <i name="alphaZ">     74.07565178 </i>
    <i name="ewald">  -1267.35653889 </i>
    <i name="hartreedc">   -685.67374668 </i>
    <i name="XCdc">     71.09017917 </i>
    <i name="pawpsdc">   2127.95363152 </i>
    <i name="pawaedc">  -2302.52367919 </i>
    <i name="eentropy">      0.00000000 </i>
    <i name="bandstr">    -49.32506109 </i>
    <i name="atom">   2024.06173478 </i>
    <i name="e_fr_energy">     -7.69782861 </i>
    <i name="e_wo_entrp">     -7.69782861 </i>
    <i name="e_0_energy">     -7.69782861 </i>
   </energy>
  </scstep>
  <scstep>
   <time name="dav">    0.10    0.10</time>
   <time name="total">    0.18    0.18</time>
   <energy>
    <i name="e_fr_energy">     -7.59888105 </i>
    <i name="e_wo_entrp">     -7.59888105 </i>
    <i name="e_0_energy">     -7.59888105 </i>
   </energy>
  </scstep>
  <scstep>
   <time name="dav">    0.11    0.11</time>
   <time name="total">    0.18    0.18</time>
   <energy>
    <i name="e_fr_energy">     -7.58776907 </i>
    <i name="e_wo_entrp">     -7.58776907 </i>
    <i name="e_0_energy">     -7.58776907 </i>
   </energy>
  </scstep>
  <scstep>
   <time name="dav">    0.10    0.10</time>
   <time name="total">    0.18    0.18</time>
   <energy>
    <i name="e_fr_energy">     -7.58497895 </i>
    <i name="e_wo_entrp">     -7.58497895 </i>
    <i name="e_0_energy">     -7.58497895 </i>
   </energy>
  </scstep>
  <scstep>
   <time name="dav">    0.13    0.13</time>
   <time name="total">    0.20    0.20</time>
   <energy>
    <i name="e_fr_energy">     -7.58454780 </i>
    <i name="e_wo_entrp">     -7.58454780 </i>
    <i name="e_0_energy">     -7.58454780 </i>
   </energy>
  </scstep>
  <scstep>
   <time name="dav">    0.10    0.10</time>
   <time name="total">    0.17    0.17</time>
   <energy>
    <i name="e_fr_energy">     -7.58451606 </i>
    <i name="e_wo_entrp">     -7.58451606 </i>
    <i name="e_0_energy">     -7.58451606 </i>
   </energy>
  </scstep>
  <scstep>
   <time name="dav">    0.09    0.10</time>
   <time name="total">    0.17    0.17</time>
   <energy>
    <i name="e_fr_energy">     -7.58451622 </i>
    <i name="e_wo_entrp">     -7.58451622 </i>
    <i name="e_0_energy">     -7.58451622 </i>
   </energy>
  </scstep>
  <scstep>
   <time name="dav">    0.10    0.10</time>
   <time name="total">    0.17    0.17</time>
   <energy>
    <i name="e_fr_energy">     -7.58451604 </i>
    <i name="e_wo_entrp">     -7.58451604 </i>
    <i name="e_0_energy">     -7.58451604 </i>
   </energy>
  </scstep>
  <scstep>
   <time name="dav">    0.07    0.07</time>
   <time name="total">    0.14    0.14</time>
   <energy>
    <i name="e_fr_energy">     -7.58451614 </i>
    <i name="e_wo_entrp">     -7.58451614 </i>
    <i name="e_0_energy">     -7.58451614 </i>
   </energy>
  </scstep>
  <scstep>
   <time name="dav">    0.06    0.06</time>
   <time name="total">    0.12    0.12</time>
   <energy>
    <i name="alphaZ">     74.07565178 </i>
    <i name="ewald">  -1267.35653889 </i>
    <i name="hartreedc">   -674.34437682 </i>
    <i name="XCdc">     70.53949797 </i>
    <i name="pawpsdc">   2157.54613153 </i>
    <i name="pawaedc">  -2332.29002573 </i>
    <i name="eentropy">      0.00000000 </i>
    <i name="bandstr">    -59.81659075 </i>
    <i name="atom">   2024.06173478 </i>
    <i name="e_fr_energy">     -7.58451613 </i>
    <i name="e_wo_entrp">     -7.58451613 </i>
    <i name="e_0_energy">     -7.58451613 </i>
   </energy>
  </scstep>
  <structure>
   <crystal>
    <varray name="basis" >
     <v>      -0.00000000       2.67222688       2.67222688 </v>
     <v>       2.67222688       0.00000000       2.67222688 </v>
     <v>       2.67222688       2.67222688      -0.00000000 </v>
    </varray>
    <i name="volume">     38.16365664 </i>
    <varray name="rec_basis" >
     <v>      -0.18710986       0.18710986       0.18710986 </v>
     <v>       0.18710986      -0.18710986       0.18710986 </v>
     <v>       0.18710986       0.18710986      -0.18710986 </v>
    </varray>
   </crystal>
   <varray name="positions" >
    <v>       0.00000000       0.00000000       0.00000000 </v>
    <v>       0.25000000       0.25000000       0.25000000 </v>
   </varray>
  </structure>
  <varray name="forces" >
   <v>      -0.00000000      -0.00000000      -0.00000000 </v>
   <v>       0.00000000       0.00000000       0.00000000 </v>
  </varray>
  <varray name="stress" >
   <v>       5.32989373       0.00000000       0.00000000 </v>
   <v>       0.00000000       5.32989373      -0.00000000 </v>
   <v>       0.00000000       0.00000000       5.32989373 </v>
  </varray>
  <energy>
   <i name="e_fr_energy">     -7.58451613 </i>
   <i name="e_wo_entrp">     -7.58451613 </i>
   <i name="e_0_energy">     -7.58451613 </i>
  </energy>
  <time name="totalsc">    2.17    2.18</time>
 </calculation>
 <calculation>
  <scstep>
   <time name="dav">    0.10    0.10</time>
   <time name="total">    0.17    0.18</time>
   <energy>
    <i name="alphaZ">     73.59860457 </i>
    <i name="ewald">  -1264.63008559 </i>
    <i name="hartreedc">   -672.89359910 </i>
    <i name="XCdc">     70.36800087 </i>
    <i name="pawpsdc">   2157.55243605 </i>
    <i name="pawaedc">  -2332.29638615 </i>
    <i name="eentropy">      0.00000000 </i>
    <i name="bandstr">    -63.35364260 </i>
    <i name="atom">   2024.06173478 </i>
    <i name="e_fr_energy">     -7.59293718 </i>
    <i name="e_wo_entrp">     -7.59293718 </i>
    <i name="e_0_energy">     -7.59293718 </i>
   </energy>
  </scstep>
  <scstep>
   <time name="dav">    0.10    0.10</time>
   <time name="total">    0.18    0.18</time>
   <energy>
    <i name="e_fr_energy">     -7.58596852 </i>
    <i name="e_wo_entrp">     -7.58596852 </i>
    <i name="e_0_energy">     -7.58596852 </i>
   </energy>
  </scstep>
  <scstep>
   <time name="dav">    0.09    0.09</time>
   <time name="total">    0.17    0.17</time>
   <energy>
    <i name="e_fr_energy">     -7.58515643 </i>
    <i name="e_wo_entrp">     -7.58515643 </i>
    <i name="e_0_energy">     -7.58515643 </i>
   </energy>
  </scstep>
  <scstep>
   <time name="dav">    0.10    0.10</time>
   <time name="total">    0.17    0.17</time>
   <energy>
    <i name="e_fr_energy">     -7.58495670 </i>
    <i name="e_wo_entrp">     -7.58495670 </i>
    <i name="e_0_energy">     -7.58495670 </i>
   </energy>
  </scstep>
  <scstep>
   <time name="dav">    0.12    0.12</time>
   <time name="total">    0.20    0.20</time>
   <energy>
    <i name="e_fr_energy">     -7.58492399 </i>
    <i name="e_wo_entrp">     -7.58492399 </i>
    <i name="e_0_energy">     -7.58492399 </i>
   </energy>
  </scstep>
  <scstep>
   <time name="dav">    0.10    0.10</time>
   <time name="total">    0.17    0.17</time>
   <energy>
    <i name="e_fr_energy">     -7.58492372 </i>
    <i name="e_wo_entrp">     -7.58492372 </i>
    <i name="e_0_energy">     -7.58492372 </i>
   </energy>
  </scstep>
  <scstep>
   <time name="dav">    0.10    0.10</time>
   <time name="total">    0.17    0.17</time>
   <energy>
    <i name="e_fr_energy">     -7.58492402 </i>
    <i name="e_wo_entrp">     -7.58492402 </i>
    <i name="e_0_energy">     -7.58492402 </i>
   </energy>
  </scstep>
  <scstep>
   <time name="dav">    0.06    0.06</time>
   <time name="total">    0.12    0.12</time>
   <energy>
    <i name="alphaZ">     73.59860457 </i>
    <i name="ewald">  -1264.63008559 </i>
    <i name="hartreedc">   -675.92673804 </i>
    <i name="XCdc">     70.51530779 </i>
    <i name="pawpsdc">   2149.42842148 </i>
    <i name="pawaedc">  -2324.12438042 </i>
    <i name="eentropy">      0.00000000 </i>
    <i name="bandstr">    -60.50778856 </i>
    <i name="atom">   2024.06173478 </i>
    <i name="e_fr_energy">     -7.58492400 </i>
    <i name="e_wo_entrp">     -7.58492400 </i>
    <i name="e_0_energy">     -7.58492400 </i>
   </energy>
  </scstep>
  <structure>
   <crystal>
    <varray name="basis" >
     <v>      -0.00000000       2.67798801       2.67798801 </v>
     <v>       2.67798801       0.00000000       2.67798801 </v>
     <v>       2.67798801       2.67798801      -0.00000000 </v>
    </varray>
    <i name="volume">     38.41102364 </i>
    <varray name="rec_basis" >
     <v>      -0.18670733       0.18670733       0.18670733 </v>
     <v>       0.18670733      -0.18670733       0.18670733 </v>
     <v>       0.18670733       0.18670733      -0.18670733 </v>
    </varray>
   </crystal>
   <varray name="positions" >
    <v>       0.00000000       0.00000000       0.00000000 </v>
    <v>       0.25000000       0.25000000       0.25000000 </v>
   </varray>
  </structure>
  <varray name="forces" >
   <v>      -0.00000000      -0.00000000      -0.00000000 </v>
   <v>       0.00000000       0.00000000       0.00000000 </v>
  </varray>
  <varray name="stress" >
   <v>       0.07757676       0.00000000      -0.00000000 </v>
   <v>      -0.00000000       0.07757676      -0.00000000 </v>
   <v>       0.00000000      -0.00000000       0.07757676 </v>
  </varray>
  <energy>
   <i name="e_fr_energy">     -7.58492400 </i>
   <i name="e_wo_entrp">     -7.58492400 </i>
   <i name="e_0_energy">     -7.58492400 </i>
  </energy>
  <time name="totalsc">    1.81    1.81</time>
  <eigenvalues>
   <array>
    <dimension dim="1">band</dimension>
    <dimension dim="2">kpoint</dimension>
    <dimension dim="3">spin</dimension>
    <field>eigene</field>
    <field>occ</field>
    <set>
     <set comment="spin 1">
      <set comment="kpoint 1">
       <r>  -11.0771    1.0000 </r>
       <r>   -4.2135    1.0000 </r>
       <r>   -4.2135    1.0000 </r>
       <r>   -4.2135    1.0000 </r>
       <r>   -3.6820    1.0000 </r>
       <r>   -3.6820    1.0000 </r>
       <r>    2.2705    1.0000 </r>
       <r>    2.2705    1.0000 </r>
       <r>    2.2706    1.0000 </r>
       <r>    4.3623    0.0000 </r>
       <r>    8.5555    0.0000 </r>
       <r>    8.5555    0.0000 </r>
       <r>    8.5555    0.0000 </r>
      </set>
      <set comment="kpoint 2">
       <r>  -10.8614    1.0000 </r>
       <r>   -4.2133    1.0000 </r>
       <r>   -4.1760    1.0000 </r>
       <r>   -4.1760    1.0000 </r>
       <r>   -3.6842    1.0000 </r>
       <r>   -3.6842    1.0000 </r>
       <r>    0.5189    1.0000 </r>
       <r>    2.0084    1.0000 </r>
       <r>    2.0084    1.0000 </r>
       <r>    5.4832    0.0000 </r>
       <r>    8.5589    0.0000 </r>
       <r>    8.9749    0.0000 </r>
       <r>    8.9749    0.0000 </r>
      </set>
      <set comment="kpoint 3">
       <r>  -10.3686    1.0000 </r>
       <r>   -4.1137    1.0000 </r>
       <r>   -4.1137    1.0000 </r>
       <r>   -4.0699    1.0000 </r>
       <r>   -3.6695    1.0000 </r>
       <r>   -3.6695    1.0000 </r>
       <r>   -1.7669    1.0000 </r>
       <r>    1.5562    1.0000 </r>
       <r>    1.5562    1.0000 </r>
       <r>    5.6508    0.0000 </r>
       <r>    9.2160    0.0000 </r>
       <r>    9.2160    0.0000 </r>
       <r>   10.0703    0.0000 </r>
      </set>
      <set comment="kpoint 4">
       <r>  -10.0803    1.0000 </r>
       <r>   -4.0922    1.0000 </r>
       <r>   -4.0922    1.0000 </r>
       <r>   -3.6495    1.0000 </r>
       <r>   -3.6495    1.0000 </r>
       <r>   -3.4769    1.0000 </r>
       <r>   -3.2700    1.0000 </r>
       <r>    1.3538    1.0000 </r>
       <r>    1.3538    1.0000 </r>
       <r>    5.5131    0.0000 </r>
       <r>    9.0846    0.0000 </r>
       <r>    9.0846    0.0000 </r>
       <r>   11.0653    0.0000 </r>
      </set>
      <set comment="kpoint 5">
       <r>  -10.7893    1.0000 </r>
       <r>   -4.2549    1.0000 </r>
       <r>   -4.1410    1.0000 </r>
       <r>   -4.1410    1.0000 </r>
       <r>   -3.7117    1.0000 </r>
       <r>   -3.6614    1.0000 </r>
       <r>    0.6503    1.0000 </r>
       <r>    1.5553    1.0000 </r>
       <r>    1.5553    1.0000 </r>
       <r>    6.1161    0.0000 </r>
       <r>    7.4154    0.0000 </r>
       <r>    9.6711    0.0000 </r>
       <r>    9.6712    0.0000 </r>
      </set>
      <set comment="kpoint 6">
       <r>  -10.3842    1.0000 </r>
       <r>   -4.2189    1.0000 </r>
       <r>   -4.0665    1.0000 </r>
       <r>   -4.0560    1.0000 </r>
       <r>   -3.7045    1.0000 </r>
       <r>   -3.6440    1.0000 </r>
       <r>   -1.0638    1.0000 </r>
       <r>    0.9776    1.0000 </r>
       <r>    1.0498    1.0000 </r>
       <r>    6.5918    0.0000 </r>
       <r>    7.7562    0.0000 </r>
       <r>    9.6393    0.0000 </r>
       <r>   10.3217    0.0000 </r>
      </set>
      <set comment="kpoint 7">
       <r>  -10.0064    1.0000 </r>
       <r>   -4.1053    1.0000 </r>
       <r>   -4.0342    1.0000 </r>
       <r>   -3.8071    1.0000 </r>
       <r>   -3.6436    1.0000 </r>
       <r>   -3.5252    1.0000 </r>
       <r>   -2.7385    1.0000 </r>
       <r>    0.3433    1.0000 </r>
       <r>    0.9466    1.0000 </r>
       <r>    6.5129    0.0000 </r>
       <r>    8.3703    0.0000 </r>
       <r>   10.0395    0.0000 </r>
       <r>   10.6421    0.0000 </r>
      </set>
      <set comment="kpoint 8">
       <r>  -10.1034    1.0000 </r>
       <r>   -4.0903    1.0000 </r>
       <r>   -4.0587    1.0000 </r>
       <r>   -3.8936    1.0000 </r>
       <r>   -3.6855    1.0000 </r>
       <r>   -3.6164    1.0000 </r>
       <r>   -2.2530    1.0000 </r>
       <r>    0.1407    1.0000 </r>
       <r>    1.3228    1.0000 </r>
       <r>    6.7009    0.0000 </r>
       <r>    8.6046    0.0000 </r>
       <r>    9.7610    0.0000 </r>
       <r>   10.2707    0.0000 </r>
      </set>
      <set comment="kpoint 9">
       <r>  -10.5491    1.0000 </r>
       <r>   -4.1827    1.0000 </r>
       <r>   -4.1287    1.0000 </r>
       <r>   -4.1140    1.0000 </r>
       <r>   -3.7053    1.0000 </r>
       <r>   -3.6559    1.0000 </r>
       <r>   -0.5720    1.0000 </r>
       <r>    0.7655    1.0000 </r>
       <r>    1.8686    1.0000 </r>
       <r>    6.5440    0.0000 </r>
       <r>    8.4384    0.0000 </r>
       <r>    9.3329    0.0000 </r>
       <r>    9.3550    0.0000 </r>
      </set>
      <set comment="kpoint 10">
       <r>  -10.1305    1.0000 </r>
       <r>   -4.2929    1.0000 </r>
       <r>   -3.9625    1.0000 </r>
       <r>   -3.9625    1.0000 </r>
       <r>   -3.6989    1.0000 </r>
       <r>   -3.6207    1.0000 </r>
       <r>   -1.3076    1.0000 </r>
       <r>    0.4213    1.0000 </r>
       <r>    0.4213    1.0000 </r>
       <r>    5.9894    0.0000 </r>
       <r>    6.6839    0.0000 </r>
       <r>   11.6487    0.0000 </r>
       <r>   12.0981    0.0000 </r>
      </set>
      <set comment="kpoint 11">
       <r>   -9.8393    1.0000 </r>
       <r>   -4.2042    1.0000 </r>
       <r>   -3.9103    1.0000 </r>
       <r>   -3.8714    1.0000 </r>
       <r>   -3.6221    1.0000 </r>
       <r>   -3.4956    1.0000 </r>
       <r>   -2.2279    1.0000 </r>
       <r>   -0.4620    1.0000 </r>
       <r>    0.2418    1.0000 </r>
       <r>    6.0719    0.0000 </r>
       <r>    7.3033    0.0000 </r>
       <r>   11.3741    0.0000 </r>
       <r>   12.3240    0.0000 </r>
      </set>
      <set comment="kpoint 12">
       <r>   -9.8291    1.0000 </r>
       <r>   -4.1112    1.0000 </r>
       <r>   -3.9557    1.0000 </r>
       <r>   -3.7481    1.0000 </r>
       <r>   -3.6666    1.0000 </r>
       <r>   -3.3966    1.0000 </r>
       <r>   -2.4954    1.0000 </r>
       <r>   -1.0627    1.0000 </r>
       <r>    0.6535    1.0000 </r>
       <r>    6.5710    0.0000 </r>
       <r>    8.8632    0.0000 </r>
       <r>   10.9952    0.0000 </r>
       <r>   11.2805    0.0000 </r>
      </set>
      <set comment="kpoint 13">
       <r>   -9.7443    1.0000 </r>
       <r>   -4.2802    1.0000 </r>
       <r>   -3.8481    1.0000 </r>
       <r>   -3.8481    1.0000 </r>
       <r>   -3.6005    1.0000 </r>
       <r>   -3.4573    1.0000 </r>
       <r>   -2.4449    1.0000 </r>
       <r>   -0.0796    1.0000 </r>
       <r>   -0.0796    1.0000 </r>
       <r>    5.4454    0.0000 </r>
       <r>    6.2285    0.0000 </r>
       <r>   13.2930    0.0000 </r>
       <r>   14.3300    0.0000 </r>
      </set>
      <set comment="kpoint 14">
       <r>  -10.0255    1.0000 </r>
       <r>   -4.1346    1.0000 </r>
       <r>   -4.0268    1.0000 </r>
       <r>   -3.9077    1.0000 </r>
       <r>   -3.6596    1.0000 </r>
       <r>   -3.6064    1.0000 </r>
       <r>   -1.8427    1.0000 </r>
       <r>   -0.3156    1.0000 </r>
       <r>    0.6654    1.0000 </r>
       <r>    7.5273    0.0000 </r>
       <r>    7.6225    0.0000 </r>
       <r>    9.1491    0.0000 </r>
       <r>   11.9121    0.0000 </r>
      </set>
      <set comment="kpoint 15">
       <r>   -9.8290    1.0000 </r>
       <r>   -4.0829    1.0000 </r>
       <r>   -3.9819    1.0000 </r>
       <r>   -3.7432    1.0000 </r>
       <r>   -3.6959    1.0000 </r>
       <r>   -3.3509    1.0000 </r>
       <r>   -2.6100    1.0000 </r>
       <r>   -0.6981    1.0000 </r>
       <r>    0.2737    1.0000 </r>
       <r>    7.5829    0.0000 </r>
       <r>    8.0941    0.0000 </r>
       <r>    9.8516    0.0000 </r>
       <r>   11.6697    0.0000 </r>
      </set>
      <set comment="kpoint 16">
       <r>   -9.7394    1.0000 </r>
       <r>   -4.1390    1.0000 </r>
       <r>   -3.9002    1.0000 </r>
       <r>   -3.8114    1.0000 </r>
       <r>   -3.6586    1.0000 </r>
       <r>   -3.3020    1.0000 </r>
       <r>   -2.4835    1.0000 </r>
       <r>   -0.5284    1.0000 </r>
       <r>   -0.4758    1.0000 </r>
       <r>    6.9474    0.0000 </r>
       <r>    7.5999    0.0000 </r>
       <r>   11.2496    0.0000 </r>
       <r>   11.2586    0.0000 </r>
      </set>
     </set>
    </set>
   </array>
  </eigenvalues>
  <separator name="orbital magnetization" >
   <v name="MAGDIPOLOUT">      0.00000000      0.00000000      0.00000000</v>
  </separator>
  <dos>
   <i name="efermi">      2.28438591 </i>
   <total>
    <array>
     <dimension dim="1">gridpoints</dimension>
     <dimension dim="2">spin</dimension>
     <field>energy</field>
     <field>total</field>
     <field>integrated</field>
     <set>
      <set comment="spin 1">
       <r>   -12.3475     0.0000     0.0000 </r>
       <r>   -12.2543     0.0000     0.0000 </r>
       <r>   -12.1611     0.0000     0.0000 </r>
       <r>   -12.0680     0.0000     0.0000 </r>
       <r>   -11.9748     0.0000     0.0000 </r>
       <r>   -11.8817     0.0000     0.0000 </r>
       <r>   -11.7885     0.0000     0.0000 </r>
       <r>   -11.6953     0.0000     0.0000 </r>
       <r>   -11.6022     0.0000     0.0000 </r>
       <r>   -11.5090     0.0000     0.0000 </r>
       <r>   -11.4159     0.0000     0.0000 </r>
       <r>   -11.3227     0.0000     0.0000 </r>
       <r>   -11.2295     0.0000     0.0000 </r>
       <r>   -11.1364     0.0000     0.0000 </r>
       <r>   -11.0432     0.0095     0.0001 </r>
       <r>   -10.9501     0.1339     0.0057 </r>
       <r>   -10.8569     0.3826     0.0295 </r>
       <r>   -10.7637     0.4264     0.0656 </r>
       <r>   -10.6706     0.5410     0.1106 </r>
       <r>   -10.5774     0.6663     0.1668 </r>
       <r>   -10.4843     0.8180     0.2354 </r>
       <r>   -10.3911     1.0418     0.3215 </r>
       <r>   -10.2980     1.3288     0.4314 </r>
       <r>   -10.2048     1.6775     0.5710 </r>
       <r>   -10.1116     2.0883     0.7459 </r>
       <r>   -10.0185     3.6694     1.0370 </r>
       <r>    -9.9253     3.4478     1.3539 </r>
       <r>    -9.8322     5.2853     1.6923 </r>
       <r>    -9.7390     0.7951     2.0000 </r>
       <r>    -9.6458     0.0000     2.0000 </r>
       <r>    -9.5527     0.0000     2.0000 </r>
       <r>    -9.4595     0.0000     2.0000 </r>
       <r>    -9.3664     0.0000     2.0000 </r>
       <r>    -9.2732     0.0000     2.0000 </r>
       <r>    -9.1800     0.0000     2.0000 </r>
       <r>    -9.0869     0.0000     2.0000 </r>
       <r>    -8.9937     0.0000     2.0000 </r>
       <r>    -8.9006     0.0000     2.0000 </r>
       <r>    -8.8074     0.0000     2.0000 </r>
       <r>    -8.7142     0.0000     2.0000 </r>
       <r>    -8.6211     0.0000     2.0000 </r>
       <r>    -8.5279     0.0000     2.0000 </r>
       <r>    -8.4348     0.0000     2.0000 </r>
       <r>    -8.3416     0.0000     2.0000 </r>
       <r>    -8.2484     0.0000     2.0000 </r>
       <r>    -8.1553     0.0000     2.0000 </r>
       <r>    -8.0621     0.0000     2.0000 </r>
       <r>    -7.9690     0.0000     2.0000 </r>
       <r>    -7.8758     0.0000     2.0000 </r>
       <r>    -7.7826     0.0000     2.0000 </r>
       <r>    -7.6895     0.0000     2.0000 </r>
       <r>    -7.5963     0.0000     2.0000 </r>
       <r>    -7.5032     0.0000     2.0000 </r>
       <r>    -7.4100     0.0000     2.0000 </r>
       <r>    -7.3169     0.0000     2.0000 </r>
       <r>    -7.2237     0.0000     2.0000 </r>
       <r>    -7.1305     0.0000     2.0000 </r>
       <r>    -7.0374     0.0000     2.0000 </r>
       <r>    -6.9442     0.0000     2.0000 </r>
       <r>    -6.8511     0.0000     2.0000 </r>
       <r>    -6.7579     0.0000     2.0000 </r>
       <r>    -6.6647     0.0000     2.0000 </r>
       <r>    -6.5716     0.0000     2.0000 </r>
       <r>    -6.4784     0.0000     2.0000 </r>
       <r>    -6.3853     0.0000     2.0000 </r>
       <r>    -6.2921     0.0000     2.0000 </r>
       <r>    -6.1989     0.0000     2.0000 </r>
       <r>    -6.1058     0.0000     2.0000 </r>
       <r>    -6.0126     0.0000     2.0000 </r>
       <r>    -5.9195     0.0000     2.0000 </r>
       <r>    -5.8263     0.0000     2.0000 </r>
       <r>    -5.7331     0.0000     2.0000 </r>
       <r>    -5.6400     0.0000     2.0000 </r>
       <r>    -5.5468     0.0000     2.0000 </r>
       <r>    -5.4537     0.0000     2.0000 </r>
       <r>    -5.3605     0.0000     2.0000 </r>
       <r>    -5.2673     0.0000     2.0000 </r>
       <r>    -5.1742     0.0000     2.0000 </r>
       <r>    -5.0810     0.0000     2.0000 </r>
       <r>    -4.9879     0.0000     2.0000 </r>
       <r>    -4.8947     0.0000     2.0000 </r>
       <r>    -4.8015     0.0000     2.0000 </r>
       <r>    -4.7084     0.0000     2.0000 </r>
       <r>    -4.6152     0.0000     2.0000 </r>
       <r>    -4.5221     0.0000     2.0000 </r>
       <r>    -4.4289     0.0000     2.0000 </r>
       <r>    -4.3358     0.0000     2.0000 </r>
       <r>    -4.2426     4.0218     2.0683 </r>
       <r>    -4.1494    15.0706     3.0354 </r>
       <r>    -4.0563    22.0608     4.9600 </r>
       <r>    -3.9631    10.9016     6.1361 </r>
       <r>    -3.8700     8.4521     6.9913 </r>
       <r>    -3.7768     7.6268     7.8110 </r>
       <r>    -3.6836    38.9958     8.6157 </r>
       <r>    -3.5905    10.8429    10.7718 </r>
       <r>    -3.4973     4.9482    11.3228 </r>
       <r>    -3.4042     3.7475    11.7640 </r>
       <r>    -3.3110     0.7673    11.9964 </r>
       <r>    -3.2178     0.0028    12.0000 </r>
       <r>    -3.1247     0.0221    12.0011 </r>
       <r>    -3.0315     0.0595    12.0047 </r>
       <r>    -2.9384     0.1151    12.0127 </r>
       <r>    -2.8452     0.1889    12.0267 </r>
       <r>    -2.7520     0.2809    12.0485 </r>
       <r>    -2.6589     0.8302    12.0970 </r>
       <r>    -2.5657     2.4857    12.2308 </r>
       <r>    -2.4726     2.2163    12.4724 </r>
       <r>    -2.3794     2.2972    12.6833 </r>
       <r>    -2.2862     1.9347    12.8846 </r>
       <r>    -2.1931     1.2569    13.0293 </r>
       <r>    -2.0999     0.9675    13.1322 </r>
       <r>    -2.0068     0.7588    13.2120 </r>
       <r>    -1.9136     0.6306    13.2761 </r>
       <r>    -1.8204     0.5808    13.3320 </r>
       <r>    -1.7273     0.5553    13.3849 </r>
       <r>    -1.6341     0.5300    13.4355 </r>
       <r>    -1.5410     0.5047    13.4837 </r>
       <r>    -1.4478     0.4796    13.5295 </r>
       <r>    -1.3547     0.4545    13.5730 </r>
       <r>    -1.2615     0.4273    13.6142 </r>
       <r>    -1.1683     0.3843    13.6521 </r>
       <r>    -1.0752     0.3232    13.6852 </r>
       <r>    -0.9820     0.3255    13.7143 </r>
       <r>    -0.8889     0.4586    13.7499 </r>
       <r>    -0.7957     0.7202    13.8038 </r>
       <r>    -0.7025     1.1102    13.8880 </r>
       <r>    -0.6094     1.7086    14.0248 </r>
       <r>    -0.5162     1.5937    14.1804 </r>
       <r>    -0.4231     1.8463    14.3610 </r>
       <r>    -0.3299     1.3526    14.5044 </r>
       <r>    -0.2367     1.3465    14.6292 </r>
       <r>    -0.1436     1.4205    14.7576 </r>
       <r>    -0.0504     1.5624    14.8961 </r>
       <r>     0.0427     1.7084    15.0486 </r>
       <r>     0.1359     1.8374    15.2139 </r>
       <r>     0.2291     1.9156    15.3889 </r>
       <r>     0.3222     1.9647    15.5695 </r>
       <r>     0.4154     1.9956    15.7543 </r>
       <r>     0.5085     1.9973    15.9405 </r>
       <r>     0.6017     1.9429    16.1241 </r>
       <r>     0.6949     1.9032    16.3030 </r>
       <r>     0.7880     1.8722    16.4789 </r>
       <r>     0.8812     1.8582    16.6525 </r>
       <r>     0.9743     1.9032    16.8264 </r>
       <r>     1.0675     1.8910    17.0036 </r>
       <r>     1.1607     1.8200    17.1770 </r>
       <r>     1.2538     1.6799    17.3406 </r>
       <r>     1.3470     1.4493    17.4877 </r>
       <r>     1.4401     1.0704    17.6040 </r>
       <r>     1.5333     0.8376    17.6917 </r>
       <r>     1.6264     0.7175    17.7638 </r>
       <r>     1.7196     0.6244    17.8262 </r>
       <r>     1.8128     0.5544    17.8809 </r>
       <r>     1.9059     0.4953    17.9300 </r>
       <r>     1.9991     0.3352    17.9697 </r>
       <r>     2.0922     0.1444    17.9914 </r>
       <r>     2.1854     0.0329    17.9991 </r>
       <r>     2.2786     0.0000    18.0000 </r>
       <r>     2.3717     0.0000    18.0000 </r>
       <r>     2.4649     0.0000    18.0000 </r>
       <r>     2.5580     0.0000    18.0000 </r>
       <r>     2.6512     0.0000    18.0000 </r>
       <r>     2.7444     0.0000    18.0000 </r>
       <r>     2.8375     0.0000    18.0000 </r>
       <r>     2.9307     0.0000    18.0000 </r>
       <r>     3.0238     0.0000    18.0000 </r>
       <r>     3.1170     0.0000    18.0000 </r>
       <r>     3.2102     0.0000    18.0000 </r>
       <r>     3.3033     0.0000    18.0000 </r>
       <r>     3.3965     0.0000    18.0000 </r>
       <r>     3.4896     0.0000    18.0000 </r>
       <r>     3.5828     0.0000    18.0000 </r>
       <r>     3.6760     0.0000    18.0000 </r>
       <r>     3.7691     0.0000    18.0000 </r>
       <r>     3.8623     0.0000    18.0000 </r>
       <r>     3.9554     0.0000    18.0000 </r>
       <r>     4.0486     0.0000    18.0000 </r>
       <r>     4.1418     0.0000    18.0000 </r>
       <r>     4.2349     0.0000    18.0000 </r>
       <r>     4.3281     0.0000    18.0000 </r>
       <r>     4.4212     0.0002    18.0000 </r>
       <r>     4.5144     0.0012    18.0001 </r>
       <r>     4.6075     0.0030    18.0002 </r>
       <r>     4.7007     0.0058    18.0007 </r>
       <r>     4.7939     0.0094    18.0014 </r>
       <r>     4.8870     0.0139    18.0024 </r>
       <r>     4.9802     0.0193    18.0040 </r>
       <r>     5.0733     0.0255    18.0060 </r>
       <r>     5.1665     0.0326    18.0087 </r>
       <r>     5.2597     0.0406    18.0121 </r>
       <r>     5.3528     0.0495    18.0163 </r>
       <r>     5.4460     0.0592    18.0214 </r>
       <r>     5.5391     0.0833    18.0277 </r>
       <r>     5.6323     0.1621    18.0387 </r>
       <r>     5.7255     0.2877    18.0595 </r>
       <r>     5.8186     0.4276    18.0927 </r>
       <r>     5.9118     0.5807    18.1396 </r>
       <r>     6.0049     0.7437    18.2013 </r>
       <r>     6.0981     0.8346    18.2741 </r>
       <r>     6.1913     1.0399    18.3615 </r>
       <r>     6.2844     1.2328    18.4675 </r>
       <r>     6.3776     1.4166    18.5909 </r>
       <r>     6.4707     1.5916    18.7311 </r>
       <r>     6.5639     1.7370    18.8870 </r>
       <r>     6.6571     1.8196    19.0497 </r>
       <r>     6.7502     1.8034    19.2225 </r>
       <r>     6.8434     1.6408    19.3828 </r>
       <r>     6.9365     1.5023    19.5290 </r>
       <r>     7.0297     1.4258    19.6651 </r>
       <r>     7.1229     1.3607    19.7948 </r>
       <r>     7.2160     1.3009    19.9188 </r>
       <r>     7.3092     1.2501    20.0374 </r>
       <r>     7.4023     1.2405    20.1536 </r>
       <r>     7.4955     1.2022    20.2676 </r>
       <r>     7.5886     0.8901    20.3706 </r>
       <r>     7.6818     1.0755    20.4614 </r>
       <r>     7.7750     1.2781    20.5718 </r>
       <r>     7.8681     1.3686    20.6954 </r>
       <r>     7.9613     1.4154    20.8254 </r>
       <r>     8.0544     1.4188    20.9577 </r>
       <r>     8.1476     1.4340    21.0897 </r>
       <r>     8.2408     1.5415    21.2277 </r>
       <r>     8.3339     1.7259    21.3793 </r>
       <r>     8.4271     1.7291    21.5445 </r>
       <r>     8.5202     1.4700    21.6955 </r>
       <r>     8.6134     0.9639    21.8074 </r>
       <r>     8.7066     0.6679    21.8826 </r>
       <r>     8.7997     0.4874    21.9355 </r>
       <r>     8.8929     0.4177    21.9769 </r>
       <r>     8.9860     0.3947    22.0145 </r>
       <r>     9.0792     0.4315    22.0525 </r>
       <r>     9.1724     0.5840    22.0982 </r>
       <r>     9.2655     1.0085    22.1708 </r>
       <r>     9.3587     1.5251    22.2887 </r>
       <r>     9.4518     1.9117    22.4503 </r>
       <r>     9.5450     2.1002    22.6387 </r>
       <r>     9.6382     2.0907    22.8355 </r>
       <r>     9.7313     1.7290    23.0034 </r>
       <r>     9.8245     1.7403    23.1622 </r>
       <r>     9.9176     1.8787    23.3342 </r>
       <r>    10.0108     1.4259    23.4930 </r>
       <r>    10.1040     1.1550    23.6047 </r>
       <r>    10.1971     1.2107    23.7143 </r>
       <r>    10.2903     1.3353    23.8328 </r>
       <r>    10.3834     1.2961    23.9557 </r>
       <r>    10.4766     1.3034    24.0763 </r>
       <r>    10.5697     1.3839    24.2009 </r>
       <r>    10.6629     1.4538    24.3355 </r>
       <r>    10.7561     1.2815    24.4626 </r>
       <r>    10.8492     1.1445    24.5754 </r>
       <r>    10.9424     1.0429    24.6770 </r>
       <r>    11.0355     0.9791    24.7708 </r>
       <r>    11.1287     0.9645    24.8611 </r>
       <r>    11.2219     0.9757    24.9513 </r>
       <r>    11.3150     1.1155    25.0467 </r>
       <r>    11.4082     1.1917    25.1529 </r>
       <r>    11.5013     1.3133    25.2705 </r>
       <r>    11.5945     1.3221    25.3941 </r>
       <r>    11.6877     1.1877    25.5130 </r>
       <r>    11.7808     0.9222    25.6108 </r>
       <r>    11.8740     0.7258    25.6870 </r>
       <r>    11.9671     0.5955    25.7481 </r>
       <r>    12.0603     0.5176    25.7995 </r>
       <r>    12.1535     0.4662    25.8457 </r>
       <r>    12.2466     0.3390    25.8838 </r>
       <r>    12.3398     0.1637    25.9064 </r>
       <r>    12.4329     0.1446    25.9208 </r>
       <r>    12.5261     0.1269    25.9334 </r>
       <r>    12.6193     0.1106    25.9445 </r>
       <r>    12.7124     0.0956    25.9541 </r>
       <r>    12.8056     0.0819    25.9623 </r>
       <r>    12.8987     0.0696    25.9694 </r>
       <r>    12.9919     0.0587    25.9753 </r>
       <r>    13.0851     0.0491    25.9803 </r>
       <r>    13.1782     0.0409    25.9845 </r>
       <r>    13.2714     0.0340    25.9880 </r>
       <r>    13.3645     0.0283    25.9909 </r>
       <r>    13.4577     0.0231    25.9933 </r>
       <r>    13.5508     0.0184    25.9952 </r>
       <r>    13.6440     0.0143    25.9967 </r>
       <r>    13.7372     0.0107    25.9979 </r>
       <r>    13.8303     0.0076    25.9987 </r>
       <r>    13.9235     0.0050    25.9993 </r>
       <r>    14.0166     0.0030    25.9997 </r>
       <r>    14.1098     0.0015    25.9999 </r>
       <r>    14.2030     0.0005    26.0000 </r>
       <r>    14.2961     0.0000    26.0000 </r>
       <r>    14.3893     0.0000    26.0000 </r>
       <r>    14.4824     0.0000    26.0000 </r>
       <r>    14.5756     0.0000    26.0000 </r>
       <r>    14.6688     0.0000    26.0000 </r>
       <r>    14.7619     0.0000    26.0000 </r>
       <r>    14.8551     0.0000    26.0000 </r>
       <r>    14.9482     0.0000    26.0000 </r>
       <r>    15.0414     0.0000    26.0000 </r>
       <r>    15.1346     0.0000    26.0000 </r>
       <r>    15.2277     0.0000    26.0000 </r>
       <r>    15.3209     0.0000    26.0000 </r>
       <r>    15.4140     0.0000    26.0000 </r>
       <r>    15.5072     0.0000    26.0000 </r>
       <r>    15.6004     0.0000    26.0000 </r>
      </set>
     </set>
    </array>
   </total>
   <partial>
    <array>
     <dimension dim="1">gridpoints</dimension>
     <dimension dim="2">spin</dimension>
     <dimension dim="3">ion</dimension>
     <field>energy</field>
     <field>  s  </field>
     <field>  p  </field>
     <field>  d  </field>
     <set>
      <set comment="ion 1">
       <set comment="spin 1">
        <r>   -12.3475     0.0000     0.0000     0.0000 </r>
        <r>   -12.2543     0.0000     0.0000     0.0000 </r>
        <r>   -12.1611     0.0000     0.0000     0.0000 </r>
        <r>   -12.0680     0.0000     0.0000     0.0000 </r>
        <r>   -11.9748     0.0000     0.0000     0.0000 </r>
        <r>   -11.8817     0.0000     0.0000     0.0000 </r>
        <r>   -11.7885     0.0000     0.0000     0.0000 </r>
        <r>   -11.6953     0.0000     0.0000     0.0000 </r>
        <r>   -11.6022     0.0000     0.0000     0.0000 </r>
        <r>   -11.5090     0.0000     0.0000     0.0000 </r>
        <r>   -11.4159     0.0000     0.0000     0.0000 </r>
        <r>   -11.3227     0.0000     0.0000     0.0000 </r>
        <r>   -11.2295     0.0000     0.0000     0.0000 </r>
        <r>   -11.1364     0.0000     0.0000     0.0000 </r>
        <r>   -11.0432     0.0009     0.0000     0.0000 </r>
        <r>   -10.9501     0.0132     0.0006     0.0006 </r>
        <r>   -10.8569     0.0373     0.0020     0.0018 </r>
        <r>   -10.7637     0.0361     0.0043     0.0043 </r>
        <r>   -10.6706     0.0428     0.0065     0.0068 </r>
        <r>   -10.5774     0.0499     0.0090     0.0096 </r>
        <r>   -10.4843     0.0567     0.0126     0.0140 </r>
        <r>   -10.3911     0.0608     0.0198     0.0236 </r>
        <r>   -10.2980     0.0667     0.0287     0.0358 </r>
        <r>   -10.2048     0.0743     0.0394     0.0507 </r>
        <r>   -10.1116     0.0830     0.0519     0.0684 </r>
        <r>   -10.0185     0.1008     0.1047     0.1461 </r>
        <r>    -9.9253     0.0689     0.1067     0.1515 </r>
        <r>    -9.8322     0.0572     0.1788     0.2595 </r>
        <r>    -9.7390     0.0048     0.0278     0.0417 </r>
        <r>    -9.6458     0.0000     0.0000     0.0000 </r>
        <r>    -9.5527     0.0000     0.0000     0.0000 </r>
        <r>    -9.4595     0.0000     0.0000     0.0000 </r>
        <r>    -9.3664     0.0000     0.0000     0.0000 </r>
        <r>    -9.2732     0.0000     0.0000     0.0000 </r>
        <r>    -9.1800     0.0000     0.0000     0.0000 </r>
        <r>    -9.0869     0.0000     0.0000     0.0000 </r>
        <r>    -8.9937     0.0000     0.0000     0.0000 </r>
        <r>    -8.9006     0.0000     0.0000     0.0000 </r>
        <r>    -8.8074     0.0000     0.0000     0.0000 </r>
        <r>    -8.7142     0.0000     0.0000     0.0000 </r>
        <r>    -8.6211     0.0000     0.0000     0.0000 </r>
        <r>    -8.5279     0.0000     0.0000     0.0000 </r>
        <r>    -8.4348     0.0000     0.0000     0.0000 </r>
        <r>    -8.3416     0.0000     0.0000     0.0000 </r>
        <r>    -8.2484     0.0000     0.0000     0.0000 </r>
        <r>    -8.1553     0.0000     0.0000     0.0000 </r>
        <r>    -8.0621     0.0000     0.0000     0.0000 </r>
        <r>    -7.9690     0.0000     0.0000     0.0000 </r>
        <r>    -7.8758     0.0000     0.0000     0.0000 </r>
        <r>    -7.7826     0.0000     0.0000     0.0000 </r>
        <r>    -7.6895     0.0000     0.0000     0.0000 </r>
        <r>    -7.5963     0.0000     0.0000     0.0000 </r>
        <r>    -7.5032     0.0000     0.0000     0.0000 </r>
        <r>    -7.4100     0.0000     0.0000     0.0000 </r>
        <r>    -7.3169     0.0000     0.0000     0.0000 </r>
        <r>    -7.2237     0.0000     0.0000     0.0000 </r>
        <r>    -7.1305     0.0000     0.0000     0.0000 </r>
        <r>    -7.0374     0.0000     0.0000     0.0000 </r>
        <r>    -6.9442     0.0000     0.0000     0.0000 </r>
        <r>    -6.8511     0.0000     0.0000     0.0000 </r>
        <r>    -6.7579     0.0000     0.0000     0.0000 </r>
        <r>    -6.6647     0.0000     0.0000     0.0000 </r>
        <r>    -6.5716     0.0000     0.0000     0.0000 </r>
        <r>    -6.4784     0.0000     0.0000     0.0000 </r>
        <r>    -6.3853     0.0000     0.0000     0.0000 </r>
        <r>    -6.2921     0.0000     0.0000     0.0000 </r>
        <r>    -6.1989     0.0000     0.0000     0.0000 </r>
        <r>    -6.1058     0.0000     0.0000     0.0000 </r>
        <r>    -6.0126     0.0000     0.0000     0.0000 </r>
        <r>    -5.9195     0.0000     0.0000     0.0000 </r>
        <r>    -5.8263     0.0000     0.0000     0.0000 </r>
        <r>    -5.7331     0.0000     0.0000     0.0000 </r>
        <r>    -5.6400     0.0000     0.0000     0.0000 </r>
        <r>    -5.5468     0.0000     0.0000     0.0000 </r>
        <r>    -5.4537     0.0000     0.0000     0.0000 </r>
        <r>    -5.3605     0.0000     0.0000     0.0000 </r>
        <r>    -5.2673     0.0000     0.0000     0.0000 </r>
        <r>    -5.1742     0.0000     0.0000     0.0000 </r>
        <r>    -5.0810     0.0000     0.0000     0.0000 </r>
        <r>    -4.9879     0.0000     0.0000     0.0000 </r>
        <r>    -4.8947     0.0000     0.0000     0.0000 </r>
        <r>    -4.8015     0.0000     0.0000     0.0000 </r>
        <r>    -4.7084     0.0000     0.0000     0.0000 </r>
        <r>    -4.6152     0.0000     0.0000     0.0000 </r>
        <r>    -4.5221     0.0000     0.0000     0.0000 </r>
        <r>    -4.4289     0.0000     0.0000     0.0000 </r>
        <r>    -4.3358     0.0000     0.0000     0.0000 </r>
        <r>    -4.2426     0.1274     0.0077     3.0256 </r>
        <r>    -4.1494     0.2012     0.0553    12.3619 </r>
        <r>    -4.0563     0.0850     0.0905    19.1243 </r>
        <r>    -3.9631     0.0742     0.0422     9.6015 </r>
        <r>    -3.8700     0.1027     0.0308     7.4181 </r>
        <r>    -3.7768     0.0928     0.0186     6.8126 </r>
        <r>    -3.6836     0.0608     0.0076    37.4696 </r>
        <r>    -3.5905     0.0753     0.0139    10.2190 </r>
        <r>    -3.4973     0.0825     0.0150     4.4504 </r>
        <r>    -3.4042     0.0676     0.0128     3.3401 </r>
        <r>    -3.3110     0.0093     0.0030     0.6944 </r>
        <r>    -3.2178     0.0004     0.0001     0.0005 </r>
        <r>    -3.1247     0.0033     0.0009     0.0042 </r>
        <r>    -3.0315     0.0088     0.0024     0.0114 </r>
        <r>    -2.9384     0.0171     0.0047     0.0221 </r>
        <r>    -2.8452     0.0281     0.0077     0.0363 </r>
        <r>    -2.7520     0.0417     0.0115     0.0540 </r>
        <r>    -2.6589     0.1344     0.0298     0.1614 </r>
        <r>    -2.5657     0.4905     0.0638     0.4223 </r>
        <r>    -2.4726     0.4267     0.0561     0.4089 </r>
        <r>    -2.3794     0.4544     0.0481     0.4653 </r>
        <r>    -2.2862     0.3744     0.0409     0.4091 </r>
        <r>    -2.1931     0.2247     0.0322     0.2701 </r>
        <r>    -2.0999     0.1662     0.0258     0.2151 </r>
        <r>    -2.0068     0.1241     0.0213     0.1749 </r>
        <r>    -1.9136     0.0983     0.0185     0.1496 </r>
        <r>    -1.8204     0.0882     0.0174     0.1386 </r>
        <r>    -1.7273     0.0831     0.0169     0.1321 </r>
        <r>    -1.6341     0.0780     0.0164     0.1255 </r>
        <r>    -1.5410     0.0730     0.0160     0.1189 </r>
        <r>    -1.4478     0.0681     0.0155     0.1123 </r>
        <r>    -1.3547     0.0632     0.0150     0.1057 </r>
        <r>    -1.2615     0.0580     0.0144     0.0985 </r>
        <r>    -1.1683     0.0507     0.0133     0.0874 </r>
        <r>    -1.0752     0.0409     0.0115     0.0718 </r>
        <r>    -0.9820     0.0355     0.0148     0.0658 </r>
        <r>    -0.8889     0.0344     0.0309     0.0747 </r>
        <r>    -0.7957     0.0368     0.0598     0.0977 </r>
        <r>    -0.7025     0.0428     0.1016     0.1347 </r>
        <r>    -0.6094     0.0526     0.1682     0.1811 </r>
        <r>    -0.5162     0.0501     0.1541     0.1725 </r>
        <r>    -0.4231     0.0488     0.1842     0.1862 </r>
        <r>    -0.3299     0.0420     0.1266     0.1507 </r>
        <r>    -0.2367     0.0413     0.1241     0.1531 </r>
        <r>    -0.1436     0.0409     0.1308     0.1614 </r>
        <r>    -0.0504     0.0407     0.1452     0.1747 </r>
        <r>     0.0427     0.0405     0.1601     0.1880 </r>
        <r>     0.1359     0.0402     0.1731     0.1994 </r>
        <r>     0.2291     0.0384     0.1812     0.2054 </r>
        <r>     0.3222     0.0356     0.1849     0.2092 </r>
        <r>     0.4154     0.0331     0.1868     0.2111 </r>
        <r>     0.5085     0.0308     0.1857     0.2109 </r>
        <r>     0.6017     0.0238     0.1807     0.2032 </r>
        <r>     0.6949     0.0211     0.1752     0.2006 </r>
        <r>     0.7880     0.0192     0.1704     0.1996 </r>
        <r>     0.8812     0.0176     0.1661     0.2014 </r>
        <r>     0.9743     0.0162     0.1657     0.2109 </r>
        <r>     1.0675     0.0134     0.1611     0.2123 </r>
        <r>     1.1607     0.0107     0.1518     0.2069 </r>
        <r>     1.2538     0.0084     0.1366     0.1940 </r>
        <r>     1.3470     0.0063     0.1140     0.1709 </r>
        <r>     1.4401     0.0045     0.0809     0.1296 </r>
        <r>     1.5333     0.0032     0.0608     0.1039 </r>
        <r>     1.6264     0.0023     0.0505     0.0905 </r>
        <r>     1.7196     0.0015     0.0419     0.0805 </r>
        <r>     1.8128     0.0009     0.0348     0.0735 </r>
        <r>     1.9059     0.0005     0.0285     0.0679 </r>
        <r>     1.9991     0.0001     0.0174     0.0475 </r>
        <r>     2.0922     0.0000     0.0074     0.0205 </r>
        <r>     2.1854     0.0000     0.0017     0.0047 </r>
        <r>     2.2786     0.0000     0.0000     0.0000 </r>
        <r>     2.3717     0.0000     0.0000     0.0000 </r>
        <r>     2.4649     0.0000     0.0000     0.0000 </r>
        <r>     2.5580     0.0000     0.0000     0.0000 </r>
        <r>     2.6512     0.0000     0.0000     0.0000 </r>
        <r>     2.7444     0.0000     0.0000     0.0000 </r>
        <r>     2.8375     0.0000     0.0000     0.0000 </r>
        <r>     2.9307     0.0000     0.0000     0.0000 </r>
        <r>     3.0238     0.0000     0.0000     0.0000 </r>
        <r>     3.1170     0.0000     0.0000     0.0000 </r>
        <r>     3.2102     0.0000     0.0000     0.0000 </r>
        <r>     3.3033     0.0000     0.0000     0.0000 </r>
        <r>     3.3965     0.0000     0.0000     0.0000 </r>
        <r>     3.4896     0.0000     0.0000     0.0000 </r>
        <r>     3.5828     0.0000     0.0000     0.0000 </r>
        <r>     3.6760     0.0000     0.0000     0.0000 </r>
        <r>     3.7691     0.0000     0.0000     0.0000 </r>
        <r>     3.8623     0.0000     0.0000     0.0000 </r>
        <r>     3.9554     0.0000     0.0000     0.0000 </r>
        <r>     4.0486     0.0000     0.0000     0.0000 </r>
        <r>     4.1418     0.0000     0.0000     0.0000 </r>
        <r>     4.2349     0.0000     0.0000     0.0000 </r>
        <r>     4.3281     0.0000     0.0000     0.0000 </r>
        <r>     4.4212     0.0000     0.0000     0.0000 </r>
        <r>     4.5144     0.0003     0.0000     0.0000 </r>
        <r>     4.6075     0.0007     0.0001     0.0000 </r>
        <r>     4.7007     0.0013     0.0001     0.0000 </r>
        <r>     4.7939     0.0022     0.0002     0.0000 </r>
        <r>     4.8870     0.0032     0.0004     0.0000 </r>
        <r>     4.9802     0.0044     0.0005     0.0001 </r>
        <r>     5.0733     0.0059     0.0007     0.0001 </r>
        <r>     5.1665     0.0075     0.0008     0.0001 </r>
        <r>     5.2597     0.0093     0.0011     0.0001 </r>
        <r>     5.3528     0.0114     0.0013     0.0002 </r>
        <r>     5.4460     0.0136     0.0015     0.0002 </r>
        <r>     5.5391     0.0175     0.0032     0.0008 </r>
        <r>     5.6323     0.0313     0.0089     0.0030 </r>
        <r>     5.7255     0.0534     0.0180     0.0068 </r>
        <r>     5.8186     0.0758     0.0289     0.0116 </r>
        <r>     5.9118     0.0980     0.0415     0.0174 </r>
        <r>     6.0049     0.1203     0.0554     0.0241 </r>
        <r>     6.0981     0.1457     0.0581     0.0246 </r>
        <r>     6.1913     0.1799     0.0736     0.0313 </r>
        <r>     6.2844     0.2127     0.0877     0.0380 </r>
        <r>     6.3776     0.2448     0.1005     0.0452 </r>
        <r>     6.4707     0.2765     0.1119     0.0529 </r>
        <r>     6.5639     0.2995     0.1214     0.0622 </r>
        <r>     6.6571     0.3021     0.1299     0.0740 </r>
        <r>     6.7502     0.3012     0.1263     0.0750 </r>
        <r>     6.8434     0.2733     0.1122     0.0706 </r>
        <r>     6.9365     0.2496     0.1000     0.0668 </r>
        <r>     7.0297     0.2335     0.0922     0.0662 </r>
        <r>     7.1229     0.2205     0.0855     0.0653 </r>
        <r>     7.2160     0.2100     0.0793     0.0637 </r>
        <r>     7.3092     0.2028     0.0739     0.0615 </r>
        <r>     7.4023     0.2021     0.0715     0.0591 </r>
        <r>     7.4955     0.1927     0.0708     0.0548 </r>
        <r>     7.5886     0.1429     0.0567     0.0329 </r>
        <r>     7.6818     0.1570     0.0780     0.0387 </r>
        <r>     7.7750     0.1690     0.1049     0.0446 </r>
        <r>     7.8681     0.1710     0.1165     0.0479 </r>
        <r>     7.9613     0.1657     0.1265     0.0495 </r>
        <r>     8.0544     0.1530     0.1349     0.0493 </r>
        <r>     8.1476     0.1416     0.1450     0.0500 </r>
        <r>     8.2408     0.1368     0.1642     0.0552 </r>
        <r>     8.3339     0.1342     0.1921     0.0643 </r>
        <r>     8.4271     0.1205     0.2063     0.0655 </r>
        <r>     8.5202     0.0935     0.1886     0.0560 </r>
        <r>     8.6134     0.0548     0.1242     0.0396 </r>
        <r>     8.7066     0.0298     0.1004     0.0272 </r>
        <r>     8.7997     0.0144     0.0893     0.0187 </r>
        <r>     8.8929     0.0081     0.0905     0.0137 </r>
        <r>     8.9860     0.0045     0.0999     0.0098 </r>
        <r>     9.0792     0.0019     0.1210     0.0080 </r>
        <r>     9.1724     0.0005     0.1659     0.0110 </r>
        <r>     9.2655     0.0011     0.2637     0.0257 </r>
        <r>     9.3587     0.0027     0.3678     0.0469 </r>
        <r>     9.4518     0.0051     0.4358     0.0648 </r>
        <r>     9.5450     0.0082     0.4556     0.0761 </r>
        <r>     9.6382     0.0121     0.4273     0.0808 </r>
        <r>     9.7313     0.0172     0.3215     0.0714 </r>
        <r>     9.8245     0.0232     0.3118     0.0715 </r>
        <r>     9.9176     0.0306     0.3298     0.0770 </r>
        <r>    10.0108     0.0277     0.2339     0.0574 </r>
        <r>    10.1040     0.0254     0.1761     0.0457 </r>
        <r>    10.1971     0.0288     0.1764     0.0479 </r>
        <r>    10.2903     0.0347     0.1830     0.0530 </r>
        <r>    10.3834     0.0339     0.1727     0.0524 </r>
        <r>    10.4766     0.0341     0.1676     0.0541 </r>
        <r>    10.5697     0.0364     0.1701     0.0593 </r>
        <r>    10.6629     0.0383     0.1735     0.0638 </r>
        <r>    10.7561     0.0327     0.1587     0.0565 </r>
        <r>    10.8492     0.0281     0.1466     0.0508 </r>
        <r>    10.9424     0.0245     0.1374     0.0466 </r>
        <r>    11.0355     0.0220     0.1311     0.0440 </r>
        <r>    11.1287     0.0210     0.1290     0.0437 </r>
        <r>    11.2219     0.0208     0.1293     0.0447 </r>
        <r>    11.3150     0.0230     0.1415     0.0534 </r>
        <r>    11.4082     0.0226     0.1478     0.0588 </r>
        <r>    11.5013     0.0238     0.1623     0.0660 </r>
        <r>    11.5945     0.0219     0.1677     0.0666 </r>
        <r>    11.6877     0.0176     0.1591     0.0588 </r>
        <r>    11.7808     0.0146     0.1301     0.0431 </r>
        <r>    11.8740     0.0120     0.1077     0.0320 </r>
        <r>    11.9671     0.0099     0.0923     0.0251 </r>
        <r>    12.0603     0.0079     0.0854     0.0206 </r>
        <r>    12.1535     0.0062     0.0822     0.0174 </r>
        <r>    12.2466     0.0047     0.0617     0.0119 </r>
        <r>    12.3398     0.0035     0.0291     0.0051 </r>
        <r>    12.4329     0.0029     0.0261     0.0045 </r>
        <r>    12.5261     0.0024     0.0233     0.0040 </r>
        <r>    12.6193     0.0020     0.0207     0.0034 </r>
        <r>    12.7124     0.0016     0.0182     0.0030 </r>
        <r>    12.8056     0.0012     0.0159     0.0025 </r>
        <r>    12.8987     0.0009     0.0138     0.0022 </r>
        <r>    12.9919     0.0007     0.0119     0.0018 </r>
        <r>    13.0851     0.0005     0.0102     0.0015 </r>
        <r>    13.1782     0.0004     0.0086     0.0013 </r>
        <r>    13.2714     0.0003     0.0073     0.0010 </r>
        <r>    13.3645     0.0002     0.0060     0.0009 </r>
        <r>    13.4577     0.0002     0.0049     0.0007 </r>
        <r>    13.5508     0.0002     0.0039     0.0006 </r>
        <r>    13.6440     0.0001     0.0030     0.0004 </r>
        <r>    13.7372     0.0001     0.0023     0.0003 </r>
        <r>    13.8303     0.0001     0.0016     0.0002 </r>
        <r>    13.9235     0.0000     0.0011     0.0002 </r>
        <r>    14.0166     0.0000     0.0006     0.0001 </r>
        <r>    14.1098     0.0000     0.0003     0.0000 </r>
        <r>    14.2030     0.0000     0.0001     0.0000 </r>
        <r>    14.2961     0.0000     0.0000     0.0000 </r>
        <r>    14.3893     0.0000     0.0000     0.0000 </r>
        <r>    14.4824     0.0000     0.0000     0.0000 </r>
        <r>    14.5756     0.0000     0.0000     0.0000 </r>
        <r>    14.6688     0.0000     0.0000     0.0000 </r>
        <r>    14.7619     0.0000     0.0000     0.0000 </r>
        <r>    14.8551     0.0000     0.0000     0.0000 </r>
        <r>    14.9482     0.0000     0.0000     0.0000 </r>
        <r>    15.0414     0.0000     0.0000     0.0000 </r>
        <r>    15.1346     0.0000     0.0000     0.0000 </r>
        <r>    15.2277     0.0000     0.0000     0.0000 </r>
        <r>    15.3209     0.0000     0.0000     0.0000 </r>
        <r>    15.4140     0.0000     0.0000     0.0000 </r>
        <r>    15.5072     0.0000     0.0000     0.0000 </r>
[...]
        <r>  0.0000  0.0713  0.1301 </r>
        <r>  0.0000  0.4663  0.0000 </r>
       </set>
       <set comment="band 10">
        <r>  0.1873  0.0240  0.0105 </r>
        <r>  0.1641  0.2052  0.0000 </r>
       </set>
       <set comment="band 11">
        <r>  0.0943  0.2299  0.0074 </r>
        <r>  0.0039  0.0083  0.0000 </r>
       </set>
       <set comment="band 12">
        <r>  0.0000  0.2989  0.0139 </r>
        <r>  0.0000  0.0738  0.0000 </r>
       </set>
       <set comment="band 13">
        <r>  0.0000  0.2989  0.0139 </r>
        <r>  0.0000  0.0738  0.0000 </r>
       </set>
      </set>
      <set comment="kpoint 6">
       <set comment="band 1">
        <r>  0.0610  0.0185  0.0206 </r>
        <r>  0.5812  0.0016  0.0000 </r>
       </set>
       <set comment="band 2">
        <r>  0.0295  0.0020  0.7666 </r>
        <r>  0.0005  0.0738  0.0000 </r>
       </set>
       <set comment="band 3">
        <r>  0.0000  0.0039  0.8860 </r>
        <r>  0.0000  0.0476  0.0000 </r>
       </set>
       <set comment="band 4">
        <r>  0.0054  0.0046  0.8644 </r>
        <r>  0.0001  0.0508  0.0000 </r>
       </set>
       <set comment="band 5">
        <r>  0.0017  0.0003  0.9571 </r>
        <r>  0.0010  0.0011  0.0000 </r>
       </set>
       <set comment="band 6">
        <r>  0.0000  0.0000  0.9726 </r>
        <r>  0.0000  0.0000  0.0000 </r>
       </set>
       <set comment="band 7">
        <r>  0.1238  0.0382  0.2185 </r>
        <r>  0.0574  0.2416  0.0000 </r>
       </set>
       <set comment="band 8">
        <r>  0.0279  0.0757  0.1213 </r>
        <r>  0.0102  0.4104  0.0000 </r>
       </set>
       <set comment="band 9">
        <r>  0.0000  0.0911  0.1096 </r>
        <r>  0.0000  0.4444  0.0000 </r>
       </set>
       <set comment="band 10">
        <r>  0.1891  0.0690  0.0216 </r>
        <r>  0.0848  0.1242  0.0000 </r>
       </set>
       <set comment="band 11">
        <r>  0.1093  0.1394  0.0210 </r>
        <r>  0.0320  0.1258  0.0000 </r>
       </set>
       <set comment="band 12">
        <r>  0.0002  0.1406  0.0564 </r>
        <r>  0.0142  0.0700  0.0000 </r>
       </set>
       <set comment="band 13">
        <r>  0.0000  0.2475  0.0327 </r>
        <r>  0.0000  0.0882  0.0000 </r>
       </set>
      </set>
      <set comment="kpoint 7">
       <set comment="band 1">
        <r>  0.0275  0.0283  0.0402 </r>
        <r>  0.6152  0.0005  0.0000 </r>
       </set>
       <set comment="band 2">
        <r>  0.0066  0.0037  0.8513 </r>
        <r>  0.0001  0.0544  0.0000 </r>
       </set>
       <set comment="band 3">
        <r>  0.0000  0.0037  0.8917 </r>
        <r>  0.0000  0.0443  0.0000 </r>
       </set>
       <set comment="band 4">
        <r>  0.0231  0.0048  0.8318 </r>
        <r>  0.0007  0.0378  0.0000 </r>
       </set>
       <set comment="band 5">
        <r>  0.0000  0.0001  0.9728 </r>
        <r>  0.0000  0.0002  0.0000 </r>
       </set>
       <set comment="band 6">
        <r>  0.0237  0.0039  0.8730 </r>
        <r>  0.0084  0.0252  0.0000 </r>
       </set>
       <set comment="band 7">
        <r>  0.1450  0.0399  0.2172 </r>
        <r>  0.0166  0.2176  0.0000 </r>
       </set>
       <set comment="band 8">
        <r>  0.0433  0.0804  0.1177 </r>
        <r>  0.0137  0.3690  0.0000 </r>
       </set>
       <set comment="band 9">
        <r>  0.0000  0.0962  0.0996 </r>
        <r>  0.0000  0.4484  0.0000 </r>
       </set>
       <set comment="band 10">
        <r>  0.2220  0.0553  0.0296 </r>
        <r>  0.0750  0.1008  0.0000 </r>
       </set>
       <set comment="band 11">
        <r>  0.0473  0.1113  0.0479 </r>
        <r>  0.0081  0.1162  0.0000 </r>
       </set>
       <set comment="band 12">
        <r>  0.0000  0.2031  0.0505 </r>
        <r>  0.0000  0.0638  0.0000 </r>
       </set>
       <set comment="band 13">
        <r>  0.0349  0.0945  0.0505 </r>
        <r>  0.0176  0.2113  0.0000 </r>
       </set>
      </set>
      <set comment="kpoint 8">
       <set comment="band 1">
        <r>  0.0367  0.0256  0.0347 </r>
        <r>  0.6060  0.0009  0.0000 </r>
       </set>
       <set comment="band 2">
        <r>  0.0024  0.0037  0.8720 </r>
        <r>  0.0001  0.0486  0.0000 </r>
       </set>
       <set comment="band 3">
        <r>  0.0000  0.0033  0.8889 </r>
        <r>  0.0000  0.0472  0.0000 </r>
       </set>
       <set comment="band 4">
        <r>  0.0443  0.0079  0.7257 </r>
        <r>  0.0012  0.0705  0.0000 </r>
       </set>
       <set comment="band 5">
        <r>  0.0000  0.0001  0.9668 </r>
        <r>  0.0000  0.0004  0.0000 </r>
       </set>
       <set comment="band 6">
        <r>  0.0092  0.0010  0.9403 </r>
        <r>  0.0018  0.0101  0.0000 </r>
       </set>
       <set comment="band 7">
        <r>  0.1314  0.0403  0.2491 </r>
        <r>  0.0323  0.2107  0.0000 </r>
       </set>
       <set comment="band 8">
        <r>  0.0393  0.0861  0.1136 </r>
        <r>  0.0104  0.3599  0.0000 </r>
       </set>
       <set comment="band 9">
        <r>  0.0000  0.0841  0.1118 </r>
        <r>  0.0000  0.4697  0.0000 </r>
       </set>
       <set comment="band 10">
        <r>  0.2474  0.0582  0.0183 </r>
        <r>  0.0863  0.1141  0.0000 </r>
       </set>
       <set comment="band 11">
        <r>  0.0136  0.1186  0.0533 </r>
        <r>  0.0052  0.0999  0.0000 </r>
       </set>
       <set comment="band 12">
        <r>  0.0000  0.2396  0.0383 </r>
        <r>  0.0000  0.0470  0.0000 </r>
       </set>
       <set comment="band 13">
        <r>  0.0493  0.0765  0.0379 </r>
        <r>  0.0222  0.2560  0.0000 </r>
       </set>
      </set>
      <set comment="kpoint 9">
       <set comment="band 1">
        <r>  0.0740  0.0139  0.0146 </r>
        <r>  0.5687  0.0015  0.0000 </r>
       </set>
       <set comment="band 2">
        <r>  0.0263  0.0028  0.7836 </r>
        <r>  0.0005  0.0680  0.0000 </r>
       </set>
       <set comment="band 3">
        <r>  0.0000  0.0026  0.8810 </r>
        <r>  0.0000  0.0520  0.0000 </r>
       </set>
       <set comment="band 4">
        <r>  0.0001  0.0044  0.8721 </r>
        <r>  0.0000  0.0525  0.0000 </r>
       </set>
       <set comment="band 5">
        <r>  0.0000  0.0000  0.9643 </r>
        <r>  0.0000  0.0003  0.0000 </r>
       </set>
       <set comment="band 6">
        <r>  0.0004  0.0001  0.9697 </r>
        <r>  0.0003  0.0003  0.0000 </r>
       </set>
       <set comment="band 7">
        <r>  0.1127  0.0385  0.2021 </r>
        <r>  0.0684  0.2591  0.0000 </r>
       </set>
       <set comment="band 8">
        <r>  0.0186  0.0874  0.1143 </r>
        <r>  0.0008  0.3986  0.0000 </r>
       </set>
       <set comment="band 9">
        <r>  0.0000  0.0594  0.1329 </r>
        <r>  0.0000  0.5018  0.0000 </r>
       </set>
       <set comment="band 10">
        <r>  0.2363  0.0547  0.0010 </r>
        <r>  0.1374  0.1570  0.0000 </r>
       </set>
       <set comment="band 11">
        <r>  0.0644  0.1429  0.0366 </r>
        <r>  0.0186  0.1202  0.0000 </r>
       </set>
       <set comment="band 12">
        <r>  0.0000  0.3322  0.0082 </r>
        <r>  0.0000  0.0255  0.0000 </r>
       </set>
       <set comment="band 13">
        <r>  0.0042  0.1718  0.0305 </r>
        <r>  0.0005  0.1074  0.0000 </r>
       </set>
      </set>
      <set comment="kpoint 10">
       <set comment="band 1">
        <r>  0.0389  0.0262  0.0311 </r>
        <r>  0.6015  0.0016  0.0000 </r>
       </set>
       <set comment="band 2">
        <r>  0.0461  0.0001  0.7028 </r>
        <r>  0.0005  0.0873  0.0000 </r>
       </set>
       <set comment="band 3">
        <r>  0.0000  0.0047  0.9009 </r>
        <r>  0.0000  0.0408  0.0000 </r>
       </set>
       <set comment="band 4">
        <r>  0.0000  0.0047  0.9009 </r>
        <r>  0.0000  0.0408  0.0000 </r>
       </set>
       <set comment="band 5">
        <r>  0.0059  0.0010  0.9377 </r>
        <r>  0.0039  0.0012  0.0000 </r>
       </set>
       <set comment="band 6">
        <r>  0.0000  0.0000  0.9753 </r>
        <r>  0.0000  0.0000  0.0000 </r>
       </set>
       <set comment="band 7">
        <r>  0.1729  0.0127  0.2693 </r>
        <r>  0.0549  0.2137  0.0000 </r>
       </set>
       <set comment="band 8">
        <r>  0.0000  0.1079  0.0867 </r>
        <r>  0.0000  0.4195  0.0000 </r>
       </set>
       <set comment="band 9">
        <r>  0.0000  0.1079  0.0867 </r>
        <r>  0.0000  0.4195  0.0000 </r>
       </set>
       <set comment="band 10">
        <r>  0.0400  0.1622  0.0393 </r>
        <r>  0.0407  0.0001  0.0000 </r>
       </set>
       <set comment="band 11">
        <r>  0.2316  0.0028  0.0569 </r>
        <r>  0.0292  0.1233  0.0000 </r>
       </set>
       <set comment="band 12">
        <r>  0.0618  0.0020  0.0551 </r>
        <r>  0.0454  0.2288  0.0000 </r>
       </set>
       <set comment="band 13">
        <r>  0.0000  0.2539  0.0258 </r>
        <r>  0.0000  0.1466  0.0000 </r>
       </set>
      </set>
      <set comment="kpoint 11">
       <set comment="band 1">
        <r>  0.0105  0.0343  0.0484 </r>
        <r>  0.6290  0.0005  0.0000 </r>
       </set>
       <set comment="band 2">
        <r>  0.0387  0.0028  0.7170 </r>
        <r>  0.0001  0.0828  0.0000 </r>
       </set>
       <set comment="band 3">
        <r>  0.0000  0.0046  0.9109 </r>
        <r>  0.0000  0.0364  0.0000 </r>
       </set>
       <set comment="band 4">
        <r>  0.0065  0.0023  0.9102 </r>
        <r>  0.0001  0.0268  0.0000 </r>
       </set>
       <set comment="band 5">
        <r>  0.0000  0.0000  0.9747 </r>
        <r>  0.0000  0.0002  0.0000 </r>
       </set>
       <set comment="band 6">
        <r>  0.0147  0.0044  0.8957 </r>
        <r>  0.0144  0.0119  0.0000 </r>
       </set>
       <set comment="band 7">
        <r>  0.2071  0.0111  0.2521 </r>
        <r>  0.0204  0.2097  0.0000 </r>
       </set>
       <set comment="band 8">
        <r>  0.0110  0.1094  0.0909 </r>
        <r>  0.0017  0.3540  0.0000 </r>
       </set>
       <set comment="band 9">
        <r>  0.0000  0.1129  0.0747 </r>
        <r>  0.0000  0.4192  0.0000 </r>
       </set>
       <set comment="band 10">
        <r>  0.0706  0.1013  0.0649 </r>
        <r>  0.0396  0.0294  0.0000 </r>
       </set>
       <set comment="band 11">
        <r>  0.1904  0.0270  0.0525 </r>
        <r>  0.0084  0.1554  0.0000 </r>
       </set>
       <set comment="band 12">
        <r>  0.0524  0.0957  0.0385 </r>
        <r>  0.0298  0.1884  0.0000 </r>
       </set>
       <set comment="band 13">
        <r>  0.0000  0.2013  0.0358 </r>
        <r>  0.0000  0.1302  0.0000 </r>
       </set>
      </set>
      <set comment="kpoint 12">
       <set comment="band 1">
        <r>  0.0098  0.0338  0.0505 </r>
        <r>  0.6305  0.0002  0.0000 </r>
       </set>
       <set comment="band 2">
        <r>  0.0087  0.0058  0.8233 </r>
        <r>  0.0001  0.0593  0.0000 </r>
       </set>
       <set comment="band 3">
        <r>  0.0000  0.0044  0.9024 </r>
        <r>  0.0000  0.0412  0.0000 </r>
       </set>
       <set comment="band 4">
        <r>  0.0002  0.0001  0.9575 </r>
        <r>  0.0000  0.0006  0.0000 </r>
       </set>
       <set comment="band 5">
        <r>  0.0000  0.0000  0.9687 </r>
        <r>  0.0000  0.0003  0.0000 </r>
       </set>
       <set comment="band 6">
        <r>  0.0398  0.0027  0.8240 </r>
        <r>  0.0171  0.0383  0.0000 </r>
       </set>
       <set comment="band 7">
        <r>  0.2185  0.0217  0.1382 </r>
        <r>  0.0164  0.2433  0.0000 </r>
       </set>
       <set comment="band 8">
        <r>  0.0164  0.1026  0.1270 </r>
        <r>  0.0007  0.3050  0.0000 </r>
       </set>
       <set comment="band 9">
        <r>  0.0000  0.1039  0.0906 </r>
        <r>  0.0000  0.4353  0.0000 </r>
       </set>
       <set comment="band 10">
        <r>  0.1290  0.0866  0.0562 </r>
        <r>  0.0370  0.0412  0.0000 </r>
       </set>
       <set comment="band 11">
        <r>  0.1617  0.0121  0.0246 </r>
        <r>  0.0018  0.3089  0.0000 </r>
       </set>
       <set comment="band 12">
        <r>  0.0318  0.0282  0.0777 </r>
        <r>  0.0111  0.1992  0.0000 </r>
       </set>
       <set comment="band 13">
        <r>  0.0000  0.2065  0.0299 </r>
        <r>  0.0000  0.1066  0.0000 </r>
       </set>
      </set>
      <set comment="kpoint 13">
       <set comment="band 1">
        <r>  0.0000  0.0378  0.0538 </r>
        <r>  0.6384  0.0000  0.0000 </r>
       </set>
       <set comment="band 2">
        <r>  0.0570  0.0000  0.6562 </r>
        <r>  0.0000  0.0951  0.0000 </r>
       </set>
       <set comment="band 3">
        <r>  0.0000  0.0045  0.9245 </r>
        <r>  0.0000  0.0304  0.0000 </r>
       </set>
       <set comment="band 4">
        <r>  0.0000  0.0045  0.9245 </r>
        <r>  0.0000  0.0304  0.0000 </r>
       </set>
       <set comment="band 5">
        <r>  0.0000  0.0000  0.9776 </r>
        <r>  0.0000  0.0000  0.0000 </r>
       </set>
       <set comment="band 6">
        <r>  0.0000  0.0081  0.9046 </r>
        <r>  0.0257  0.0000  0.0000 </r>
       </set>
       <set comment="band 7">
        <r>  0.2249  0.0000  0.3052 </r>
        <r>  0.0000  0.1899  0.0000 </r>
       </set>
       <set comment="band 8">
        <r>  0.0000  0.1194  0.0568 </r>
        <r>  0.0000  0.4128  0.0000 </r>
       </set>
       <set comment="band 9">
        <r>  0.0000  0.1194  0.0568 </r>
        <r>  0.0000  0.4128  0.0000 </r>
       </set>
       <set comment="band 10">
        <r>  0.0000  0.1279  0.0749 </r>
        <r>  0.0554  0.0000  0.0000 </r>
       </set>
       <set comment="band 11">
        <r>  0.2605  0.0000  0.0654 </r>
        <r>  0.0000  0.0737  0.0000 </r>
       </set>
       <set comment="band 12">
        <r>  0.0967  0.0000  0.0130 </r>
        <r>  0.0000  0.3995  0.0000 </r>
       </set>
       <set comment="band 13">
        <r>  0.0000  0.3056  0.0123 </r>
        <r>  0.0000  0.2239  0.0000 </r>
       </set>
      </set>
      <set comment="kpoint 14">
       <set comment="band 1">
        <r>  0.0294  0.0284  0.0379 </r>
        <r>  0.6117  0.0011  0.0000 </r>
       </set>
       <set comment="band 2">
        <r>  0.0250  0.0044  0.7724 </r>
        <r>  0.0000  0.0724  0.0000 </r>
       </set>
       <set comment="band 3">
        <r>  0.0050  0.0031  0.8819 </r>
        <r>  0.0000  0.0420  0.0000 </r>
       </set>
       <set comment="band 4">
        <r>  0.0148  0.0039  0.8618 </r>
        <r>  0.0001  0.0434  0.0000 </r>
       </set>
       <set comment="band 5">
        <r>  0.0018  0.0007  0.9578 </r>
        <r>  0.0011  0.0019  0.0000 </r>
       </set>
       <set comment="band 6">
        <r>  0.0111  0.0014  0.9313 </r>
        <r>  0.0034  0.0105  0.0000 </r>
       </set>
       <set comment="band 7">
        <r>  0.1669  0.0245  0.2458 </r>
        <r>  0.0430  0.2171  0.0000 </r>
       </set>
       <set comment="band 8">
        <r>  0.0236  0.1016  0.0977 </r>
        <r>  0.0015  0.3508  0.0000 </r>
       </set>
       <set comment="band 9">
        <r>  0.0061  0.0969  0.1047 </r>
        <r>  0.0018  0.4145  0.0000 </r>
       </set>
       <set comment="band 10">
        <r>  0.1016  0.0964  0.0574 </r>
        <r>  0.0051  0.1226  0.0000 </r>
       </set>
       <set comment="band 11">
        <r>  0.1952  0.0403  0.0256 </r>
        <r>  0.0592  0.1966  0.0000 </r>
       </set>
       <set comment="band 12">
        <r>  0.0006  0.1520  0.0437 </r>
        <r>  0.0285  0.0450  0.0000 </r>
       </set>
       <set comment="band 13">
        <r>  0.0001  0.1966  0.0440 </r>
        <r>  0.0067  0.1631  0.0000 </r>
       </set>
      </set>
      <set comment="kpoint 15">
       <set comment="band 1">
        <r>  0.0097  0.0338  0.0505 </r>
        <r>  0.6306  0.0002  0.0000 </r>
       </set>
       <set comment="band 2">
        <r>  0.0004  0.0076  0.8432 </r>
        <r>  0.0000  0.0569  0.0000 </r>
       </set>
       <set comment="band 3">
        <r>  0.0069  0.0024  0.8874 </r>
        <r>  0.0000  0.0399  0.0000 </r>
       </set>
       <set comment="band 4">
        <r>  0.0042  0.0007  0.9408 </r>
        <r>  0.0000  0.0069  0.0000 </r>
       </set>
       <set comment="band 5">
        <r>  0.0068  0.0001  0.9404 </r>
        <r>  0.0000  0.0106  0.0000 </r>
       </set>
       <set comment="band 6">
        <r>  0.0227  0.0017  0.8912 </r>
        <r>  0.0206  0.0160  0.0000 </r>
       </set>
       <set comment="band 7">
        <r>  0.2121  0.0271  0.1169 </r>
        <r>  0.0089  0.2511  0.0000 </r>
       </set>
       <set comment="band 8">
        <r>  0.0345  0.0950  0.1170 </r>
        <r>  0.0068  0.3216  0.0000 </r>
       </set>
       <set comment="band 9">
        <r>  0.0019  0.1068  0.0950 </r>
        <r>  0.0002  0.3965  0.0000 </r>
       </set>
       <set comment="band 10">
        <r>  0.1820  0.0398  0.0575 </r>
        <r>  0.0177  0.1736  0.0000 </r>
       </set>
       <set comment="band 11">
        <r>  0.0658  0.0782  0.0411 </r>
        <r>  0.0277  0.1476  0.0000 </r>
       </set>
       <set comment="band 12">
        <r>  0.0628  0.1364  0.0284 </r>
        <r>  0.0169  0.1513  0.0000 </r>
       </set>
       <set comment="band 13">
        <r>  0.0003  0.0499  0.0847 </r>
        <r>  0.0062  0.1101  0.0000 </r>
       </set>
      </set>
      <set comment="kpoint 16">
       <set comment="band 1">
        <r>  0.0000  0.0370  0.0557 </r>
        <r>  0.6387  0.0000  0.0000 </r>
       </set>
       <set comment="band 2">
        <r>  0.0191  0.0064  0.7693 </r>
        <r>  0.0000  0.0718  0.0000 </r>
       </set>
       <set comment="band 3">
        <r>  0.0000  0.0023  0.9305 </r>
        <r>  0.0001  0.0238  0.0000 </r>
       </set>
       <set comment="band 4">
        <r>  0.0114  0.0018  0.9031 </r>
        <r>  0.0000  0.0290  0.0000 </r>
       </set>
       <set comment="band 5">
        <r>  0.0022  0.0000  0.9619 </r>
        <r>  0.0000  0.0032  0.0000 </r>
       </set>
       <set comment="band 6">
        <r>  0.0000  0.0063  0.9228 </r>
        <r>  0.0306  0.0014  0.0000 </r>
       </set>
       <set comment="band 7">
        <r>  0.2691  0.0000  0.1619 </r>
        <r>  0.0000  0.2357  0.0000 </r>
       </set>
       <set comment="band 8">
        <r>  0.0000  0.1320  0.0324 </r>
        <r>  0.0007  0.3672  0.0000 </r>
       </set>
       <set comment="band 9">
        <r>  0.0027  0.0986  0.1353 </r>
        <r>  0.0000  0.3491  0.0000 </r>
       </set>
       <set comment="band 10">
        <r>  0.0000  0.0919  0.0782 </r>
        <r>  0.0300  0.1039  0.0000 </r>
       </set>
       <set comment="band 11">
        <r>  0.2592  0.0117  0.0406 </r>
        <r>  0.0000  0.1813  0.0000 </r>
       </set>
       <set comment="band 12">
        <r>  0.0000  0.1965  0.0354 </r>
        <r>  0.0493  0.0845  0.0000 </r>
       </set>
       <set comment="band 13">
        <r>  0.0576  0.0705  0.0471 </r>
        <r>  0.0000  0.1671  0.0000 </r>
       </set>
      </set>
     </set>
    </set>
   </array>
  </projected>
 </calculation>
 <structure name="finalpos" >
  <crystal>
   <varray name="basis" >
    <v>      -0.00000000       2.67798801       2.67798801 </v>
    <v>       2.67798801       0.00000000       2.67798801 </v>
    <v>       2.67798801       2.67798801      -0.00000000 </v>
   </varray>
   <i name="volume">     38.41102364 </i>
   <varray name="rec_basis" >
    <v>      -0.18670733       0.18670733       0.18670733 </v>
    <v>       0.18670733      -0.18670733       0.18670733 </v>
    <v>       0.18670733       0.18670733      -0.18670733 </v>
   </varray>
  </crystal>
  <varray name="positions" >
   <v>       0.00000000       0.00000000       0.00000000 </v>
   <v>       0.25000000       0.25000000       0.25000000 </v>
  </varray>
 </structure>
</modeling>
