 vasp.6.5.1 10Mar25 (build May 05 2025 13:45:00) complex                        
  
 executed on             LinuxIFC date 2026.04.28  12:52:09
 running  112 mpi-ranks, on    1 nodes
 distrk:  each k-point on   28 cores,    4 groups
 distr:  one band on NCORE=   1 cores,   28 groups


--------------------------------------------------------------------------------------------------------


 INCAR:
   ALGO = Damped
   PREC = Normal
   LREAL = Auto
   EDIFF = 1e-05
   ENCUT = 400.0
   LASPH = True
   NELM = 100
   ISIF = 2
   IBRION = 2
   EDIFFG = -0.03
   NSW = 300
   ISMEAR = 0
   SIGMA = 0.1
   ISPIN = 2
   LWAVE = True
   LCHARG = False
   LORBIT = 10
   LHFCALC = True
   PRECFOCK = Fast
   AEXX = 0.36
   HFSCREEN = 0.2
   TIME = 0.4
   NELECT = 1728.0
   KPAR = 4

 POTCAR:    PAW_PBE Zn 06Sep2000                  
 POTCAR:    PAW_PBE O 08Apr2002                   
 POTCAR:    PAW_PBE Nd_3 06Sep2000                
 -----------------------------------------------------------------------------
|                                                                             |
|           W    W    AA    RRRRR   N    N  II  N    N   GGGG   !!!           |
|           W    W   A  A   R    R  NN   N  II  NN   N  G    G  !!!           |
|           W    W  A    A  R    R  N N  N  II  N N  N  G       !!!           |
|           W WW W  AAAAAA  RRRRR   N  N N  II  N  N N  G  GGG   !            |
|           WW  WW  A    A  R   R   N   NN  II  N   NN  G    G                |
|           W    W  A    A  R    R  N    N  II  N    N   GGGG   !!!           |
|                                                                             |
|     You requested a magnetic or noncollinear calculation, but did not       |
|     specify the initial magnetic moment with the MAGMOM tag. Note that      |
|     a default of 1 will be used for all atoms. This ferromagnetic setup     |
|     may break the symmetry of the crystal, in particular it may rule        |
|     out finding an antiferromagnetic solution. Thence, we recommend         |
|     setting the initial magnetic moment manually or verifying carefully     |
|     that this magnetic setup is desired.                                    |
|                                                                             |
 -----------------------------------------------------------------------------

 -----------------------------------------------------------------------------
|                                                                             |
|           W    W    AA    RRRRR   N    N  II  N    N   GGGG   !!!           |
|           W    W   A  A   R    R  NN   N  II  NN   N  G    G  !!!           |
|           W    W  A    A  R    R  N N  N  II  N N  N  G       !!!           |
|           W WW W  AAAAAA  RRRRR   N  N N  II  N  N N  G  GGG   !            |
|           WW  WW  A    A  R   R   N   NN  II  N   NN  G    G                |
|           W    W  A    A  R    R  N    N  II  N    N   GGGG   !!!           |
|                                                                             |
|     For optimal performance we recommend to set                             |
|       NCORE = 2 up to number-of-cores-per-socket                            |
|     NCORE specifies how many cores store one orbital (NPAR=cpu/NCORE).      |
|     This setting can greatly improve the performance of VASP for DFT.       |
|     The default, NCORE=1 might be grossly inefficient on modern             |
|     multi-core architectures or massively parallel machines. Do your        |
|     own testing! More info at https://www.vasp.at/wiki/index.php/NCORE      |
|     Unfortunately you need to use the default for GW and RPA                |
|     calculations (for HF NCORE is supported but not extensively tested      |
|     yet).                                                                   |
|                                                                             |
 -----------------------------------------------------------------------------

 POTCAR:    PAW_PBE Zn 06Sep2000                  
   SHA256 =  501fddbd8274dd8e9725d4f3de27861d7f1e553a7e18441bc79fed8f346e7f23 Zn/POTCAR             
   COPYR  = (c) Copyright 06Sep2000 Georg Kresse                                                    
   COPYR  = This file is part of the software VASP. Any use, copying, and all other rights are regul
   COPYR  = If you do not have a valid VASP license, you may not use, copy or distribute this file. 
   VRHFIN =Zn: d10 p2                                                                               
   LEXCH  = PE                                                                                      
   EATOM  =  1748.8345 eV,  128.5357 Ry                                                             
                                                                                                    
   TITEL  = PAW_PBE Zn 06Sep2000                                                                    
   LULTRA =        F    use ultrasoft PP ?                                                          
   IUNSCR =        1    unscreen: 0-lin 1-nonlin 2-no                                               
   RPACOR =    2.000    partial core radius                                                         
   POMASS =   65.390; ZVAL   =   12.000    mass and valenz                                          
   RCORE  =    2.300    outmost cutoff radius                                                       
   RWIGS  =    2.400; RWIGS  =    1.270    wigner-seitz radius (au A)                               
   ENMAX  =  276.723; ENMIN  =  207.542 eV                                                          
   RCLOC  =    1.828    cutoff for local pot                                                        
   LCOR   =        T    correct aug charges                                                         
   LPAW   =        T    paw PP                                                                      
   EAUG   =  575.892                                                                                
   DEXC   =    0.000                                                                                
   RMAX   =    2.347    core radius for proj-oper                                                   
   RAUG   =    1.300    factor for augmentation sphere                                              
   RDEP   =    2.324    radius for radial grids                                                     
   RDEPT  =    1.788    core radius for aug-charge                                                  
                                                                                                    
   Atomic configuration                                                                             
    9 entries                                                                                       
     n  l   j            E        occ.                                                              
     1  0  0.50     -9524.6913   2.0000                                                             
     2  0  0.50     -1158.1882   2.0000                                                             
     2  1  1.50     -1003.8506   6.0000                                                             
     3  0  0.50      -129.2194   2.0000                                                             
     3  1  1.50       -83.3890   6.0000                                                             
     3  2  2.50       -10.1410  10.0000                                                             
     4  0  0.50        -5.9785   2.0000                                                             
     4  1  0.50        -4.0817   0.0000                                                             
     4  3  2.50        -1.3606   0.0000                                                             
   Description                                                                                      
     l       E           TYP  RCUT    TYP  RCUT                                                     
     2    -10.1410010     23  2.300                                                                 
     2    -11.5015836     23  2.300                                                                 
     0     -5.9785163     23  2.300                                                                 
     0      1.1858015     23  2.300                                                                 
     1     -2.7211652     23  2.300                                                                 
     1     13.2444212     23  2.300                                                                 
  local pseudopotential read in
  partial core-charges read in
  partial kinetic energy density read in
  atomic valenz-charges read in
  non local Contribution for L=           2  read in
    real space projection operators read in
  non local Contribution for L=           2  read in
    real space projection operators read in
  non local Contribution for L=           0  read in
    real space projection operators read in
  non local Contribution for L=           0  read in
    real space projection operators read in
  non local Contribution for L=           1  read in
    real space projection operators read in
  non local Contribution for L=           1  read in
    real space projection operators read in
    PAW grid and wavefunctions read in
 
   number of l-projection  operators is LMAX  =           6
   number of lm-projection operators is LMMAX =          18
 
 POTCAR:    PAW_PBE O 08Apr2002                   
   SHA256 =  818f92134a0a090dccd8ba1447fa70422a3b330e708bb4f08108d8ae51209ddf O/POTCAR              
   COPYR  = (c) Copyright 08Apr2002 Georg Kresse                                                    
   COPYR  = This file is part of the software VASP. Any use, copying, and all other rights are regul
   COPYR  = If you do not have a valid VASP license, you may not use, copy or distribute this file. 
   VRHFIN =O: s2p4                                                                                  
   LEXCH  = PE                                                                                      
   EATOM  =   432.3788 eV,   31.7789 Ry                                                             
                                                                                                    
   TITEL  = PAW_PBE O 08Apr2002                                                                     
   LULTRA =        F    use ultrasoft PP ?                                                          
   IUNSCR =        1    unscreen: 0-lin 1-nonlin 2-no                                               
   RPACOR =    1.200    partial core radius                                                         
   POMASS =   16.000; ZVAL   =    6.000    mass and valenz                                          
   RCORE  =    1.520    outmost cutoff radius                                                       
   RWIGS  =    1.550; RWIGS  =    0.820    wigner-seitz radius (au A)                               
   ENMAX  =  400.000; ENMIN  =  300.000 eV                                                          
   ICORE  =        2    local potential                                                             
   LCOR   =        T    correct aug charges                                                         
   LPAW   =        T    paw PP                                                                      
   EAUG   =  605.392                                                                                
   DEXC   =    0.000                                                                                
   RMAX   =    1.553    core radius for proj-oper                                                   
   RAUG   =    1.300    factor for augmentation sphere                                              
   RDEP   =    1.550    radius for radial grids                                                     
   RDEPT  =    1.329    core radius for aug-charge                                                  
                                                                                                    
   Atomic configuration                                                                             
    4 entries                                                                                       
     n  l   j            E        occ.                                                              
     1  0  0.50      -514.6923   2.0000                                                             
     2  0  0.50       -23.9615   2.0000                                                             
     2  1  0.50        -9.0305   4.0000                                                             
     3  2  1.50        -9.5241   0.0000                                                             
   Description                                                                                      
     l       E           TYP  RCUT    TYP  RCUT                                                     
     0    -23.9615318     23  1.200                                                                 
     0     -9.5240782     23  1.200                                                                 
     1     -9.0304911     23  1.520                                                                 
     1      8.1634956     23  1.520                                                                 
     2     -9.5240782      7  1.500                                                                 
  local pseudopotential read in
  partial core-charges read in
  partial kinetic energy density read in
  kinetic energy density of atom read in
  atomic valenz-charges read in
  non local Contribution for L=           0  read in
    real space projection operators read in
  non local Contribution for L=           0  read in
    real space projection operators read in
  non local Contribution for L=           1  read in
    real space projection operators read in
  non local Contribution for L=           1  read in
    real space projection operators read in
    PAW grid and wavefunctions read in
 
   number of l-projection  operators is LMAX  =           4
   number of lm-projection operators is LMMAX =           8
 
 POTCAR:    PAW_PBE Nd_3 06Sep2000                
   SHA256 =  90782177844a5d17e05a83442c3981b109958f4399d5595472847236a982ac31 Nd_3/POTCAR           
   COPYR  = (c) Copyright 06Sep2000 Georg Kresse                                                    
   COPYR  = This file is part of the software VASP. Any use, copying, and all other rights are regul
   COPYR  = If you do not have a valid VASP license, you may not use, copy or distribute this file. 
   VRHFIN =Nd : [core=Xe4]                                                                          
   LEXCH  = PE                                                                                      
   EATOM  =   934.1494 eV,   68.6580 Ry                                                             
                                                                                                    
   TITEL  = PAW_PBE Nd_3 06Sep2000                                                                  
   LULTRA =        F    use ultrasoft PP ?                                                          
   IUNSCR =        1    unscreen: 0-lin 1-nonlin 2-no                                               
   RPACOR =    2.400    partial core radius                                                         
   POMASS =  144.240; ZVAL   =   11.000    mass and valenz                                          
   RCORE  =    2.800    outmost cutoff radius                                                       
   RWIGS  =    3.000; RWIGS  =    1.588    wigner-seitz radius (au A)                               
   ENMAX  =  182.619; ENMIN  =  136.964 eV                                                          
   RCLOC  =    2.418    cutoff for local pot                                                        
   LCOR   =        T    correct aug charges                                                         
   LPAW   =        T    paw PP                                                                      
   EAUG   =  299.021                                                                                
   DEXC   =    0.000                                                                                
   RMAX   =    2.866    core radius for proj-oper                                                   
   RAUG   =    1.300    factor for augmentation sphere                                              
   RDEP   =    2.838    radius for radial grids                                                     
   RDEPT  =    2.433    core radius for aug-charge                                                  
                                                                                                    
   Atomic configuration                                                                             
   14 entries                                                                                       
     n  l   j            E        occ.                                                              
     1  0  0.50    -43395.8286   2.0000                                                             
     2  0  0.50     -7023.8781   2.0000                                                             
     2  1  1.50     -6278.5294   6.0000                                                             
     3  0  0.50     -1529.8925   2.0000                                                             
     3  1  1.50     -1294.9660   6.0000                                                             
     3  2  2.50      -969.3626  10.0000                                                             
     4  0  0.50      -309.7145   2.0000                                                             
     4  1  1.50      -232.6371   6.0000                                                             
     4  2  2.50      -123.0912  10.0000                                                             
     4  3  2.50        -6.9199   3.0000                                                             
     5  0  0.50       -43.6910   2.0000                                                             
     6  0  0.50        -3.8688   2.0000                                                             
     5  1  1.50       -24.6661   6.0000                                                             
     5  2  2.50        -2.9249   1.0000                                                             
   Description                                                                                      
     l       E           TYP  RCUT    TYP  RCUT                                                     
     0    -43.6910211     23  2.800                                                                 
     0     -3.8687565     23  2.800                                                                 
     1    -24.6660554     23  2.800                                                                 
     1     13.6058260     23  2.800                                                                 
     2     -2.9249058     23  2.800                                                                 
     2      0.2001824     23  2.800                                                                 
  local pseudopotential read in
  partial core-charges read in
  partial kinetic energy density read in
  atomic valenz-charges read in
  non local Contribution for L=           0  read in
    real space projection operators read in
  non local Contribution for L=           0  read in
    real space projection operators read in
  non local Contribution for L=           1  read in
    real space projection operators read in
  non local Contribution for L=           1  read in
    real space projection operators read in
  non local Contribution for L=           2  read in
    real space projection operators read in
  non local Contribution for L=           2  read in
    real space projection operators read in
    PAW grid and wavefunctions read in
 
   number of l-projection  operators is LMAX  =           6
   number of lm-projection operators is LMMAX =          18
 
 Optimization of the real space projectors (new method)

 maximal supplied QI-value         = 16.25
 optimisation between [QCUT,QGAM] = [ 10.24, 20.48] = [ 29.35,117.42] Ry 
 Optimized for a Real-space Cutoff    1.38 Angstroem

   l    n(q)    QCUT    max X(q) W(low)/X(q) W(high)/X(q)  e(spline) 
   2      7    10.239    46.356    0.21E-03    0.48E-03    0.10E-06
   2      7    10.239    41.843    0.21E-03    0.50E-03    0.10E-06
   0      8    10.239    48.958    0.37E-03    0.79E-04    0.11E-06
   0      8    10.239    32.776    0.35E-03    0.73E-04    0.10E-06
   1      8    10.239    17.787    0.49E-03    0.70E-03    0.14E-06
   1      8    10.239    14.435    0.42E-03    0.61E-03    0.13E-06
 Optimization of the real space projectors (new method)

 maximal supplied QI-value         = 24.76
 optimisation between [QCUT,QGAM] = [ 10.15, 20.30] = [ 28.85,115.39] Ry 
 Optimized for a Real-space Cutoff    1.38 Angstroem

   l    n(q)    QCUT    max X(q) W(low)/X(q) W(high)/X(q)  e(spline) 
   0      8    10.150    20.381    0.22E-03    0.32E-03    0.29E-06
   0      8    10.150    15.268    0.23E-03    0.35E-03    0.30E-06
   1      8    10.150     5.964    0.46E-03    0.53E-03    0.21E-06
   1      8    10.150     5.382    0.38E-03    0.45E-03    0.19E-06
 Optimization of the real space projectors (new method)

 maximal supplied QI-value         = 13.42
 optimisation between [QCUT,QGAM] = [ 10.20, 20.39] = [ 29.12,116.47] Ry 
 Optimized for a Real-space Cutoff    1.60 Angstroem

   l    n(q)    QCUT    max X(q) W(low)/X(q) W(high)/X(q)  e(spline) 
   0     10    10.197    14.227    0.14E-04    0.35E-04    0.60E-07
   0     10    10.197     9.532    0.26E-04    0.76E-04    0.13E-06
   1      9    10.197     4.559    0.46E-04    0.39E-04    0.16E-07
   1      9    10.197     4.689    0.18E-03    0.19E-03    0.31E-06
   2      9    10.197    34.547    0.44E-03    0.22E-02    0.11E-05
   2      9    10.197    28.111    0.41E-03    0.20E-02    0.10E-05
  PAW_PBE Zn 06Sep2000                  :
 energy of atom  1       EATOM=-1748.8345
 kinetic energy error for atom=    0.0107 (will be added to EATOM!!)
  PAW_PBE O 08Apr2002                   :
 energy of atom  2       EATOM= -432.3788
 kinetic energy error for atom=    0.1156 (will be added to EATOM!!)
  PAW_PBE Nd_3 06Sep2000                :
 energy of atom  3       EATOM= -934.1494
 kinetic energy error for atom=    0.0015 (will be added to EATOM!!)
 
 
 POSCAR: Nd1 Zn95 O96
  positions in direct lattice
  No initial velocities read in


 exchange-correlation table for PE
   RHO(1)=    0.500       N(1)  =     2000
   RHO(2)=  100.500       N(2)  =     4000
 


--------------------------------------------------------------------------------------------------------


 ion  position               nearest neighbor table
   1  0.083  0.167  0.333- 147 1.98 180 1.98 144 1.98  97 1.99
   2  0.083  0.167  0.667- 148 1.98 181 1.98 145 1.98  98 1.99
   3  0.083  0.417  0.000- 152 1.98 185 1.98  99 1.99 149 2.13 192 3.25
   4  0.083  0.417  0.333- 150 1.98 183 1.98 147 1.98 100 1.99
   5  0.083  0.417  0.667- 151 1.98 184 1.98 148 1.98 101 1.99
   6  0.083  0.667  0.000- 155 1.98 188 1.98 152 1.98 102 1.99
   7  0.083  0.667  0.333- 153 1.98 186 1.98 150 1.98 103 1.99
   8  0.083  0.667  0.667- 154 1.98 187 1.98 151 1.98 104 1.99
   9  0.083  0.917  0.000- 191 1.98 155 1.98 105 1.99 146 1.99 192 3.25
  10  0.083  0.917  0.333- 144 1.98 189 1.98 153 1.98 106 1.99
  11  0.083  0.917  0.667- 145 1.98 190 1.98 154 1.98 107 1.99
  12  0.333  0.167  0.000- 161 1.98 158 1.98 108 1.99 146 2.03 192 3.25
  13  0.333  0.167  0.333- 159 1.98 144 1.98 156 1.98 109 1.99
  14  0.333  0.167  0.667- 160 1.98 145 1.98 157 1.98 110 1.99
  15  0.333  0.417  0.000- 149 1.86 164 1.98 161 1.98 111 1.99 192 3.25
  16  0.333  0.417  0.333- 162 1.98 147 1.98 159 1.98 112 1.99
  17  0.333  0.417  0.667- 163 1.98 148 1.98 160 1.98 113 1.99
  18  0.333  0.667  0.000- 167 1.98 152 1.98 164 1.98 114 1.99
  19  0.333  0.667  0.333- 165 1.98 150 1.98 162 1.98 115 1.99
  20  0.333  0.667  0.667- 166 1.98 151 1.98 163 1.98 116 1.99
  21  0.333  0.917  0.000- 158 1.98 155 1.98 167 1.98 117 1.99
  22  0.333  0.917  0.333- 156 1.98 153 1.98 165 1.98 118 1.99
  23  0.333  0.917  0.667- 157 1.98 154 1.98 166 1.98 119 1.99
  24  0.583  0.167  0.000- 173 1.98 158 1.98 170 1.98 120 1.99
  25  0.583  0.167  0.333- 171 1.98 156 1.98 168 1.98 121 1.99
  26  0.583  0.167  0.667- 172 1.98 157 1.98 169 1.98 122 1.99
  27  0.583  0.417  0.000- 176 1.98 161 1.98 173 1.98 123 1.99
  28  0.583  0.417  0.333- 174 1.98 159 1.98 171 1.98 124 1.99
  29  0.583  0.417  0.667- 175 1.98 160 1.98 172 1.98 125 1.99
  30  0.583  0.667  0.000- 179 1.98 164 1.98 176 1.98 126 1.99
  31  0.583  0.667  0.333- 177 1.98 162 1.98 174 1.98 127 1.99
  32  0.583  0.667  0.667- 178 1.98 163 1.98 175 1.98 128 1.99
  33  0.583  0.917  0.000- 170 1.98 167 1.98 179 1.98 129 1.99
  34  0.583  0.917  0.333- 168 1.98 165 1.98 177 1.98 130 1.99
  35  0.583  0.917  0.667- 169 1.98 166 1.98 178 1.98 131 1.99
  36  0.833  0.167  0.000- 182 1.97 185 1.98 170 1.98 132 1.99 192 3.25
  37  0.833  0.167  0.333- 183 1.98 168 1.98 180 1.98 133 1.99
  38  0.833  0.167  0.667- 184 1.98 169 1.98 181 1.98 134 1.99
  39  0.833  0.417  0.000- 188 1.98 173 1.98 185 1.98 135 1.99
  40  0.833  0.417  0.333- 186 1.98 171 1.98 183 1.98 136 1.99
  41  0.833  0.417  0.667- 187 1.98 172 1.98 184 1.98 137 1.99
  42  0.833  0.667  0.000- 191 1.98 176 1.98 188 1.98 138 1.99
  43  0.833  0.667  0.333- 189 1.98 174 1.98 186 1.98 139 1.99
  44  0.833  0.667  0.667- 190 1.98 175 1.98 187 1.98 140 1.99
  45  0.833  0.917  0.000- 182 1.89 179 1.98 191 1.98 141 1.99 192 3.25
  46  0.833  0.917  0.333- 180 1.98 177 1.98 189 1.98 142 1.99
  47  0.833  0.917  0.667- 181 1.98 178 1.98 190 1.98 143 1.99
  48  0.167  0.083  0.167-  96 1.86 105 1.98 108 1.98 144 1.99 192 3.21
  49  0.167  0.083  0.500- 106 1.98 109 1.98  97 1.98 145 1.99
  50  0.167  0.083  0.833- 146 1.85 107 1.98 110 1.98  98 1.98 192 3.21
  51  0.167  0.333  0.167- 111 1.98  99 1.98 147 1.99  96 2.00 192 3.21
  52  0.167  0.333  0.500-  97 1.98 112 1.98 100 1.98 148 1.99
  53  0.167  0.333  0.833-  98 1.98 113 1.98 101 1.98 149 1.99 192 3.21
  54  0.167  0.583  0.167-  99 1.98 114 1.98 102 1.98 150 1.99
  55  0.167  0.583  0.500- 100 1.98 115 1.98 103 1.98 151 1.99
  56  0.167  0.583  0.833- 101 1.98 116 1.98 104 1.98 152 1.99
  57  0.167  0.833  0.167- 102 1.98 117 1.98 105 1.98 153 1.99
  58  0.167  0.833  0.500- 103 1.98 118 1.98 106 1.98 154 1.99
  59  0.167  0.833  0.833- 104 1.98 119 1.98 107 1.98 155 1.99
  60  0.417  0.083  0.167- 117 1.98 120 1.98 108 1.98 156 1.99
  61  0.417  0.083  0.500- 118 1.98 121 1.98 109 1.98 157 1.99
  62  0.417  0.083  0.833- 119 1.98 122 1.98 110 1.98 158 1.99
  63  0.417  0.333  0.167- 108 1.98 123 1.98 111 1.98 159 1.99
  64  0.417  0.333  0.500- 109 1.98 124 1.98 112 1.98 160 1.99
  65  0.417  0.333  0.833- 110 1.98 125 1.98 113 1.98 161 1.99
  66  0.417  0.583  0.167- 111 1.98 126 1.98 114 1.98 162 1.99
  67  0.417  0.583  0.500- 112 1.98 127 1.98 115 1.98 163 1.99
  68  0.417  0.583  0.833- 113 1.98 128 1.98 116 1.98 164 1.99
  69  0.417  0.833  0.167- 114 1.98 129 1.98 117 1.98 165 1.99
  70  0.417  0.833  0.500- 115 1.98 130 1.98 118 1.98 166 1.99
  71  0.417  0.833  0.833- 116 1.98 131 1.98 119 1.98 167 1.99
  72  0.667  0.083  0.167- 129 1.98 132 1.98 120 1.98 168 1.99
  73  0.667  0.083  0.500- 130 1.98 133 1.98 121 1.98 169 1.99
  74  0.667  0.083  0.833- 131 1.98 134 1.98 122 1.98 170 1.99
  75  0.667  0.333  0.167- 120 1.98 135 1.98 123 1.98 171 1.99
  76  0.667  0.333  0.500- 121 1.98 136 1.98 124 1.98 172 1.99
  77  0.667  0.333  0.833- 122 1.98 137 1.98 125 1.98 173 1.99
  78  0.667  0.583  0.167- 123 1.98 138 1.98 126 1.98 174 1.99
  79  0.667  0.583  0.500- 124 1.98 139 1.98 127 1.98 175 1.99
  80  0.667  0.583  0.833- 125 1.98 140 1.98 128 1.98 176 1.99
  81  0.667  0.833  0.167- 126 1.98 141 1.98 129 1.98 177 1.99
  82  0.667  0.833  0.500- 127 1.98 142 1.98 130 1.98 178 1.99
  83  0.667  0.833  0.833- 128 1.98 143 1.98 131 1.98 179 1.99
  84  0.917  0.083  0.167- 141 1.98 132 1.98 180 1.99  96 1.99 192 3.21
  85  0.917  0.083  0.500- 142 1.98  97 1.98 133 1.98 181 1.99
  86  0.917  0.083  0.833- 143 1.98  98 1.98 134 1.98 182 2.04 192 3.21
  87  0.917  0.333  0.167- 132 1.98  99 1.98 135 1.98 183 1.99
  88  0.917  0.333  0.500- 133 1.98 100 1.98 136 1.98 184 1.99
  89  0.917  0.333  0.833- 134 1.98 101 1.98 137 1.98 185 1.99
  90  0.917  0.583  0.167- 135 1.98 102 1.98 138 1.98 186 1.99
  91  0.917  0.583  0.500- 136 1.98 103 1.98 139 1.98 187 1.99
  92  0.917  0.583  0.833- 137 1.98 104 1.98 140 1.98 188 1.99
  93  0.917  0.833  0.167- 138 1.98 105 1.98 141 1.98 189 1.99
  94  0.917  0.833  0.500- 139 1.98 106 1.98 142 1.98 190 1.99
  95  0.917  0.833  0.833- 140 1.98 107 1.98 143 1.98 191 1.99
  96  0.087  0.162  0.133-  48 1.86  84 1.99  51 2.00 192 2.08
  97  0.083  0.167  0.460-  52 1.98  85 1.98  49 1.98   1 1.99
  98  0.083  0.167  0.794-  53 1.98  86 1.98  50 1.98   2 1.99
  99  0.083  0.417  0.127-  54 1.98  87 1.98  51 1.98   3 1.99
 100  0.083  0.417  0.460-  55 1.98  88 1.98  52 1.98   4 1.99
 101  0.083  0.417  0.794-  56 1.98  89 1.98  53 1.98   5 1.99
 102  0.083  0.667  0.127-  57 1.98  90 1.98  54 1.98   6 1.99
 103  0.083  0.667  0.460-  58 1.98  91 1.98  55 1.98   7 1.99
 104  0.083  0.667  0.794-  59 1.98  92 1.98  56 1.98   8 1.99
 105  0.083  0.917  0.127-  48 1.98  93 1.98  57 1.98   9 1.99
 106  0.083  0.917  0.460-  49 1.98  94 1.98  58 1.98  10 1.99
 107  0.083  0.917  0.794-  50 1.98  95 1.98  59 1.98  11 1.99
 108  0.333  0.167  0.127-  63 1.98  48 1.98  60 1.98  12 1.99
 109  0.333  0.167  0.460-  64 1.98  49 1.98  61 1.98  13 1.99
 110  0.333  0.167  0.794-  65 1.98  50 1.98  62 1.98  14 1.99
 111  0.333  0.417  0.127-  66 1.98  51 1.98  63 1.98  15 1.99
 112  0.333  0.417  0.460-  67 1.98  52 1.98  64 1.98  16 1.99
 113  0.333  0.417  0.794-  68 1.98  53 1.98  65 1.98  17 1.99
 114  0.333  0.667  0.127-  69 1.98  54 1.98  66 1.98  18 1.99
 115  0.333  0.667  0.460-  70 1.98  55 1.98  67 1.98  19 1.99
 116  0.333  0.667  0.794-  71 1.98  56 1.98  68 1.98  20 1.99
 117  0.333  0.917  0.127-  60 1.98  57 1.98  69 1.98  21 1.99
 118  0.333  0.917  0.460-  61 1.98  58 1.98  70 1.98  22 1.99
 119  0.333  0.917  0.794-  62 1.98  59 1.98  71 1.98  23 1.99
 120  0.583  0.167  0.127-  75 1.98  60 1.98  72 1.98  24 1.99
 121  0.583  0.167  0.460-  76 1.98  61 1.98  73 1.98  25 1.99
 122  0.583  0.167  0.794-  77 1.98  62 1.98  74 1.98  26 1.99
 123  0.583  0.417  0.127-  78 1.98  63 1.98  75 1.98  27 1.99
 124  0.583  0.417  0.460-  79 1.98  64 1.98  76 1.98  28 1.99
 125  0.583  0.417  0.794-  80 1.98  65 1.98  77 1.98  29 1.99
 126  0.583  0.667  0.127-  81 1.98  66 1.98  78 1.98  30 1.99
 127  0.583  0.667  0.460-  82 1.98  67 1.98  79 1.98  31 1.99
 128  0.583  0.667  0.794-  83 1.98  68 1.98  80 1.98  32 1.99
 129  0.583  0.917  0.127-  72 1.98  69 1.98  81 1.98  33 1.99
 130  0.583  0.917  0.460-  73 1.98  70 1.98  82 1.98  34 1.99
 131  0.583  0.917  0.794-  74 1.98  71 1.98  83 1.98  35 1.99
 132  0.833  0.167  0.127-  87 1.98  72 1.98  84 1.98  36 1.99
 133  0.833  0.167  0.460-  88 1.98  73 1.98  85 1.98  37 1.99
 134  0.833  0.167  0.794-  89 1.98  74 1.98  86 1.98  38 1.99
 135  0.833  0.417  0.127-  90 1.98  75 1.98  87 1.98  39 1.99
 136  0.833  0.417  0.460-  91 1.98  76 1.98  88 1.98  40 1.99
 137  0.833  0.417  0.794-  92 1.98  77 1.98  89 1.98  41 1.99
 138  0.833  0.667  0.127-  93 1.98  78 1.98  90 1.98  42 1.99
 139  0.833  0.667  0.460-  94 1.98  79 1.98  91 1.98  43 1.99
 140  0.833  0.667  0.794-  95 1.98  80 1.98  92 1.98  44 1.99
 141  0.833  0.917  0.127-  84 1.98  81 1.98  93 1.98  45 1.99
 142  0.833  0.917  0.460-  85 1.98  82 1.98  94 1.98  46 1.99
 143  0.833  0.917  0.794-  86 1.98  83 1.98  95 1.98  47 1.99
 144  0.167  0.083  0.294-  10 1.98  13 1.98   1 1.98  48 1.99
 145  0.167  0.083  0.627-  11 1.98  14 1.98   2 1.98  49 1.99
 146  0.166  0.080  0.952-  50 1.85   9 1.99  12 2.03 192 2.05
 147  0.167  0.333  0.294-   1 1.98  16 1.98   4 1.98  51 1.99
 148  0.167  0.333  0.627-   2 1.98  17 1.98   5 1.98  52 1.99
 149  0.178  0.331  0.961-  15 1.86 192 1.95  53 1.99   3 2.13
 150  0.167  0.583  0.294-   4 1.98  19 1.98   7 1.98  54 1.99
 151  0.167  0.583  0.627-   5 1.98  20 1.98   8 1.98  55 1.99
 152  0.167  0.583  0.960-   3 1.98  18 1.98   6 1.98  56 1.99
 153  0.167  0.833  0.294-   7 1.98  22 1.98  10 1.98  57 1.99
 154  0.167  0.833  0.627-   8 1.98  23 1.98  11 1.98  58 1.99
 155  0.167  0.833  0.960-   6 1.98  21 1.98   9 1.98  59 1.99
 156  0.417  0.083  0.294-  22 1.98  25 1.98  13 1.98  60 1.99
 157  0.417  0.083  0.627-  23 1.98  26 1.98  14 1.98  61 1.99
 158  0.417  0.083  0.960-  21 1.98  24 1.98  12 1.98  62 1.99
 159  0.417  0.333  0.294-  13 1.98  28 1.98  16 1.98  63 1.99
 160  0.417  0.333  0.627-  14 1.98  29 1.98  17 1.98  64 1.99
 161  0.417  0.333  0.960-  12 1.98  27 1.98  15 1.98  65 1.99
 162  0.417  0.583  0.294-  16 1.98  31 1.98  19 1.98  66 1.99
 163  0.417  0.583  0.627-  17 1.98  32 1.98  20 1.98  67 1.99
 164  0.417  0.583  0.960-  15 1.98  30 1.98  18 1.98  68 1.99
 165  0.417  0.833  0.294-  19 1.98  34 1.98  22 1.98  69 1.99
 166  0.417  0.833  0.627-  20 1.98  35 1.98  23 1.98  70 1.99
 167  0.417  0.833  0.960-  18 1.98  33 1.98  21 1.98  71 1.99
 168  0.667  0.083  0.294-  34 1.98  37 1.98  25 1.98  72 1.99
 169  0.667  0.083  0.627-  35 1.98  38 1.98  26 1.98  73 1.99
 170  0.667  0.083  0.960-  33 1.98  36 1.98  24 1.98  74 1.99
 171  0.667  0.333  0.294-  25 1.98  40 1.98  28 1.98  75 1.99
 172  0.667  0.333  0.627-  26 1.98  41 1.98  29 1.98  76 1.99
 173  0.667  0.333  0.960-  24 1.98  39 1.98  27 1.98  77 1.99
 174  0.667  0.583  0.294-  28 1.98  43 1.98  31 1.98  78 1.99
 175  0.667  0.583  0.627-  29 1.98  44 1.98  32 1.98  79 1.99
 176  0.667  0.583  0.960-  27 1.98  42 1.98  30 1.98  80 1.99
 177  0.667  0.833  0.294-  31 1.98  46 1.98  34 1.98  81 1.99
 178  0.667  0.833  0.627-  32 1.98  47 1.98  35 1.98  82 1.99
 179  0.667  0.833  0.960-  30 1.98  45 1.98  33 1.98  83 1.99
 180  0.917  0.083  0.294-  46 1.98   1 1.98  37 1.98  84 1.99
 181  0.917  0.083  0.627-  47 1.98   2 1.98  38 1.98  85 1.99
 182  0.911  0.076  0.964-  45 1.89  36 1.97 192 2.02  86 2.04
 183  0.917  0.333  0.294-  37 1.98   4 1.98  40 1.98  87 1.99
 184  0.917  0.333  0.627-  38 1.98   5 1.98  41 1.98  88 1.99
 185  0.917  0.333  0.960-  36 1.98   3 1.98  39 1.98  89 1.99
 186  0.917  0.583  0.294-  40 1.98   7 1.98  43 1.98  90 1.99
 187  0.917  0.583  0.627-  41 1.98   8 1.98  44 1.98  91 1.99
 188  0.917  0.583  0.960-  39 1.98   6 1.98  42 1.98  92 1.99
 189  0.917  0.833  0.294-  43 1.98  10 1.98  46 1.98  93 1.99
 190  0.917  0.833  0.627-  44 1.98  11 1.98  47 1.98  94 1.99
 191  0.917  0.833  0.960-  42 1.98   9 1.98  45 1.98  95 1.99
 192  0.083  0.167  0.000- 149 1.95 182 2.02 146 2.05  96 2.08  51 3.21  84 3.21  53 3.21  86 3.21
                            48 3.21  50 3.21  15 3.25  45 3.25   3 3.25   9 3.25  36 3.25  12 3.25
 
  LATTYP: Found a hexagonal cell.
 ALAT       =    12.9974900980
 C/A-ratio  =     1.2026632506
  
  Lattice vectors:
  
 A1 = (  12.9974900980,   0.0000000000,   0.0000000000)
 A2 = (  -6.4987450490,  11.2561566103,   0.0000000000)
 A3 = (   0.0000000000,   0.0000000000,  15.6316036913)


Analysis of symmetry for initial positions (statically):
=====================================================================
 Subroutine PRICEL returns:
 Original cell was already a primitive cell.
 

 Routine SETGRP: Setting up the symmetry group for a 
 hexagonal supercell.


 Subroutine GETGRP returns: Found  1 space group operations
 (whereof  1 operations were pure point group operations)
 out of a pool of 24 trial point group operations.


The static configuration has the point symmetry C_1 .


Analysis of symmetry for dynamics (positions and initial velocities):
=====================================================================
 Subroutine PRICEL returns:
 Original cell was already a primitive cell.
 

 Routine SETGRP: Setting up the symmetry group for a 
 hexagonal supercell.


 Subroutine GETGRP returns: Found  1 space group operations
 (whereof  1 operations were pure point group operations)
 out of a pool of 24 trial point group operations.


The dynamic configuration has the point symmetry C_1 .


Analysis of structural, dynamic, and magnetic symmetry:
=====================================================================
 Subroutine PRICEL returns:
 Original cell was already a primitive cell.
 

 Routine SETGRP: Setting up the symmetry group for a 
 hexagonal supercell.


 Subroutine GETGRP returns: Found  1 space group operations
 (whereof  1 operations were pure point group operations)
 out of a pool of 24 trial point group operations.


The overall configuration has the point symmetry C_1 .


 Subroutine INISYM returns: Found  1 space group operations
 (whereof  1 operations are pure point group operations),
 and found     1 'primitive' translations


----------------------------------------------------------------------------------------

                                     Primitive cell                                     

  volume of cell :    2286.9315

  direct lattice vectors                    reciprocal lattice vectors
    12.997490098  0.000000000  0.000000000     0.076937931  0.044420135  0.000000000
    -6.498745049 11.256156610  0.000000000     0.000000000  0.088840271  0.000000000
     0.000000000  0.000000000 15.631603691     0.000000000  0.000000000  0.063972963

  length of vectors
    12.997490098 12.997490098 15.631603691     0.088840271  0.088840271  0.063972963

  position of ions in fractional coordinates (direct lattice)
     0.083333333  0.166666667  0.333480727
     0.083333333  0.166666667  0.666814061
     0.083333333  0.416666667  0.000147394
     0.083333333  0.416666667  0.333480727
     0.083333333  0.416666667  0.666814061
     0.083333333  0.666666667  0.000147394
     0.083333333  0.666666667  0.333480727
     0.083333333  0.666666667  0.666814061
     0.083333333  0.916666667  0.000147394
     0.083333333  0.916666667  0.333480727
     0.083333333  0.916666667  0.666814061
     0.333333333  0.166666667  0.000147394
     0.333333333  0.166666667  0.333480727
     0.333333333  0.166666667  0.666814061
     0.333333333  0.416666667  0.000147394
     0.333333333  0.416666667  0.333480727
     0.333333333  0.416666667  0.666814061
     0.333333333  0.666666667  0.000147394
     0.333333333  0.666666667  0.333480727
     0.333333333  0.666666667  0.666814061
     0.333333333  0.916666667  0.000147394
     0.333333333  0.916666667  0.333480727
     0.333333333  0.916666667  0.666814061
     0.583333333  0.166666667  0.000147394
     0.583333333  0.166666667  0.333480727
     0.583333333  0.166666667  0.666814061
     0.583333333  0.416666667  0.000147394
     0.583333333  0.416666667  0.333480727
     0.583333333  0.416666667  0.666814061
     0.583333333  0.666666667  0.000147394
     0.583333333  0.666666667  0.333480727
     0.583333333  0.666666667  0.666814061
     0.583333333  0.916666667  0.000147394
     0.583333333  0.916666667  0.333480727
     0.583333333  0.916666667  0.666814061
     0.833333333  0.166666667  0.000147394
     0.833333333  0.166666667  0.333480727
     0.833333333  0.166666667  0.666814061
     0.833333333  0.416666667  0.000147394
     0.833333333  0.416666667  0.333480727
     0.833333333  0.416666667  0.666814061
     0.833333333  0.666666667  0.000147394
     0.833333333  0.666666667  0.333480727
     0.833333333  0.666666667  0.666814061
     0.833333333  0.916666667  0.000147394
     0.833333333  0.916666667  0.333480727
     0.833333333  0.916666667  0.666814061
     0.166666667  0.083333333  0.166814061
     0.166666667  0.083333333  0.500147394
     0.166666667  0.083333333  0.833480727
     0.166666667  0.333333333  0.166814061
     0.166666667  0.333333333  0.500147394
     0.166666667  0.333333333  0.833480727
     0.166666667  0.583333333  0.166814061
     0.166666667  0.583333333  0.500147394
     0.166666667  0.583333333  0.833480727
     0.166666667  0.833333333  0.166814061
     0.166666667  0.833333333  0.500147394
     0.166666667  0.833333333  0.833480727
     0.416666667  0.083333333  0.166814061
     0.416666667  0.083333333  0.500147394
     0.416666667  0.083333333  0.833480727
     0.416666667  0.333333333  0.166814061
     0.416666667  0.333333333  0.500147394
     0.416666667  0.333333333  0.833480727
     0.416666667  0.583333333  0.166814061
     0.416666667  0.583333333  0.500147394
     0.416666667  0.583333333  0.833480727
     0.416666667  0.833333333  0.166814061
     0.416666667  0.833333333  0.500147394
     0.416666667  0.833333333  0.833480727
     0.666666667  0.083333333  0.166814061
     0.666666667  0.083333333  0.500147394
     0.666666667  0.083333333  0.833480727
     0.666666667  0.333333333  0.166814061
     0.666666667  0.333333333  0.500147394
     0.666666667  0.333333333  0.833480727
     0.666666667  0.583333333  0.166814061
     0.666666667  0.583333333  0.500147394
     0.666666667  0.583333333  0.833480727
     0.666666667  0.833333333  0.166814061
     0.666666667  0.833333333  0.500147394
     0.666666667  0.833333333  0.833480727
     0.916666667  0.083333333  0.166814061
     0.916666667  0.083333333  0.500147394
     0.916666667  0.083333333  0.833480727
     0.916666667  0.333333333  0.166814061
     0.916666667  0.333333333  0.500147394
     0.916666667  0.333333333  0.833480727
     0.916666667  0.583333333  0.166814061
     0.916666667  0.583333333  0.500147394
     0.916666667  0.583333333  0.833480727
     0.916666667  0.833333333  0.166814061
     0.916666667  0.833333333  0.500147394
     0.916666667  0.833333333  0.833480727
     0.086829441  0.161935861  0.132773800
     0.083333333  0.166666667  0.460485940
     0.083333333  0.166666667  0.793819273
     0.083333333  0.416666667  0.127152606
     0.083333333  0.416666667  0.460485940
     0.083333333  0.416666667  0.793819273
     0.083333333  0.666666667  0.127152606
     0.083333333  0.666666667  0.460485940
     0.083333333  0.666666667  0.793819273
     0.083333333  0.916666667  0.127152606
     0.083333333  0.916666667  0.460485940
     0.083333333  0.916666667  0.793819273
     0.333333333  0.166666667  0.127152606
     0.333333333  0.166666667  0.460485940
     0.333333333  0.166666667  0.793819273
     0.333333333  0.416666667  0.127152606
     0.333333333  0.416666667  0.460485940
     0.333333333  0.416666667  0.793819273
     0.333333333  0.666666667  0.127152606
     0.333333333  0.666666667  0.460485940
     0.333333333  0.666666667  0.793819273
     0.333333333  0.916666667  0.127152606
     0.333333333  0.916666667  0.460485940
     0.333333333  0.916666667  0.793819273
     0.583333333  0.166666667  0.127152606
     0.583333333  0.166666667  0.460485940
     0.583333333  0.166666667  0.793819273
     0.583333333  0.416666667  0.127152606
     0.583333333  0.416666667  0.460485940
     0.583333333  0.416666667  0.793819273
     0.583333333  0.666666667  0.127152606
     0.583333333  0.666666667  0.460485940
     0.583333333  0.666666667  0.793819273
     0.583333333  0.916666667  0.127152606
     0.583333333  0.916666667  0.460485940
     0.583333333  0.916666667  0.793819273
     0.833333333  0.166666667  0.127152606
     0.833333333  0.166666667  0.460485940
     0.833333333  0.166666667  0.793819273
     0.833333333  0.416666667  0.127152606
     0.833333333  0.416666667  0.460485940
     0.833333333  0.416666667  0.793819273
     0.833333333  0.666666667  0.127152606
     0.833333333  0.666666667  0.460485940
     0.833333333  0.666666667  0.793819273
     0.833333333  0.916666667  0.127152606
     0.833333333  0.916666667  0.460485940
     0.833333333  0.916666667  0.793819273
     0.166666667  0.083333333  0.293819273
     0.166666667  0.083333333  0.627152606
     0.165850916  0.080191677  0.952074853
     0.166666667  0.333333333  0.293819273
     0.166666667  0.333333333  0.627152606
     0.178306557  0.330597764  0.960520688
     0.166666667  0.583333333  0.293819273
     0.166666667  0.583333333  0.627152606
     0.166666667  0.583333333  0.960485940
     0.166666667  0.833333333  0.293819273
     0.166666667  0.833333333  0.627152606
     0.166666667  0.833333333  0.960485940
     0.416666667  0.083333333  0.293819273
     0.416666667  0.083333333  0.627152606
     0.416666667  0.083333333  0.960485940
     0.416666667  0.333333333  0.293819273
     0.416666667  0.333333333  0.627152606
     0.416666667  0.333333333  0.960485940
     0.416666667  0.583333333  0.293819273
     0.416666667  0.583333333  0.627152606
     0.416666667  0.583333333  0.960485940
     0.416666667  0.833333333  0.293819273
     0.416666667  0.833333333  0.627152606
     0.416666667  0.833333333  0.960485940
     0.666666667  0.083333333  0.293819273
     0.666666667  0.083333333  0.627152606
     0.666666667  0.083333333  0.960485940
     0.666666667  0.333333333  0.293819273
     0.666666667  0.333333333  0.627152606
     0.666666667  0.333333333  0.960485940
     0.666666667  0.583333333  0.293819273
     0.666666667  0.583333333  0.627152606
     0.666666667  0.583333333  0.960485940
     0.666666667  0.833333333  0.293819273
     0.666666667  0.833333333  0.627152606
     0.666666667  0.833333333  0.960485940
     0.916666667  0.083333333  0.293819273
     0.916666667  0.083333333  0.627152606
     0.910945385  0.076444308  0.963760844
     0.916666667  0.333333333  0.293819273
     0.916666667  0.333333333  0.627152606
     0.916666667  0.333333333  0.960485940
     0.916666667  0.583333333  0.293819273
     0.916666667  0.583333333  0.627152606
     0.916666667  0.583333333  0.960485940
     0.916666667  0.833333333  0.293819273
     0.916666667  0.833333333  0.627152606
     0.916666667  0.833333333  0.960485940
     0.083333333  0.166666667  0.000147394

  ion indices of the primitive-cell ions
   primitive index   ion index
                 1           1
                 2           2
                 3           3
                 4           4
                 5           5
                 6           6
                 7           7
                 8           8
                 9           9
                10          10
                11          11
                12          12
                13          13
                14          14
                15          15
                16          16
                17          17
                18          18
                19          19
                20          20
                21          21
                22          22
                23          23
                24          24
                25          25
                26          26
                27          27
                28          28
                29          29
                30          30
                31          31
                32          32
                33          33
                34          34
                35          35
                36          36
                37          37
                38          38
                39          39
                40          40
                41          41
                42          42
                43          43
                44          44
                45          45
                46          46
                47          47
                48          48
                49          49
                50          50
                51          51
                52          52
                53          53
                54          54
                55          55
                56          56
                57          57
                58          58
                59          59
                60          60
                61          61
                62          62
                63          63
                64          64
                65          65
                66          66
                67          67
                68          68
                69          69
                70          70
                71          71
                72          72
                73          73
                74          74
                75          75
                76          76
                77          77
                78          78
                79          79
                80          80
                81          81
                82          82
                83          83
                84          84
                85          85
                86          86
                87          87
                88          88
                89          89
                90          90
                91          91
                92          92
                93          93
                94          94
                95          95
                96          96
                97          97
                98          98
                99          99
               100         100
               101         101
               102         102
               103         103
               104         104
               105         105
               106         106
               107         107
               108         108
               109         109
               110         110
               111         111
               112         112
               113         113
               114         114
               115         115
               116         116
               117         117
               118         118
               119         119
               120         120
               121         121
               122         122
               123         123
               124         124
               125         125
               126         126
               127         127
               128         128
               129         129
               130         130
               131         131
               132         132
               133         133
               134         134
               135         135
               136         136
               137         137
               138         138
               139         139
               140         140
               141         141
               142         142
               143         143
               144         144
               145         145
               146         146
               147         147
               148         148
               149         149
               150         150
               151         151
               152         152
               153         153
               154         154
               155         155
               156         156
               157         157
               158         158
               159         159
               160         160
               161         161
               162         162
               163         163
               164         164
               165         165
               166         166
               167         167
               168         168
               169         169
               170         170
               171         171
               172         172
               173         173
               174         174
               175         175
               176         176
               177         177
               178         178
               179         179
               180         180
               181         181
               182         182
               183         183
               184         184
               185         185
               186         186
               187         187
               188         188
               189         189
               190         190
               191         191
               192         192

----------------------------------------------------------------------------------------

 
 
 KPOINTS: Num irrep kpoints: 4                    

Automatic generation of k-mesh.
 Grid dimensions read from file:
 generate k-points for:    2    2    1

 Generating k-lattice:

  Cartesian coordinates                     Fractional coordinates (reciprocal lattice)
     0.038468966  0.022210068  0.000000000     0.500000000  0.000000000  0.000000000
     0.000000000  0.044420135  0.000000000     0.000000000  0.500000000  0.000000000
     0.000000000  0.000000000  0.063972963     0.000000000  0.000000000  1.000000000

  Length of vectors
     0.044420135  0.044420135  0.063972963

  Shift w.r.t. Gamma in fractional coordinates (k-lattice)
     0.000000000  0.000000000  0.000000000

 
 Subroutine IBZKPT returns following result:
 ===========================================
 
 Found      4 irreducible k-points:
 
 Following reciprocal coordinates:
            Coordinates               Weight
  0.000000  0.000000  0.000000      1.000000
  0.500000 -0.000000  0.000000      1.000000
  0.000000  0.500000  0.000000      1.000000
  0.500000  0.500000  0.000000      1.000000
 
 Following cartesian coordinates:
            Coordinates               Weight
  0.000000  0.000000  0.000000      1.000000
  0.038469  0.022210  0.000000      1.000000
  0.000000  0.044420  0.000000      1.000000
  0.038469  0.066630  0.000000      1.000000
 
 
 Subroutine IBZKPT_HF returns following result:
 ==============================================
 
 Found      4 k-points in 1st BZ
 the following      4 k-points will be used (e.g. in the exchange kernel)
 Following reciprocal coordinates:   # in IRBZ
  0.000000  0.000000  0.000000    0.25000000   1 t-inv F
  0.500000 -0.000000  0.000000    0.25000000   2 t-inv F
  0.000000  0.500000  0.000000    0.25000000   3 t-inv F
  0.500000  0.500000  0.000000    0.25000000   4 t-inv F


--------------------------------------------------------------------------------------------------------




 Dimension of arrays:
   k-points           NKPTS =      4   k-points in BZ     NKDIM =      4   number of bands    NBANDS=   1148
   number of dos      NEDOS =    301   number of ions     NIONS =    192
   non local maximal  LDIM  =      6   non local SUM 2l+1 LMDIM =     18
   total plane-waves  NPLWV = 327680
   max r-space proj   IRMAX =   2510   max aug-charges    IRDMAX=  11613
   dimension x,y,z NGX =    64 NGY =   64 NGZ =   80
   dimension x,y,z NGXF=   128 NGYF=  128 NGZF=  160
   support grid    NGXF=   128 NGYF=  128 NGZF=  160
   ions per type =              95  96   1
   NGX,Y,Z   is equivalent  to a cutoff of   8.19,  8.19,  8.51 a.u.
   NGXF,Y,Z  is equivalent  to a cutoff of  16.37, 16.37, 17.02 a.u.

 SYSTEM =  unknown system                          
 POSCAR =  Nd1 Zn95 O96                            

 Startparameter for this run:
   NWRITE =      2    write-flag & timer
   PREC   = normal    normal or accurate (medium, high low for compatibility)
   ISTART =      0    job   : 0-new  1-cont  2-samecut
   ICHARG =      2    charge: 1-file 2-atom 10-const
   ISPIN  =      2    spin polarized calculation?
   LNONCOLLINEAR =      F non collinear calculations
   LSORBIT =      F    spin-orbit coupling
   INIWAV =      1    electr: 0-lowe 1-rand  2-diag
   LASPH  =      T    aspherical Exc in radial PAW
 Electronic Relaxation 1
   ENCUT  =  400.0 eV  29.40 Ry    5.42 a.u.  21.20 21.20 25.49*2*pi/ulx,y,z
   ENINI  =  400.0     initial cutoff
   ENAUG  =  605.4 eV  augmentation charge cutoff
   NELM   =    100;   NELMIN=  2; NELMDL= -5     # of ELM steps 
   EDIFF  = 0.1E-04   stopping-criterion for ELM
   LREAL  =      T    real-space projection
   NLSPLINE    = F    spline interpolate recip. space projectors
   LCOMPAT=      F    compatible to vasp.4.4
   GGA_COMPAT  = T    GGA compatible to vasp.4.4-vasp.4.6
   LMAXPAW     = -100 max onsite density
   LMAXMIX     =    2 max onsite mixed and CHGCAR
   VOSKOWN=      0    Vosko Wilk Nusair interpolation
   ROPT   =   -0.00050  -0.00050  -0.00050
 Ionic relaxation
   EDIFFG = -.3E-01   stopping-criterion for IOM
   NSW    =    300    number of steps for IOM
   NBLOCK =      1;   KBLOCK =    300    inner block; outer block 
   IBRION =      2    ionic relax: 0-MD 1-quasi-New 2-CG
   NFREE  =      1    steps in history (QN), initial steepest desc. (CG)
   ISIF   =      2    stress and relaxation
   IWAVPR =     11    prediction:  0-non 1-charg 2-wave 3-comb
   ISYM   =      3    0-nonsym 1-usesym 2-fastsym
   LCORR  =      T    Harris-Foulkes like correction to forces

   POTIM  = 0.5000    time-step for ionic-motion
   TEIN   =    0.0    initial temperature
   TEBEG  =    0.0;   TEEND  =   0.0 temperature during run
   SMASS  =  -3.00    Nose mass-parameter (am)
   estimated Nose-frequenzy (Omega)   =  0.10E-29 period in steps = 0.13E+47 mass=  -0.386E-26a.u.
   SCALEE = 1.0000    scale energy and forces
   NPACO  =    256;   APACO  = 10.0  distance and # of slots for P.C.
   PSTRESS=    0.0 pullay stress

  Mass of Ions in am
   POMASS =  65.39 16.00144.24
  Ionic Valenz
   ZVAL   =  12.00  6.00 11.00
  Atomic Wigner-Seitz radii
   RWIGS  =  -1.00 -1.00 -1.00
  virtual crystal weights 
   VCA    =   1.00  1.00  1.00
   NELECT =    1728.0000    total number of electrons
   NUPDOWN=      -1.0000    fix difference up-down

 DOS related values:
   EMIN   =  10.00;   EMAX   =-10.00  energy-range for DOS
   EFERMI =   0.00;   METHOD = LEGACY      
   ISMEAR =     0;   SIGMA  =   0.10  broadening in eV -4-tet -1-fermi 0-gaus
   EFERMI_NEDOS =   21; number of points for ismear=-14 and -15

 Electronic relaxation 2 (details)
   IALGO  =     53    algorithm
   LDIAG  =      T    sub-space diagonalisation (order eigenvalues)
   LSUBROT=      F    optimize rotation matrix (better conditioning)
   LROBUST=      F    robust break criterion during scf (extrapolated energy error)
   ISEARCH=      0    line search for conjugate gradient (0, 1=use gradient)
   TURBO    =      0    0=normal 1=particle mesh
   IRESTART =      0    0=no restart 2=restart with 2 vectors
   NREBOOT  =      0    no. of reboots
   NMIN     =      0    reboot dimension
   EREF     =   0.00    reference energy to select bands
   IMIX   =      4    mixing-type and parameters
     AMIX     =   0.40;   BMIX     =  1.00
     AMIX_MAG =   1.60;   BMIX_MAG =  1.00
     AMIN     =   0.10
     WC   =   100.;   INIMIX=   1;  MIXPRE=   1;  MAXMIX= -45

 Intra band minimization:
   WEIMIN = 0.0010     energy-eigenvalue tresh-hold
   EBREAK =  0.22E-08  absolut break condition
   DEPER  =   0.30     relativ break condition  

   TIME   =   0.40     timestep for ELM

  volume/ion in A,a.u.               =      11.91        80.38
  Fermi-wavevector in a.u.,A,eV,Ry     =   1.491094  2.817759 30.250667  2.223361
  Thomas-Fermi vector in A             =   2.603793
 
 Write flags
   LWAVE        =      T    write WAVECAR
   LDOWNSAMPLE  =      F    k-point downsampling of WAVECAR
   LCHARG       =      F    write CHGCAR
   LVTOT        =      F    write LOCPOT, total local potential
   LVHAR        =      F    write LOCPOT, Hartree potential only
   WRT_POTENTIAL= false  ! write potential to hdf5 file
   LELF         =      F    write electronic localiz. function (ELF)
   LORBIT       =     10    0 simple, 1 ext, 2 COOP (PROOUT), +10 PAW based schemes


 Python interface
   PLUGINS active      =      F    recompile with -DPLUGINS to activate
 
 Dipole corrections
   LMONO      =      F    monopole corrections only (constant potential shift)
   LDIPOL     =      F    correct potential (dipole corrections)
   IDIPOL     =      0    1-x, 2-y, 3-z, 4-all directions 
   EPSILON    =  1.0000000 bulk dielectric constant
   LVACPOTAV  =      F  vacuum potentials using an averaging scheme for the charge density
   VACPOTFLAT =  0.1000000 required flatness to determine vacuum potential
 
Coulomb truncation method
  LTRUNCATE          =      F  Coulomb kernel truncation to be used

 
 Exchange correlation treatment:
   GGA     = PE    functional components
   XC_C    = 1    coefficients multiplying the functional components
   LIBXC   =     F    Libxc                    
   VOSKOWN =     0    Vosko Wilk Nusair interpolation
   EXXOEP  =     0    0=HF, 1=EXX-LHF (local Hartree Fock) 2=EXX OEP
   LHFCALC =     T    Hartree Fock is set to
   LSYMGRAD=     F    symmetrize gradient (conserves proper symmetry)
   PRECFOCK=fast      Normal, Fast or Accurate (Low or Medium for compatibility)
   LRHFCALC=     F    long range Hartree Fock
   LRSCOR  =     F    long range correlation only (use DFT for short range part)
   LTHOMAS =     F    Thomas Fermi screening in HF
   LMODELHF=     F    short range full HF, long range fraction AEXX
   FOCKCORR=     1    mode to apply convergence corrections
   LFOCKACE=     T    use Adeptively-Compressed-Exchange operator
   ENCUT4O =  -1.0   cutoff for four orbital integrals eV
   LMAXFOCK=     4    L truncation for augmentation on plane wave grid
   LMAXFOCKAE=  -1    L truncation for all-electron charge restoration on plane wave grid
   NMAXFOCKAE=   1    number of basis functions for all-electron charge restoration
   LFOCKAEDFT=     F  apply the AE augmentation even for DFT
   NKREDX  =     1    reduce k-point grid by
   NKREDY  =     1    reduce k-point grid by
   NKREDZ  =     1    reduce k-point grid by
   SHIFTRED=     F    shift reduced grid of Gamma
   HFKIDENT=     F    idential grid for each k-point
   ODDONLY =     F    use only odd q-grid points
   EVENONLY=     F    use only even q-grid points
   HFALPHA =   -1.0000 decay constant for conv. correction
   MCALPHA =    0.0000 extent of test-charge in conv. correction in multipole expansion
   AEXX    =    0.3600 exact exchange contribution
   HFSCREEN=    0.2000 screening length (either q_TF or 0.3 A-1)
   HFSCREENC=   0.2000 screening length for correlation (either q_TF or 0.3 A-1)
   HFRCUT  =    0.0000 spherical cutoff for potential kernel
   ALDAX   =    0.6400 LDA exchange part
   AGGAX   =    0.6400 GGA exchange part
   AMGGAX  =    0.6400 meta-GGA exchange part
   ALDAC   =    1.0000 LDA correlation
   AGGAC   =    1.0000 GGA correlation
   AMGGAC  =    1.0000 meta-GGA correlation
   ENCUTFOCK=  -1.0 apply spherical cutoff to Coloumb kernel
   NBANDSGWLOW=     1    first orbital included in HF term
   NBLOCK_FOCK=    64    blocking factor in FOCK_ACC

 Parameters of functionals:
   PE:
     No parameter
 
 Van der Waals corrections
   IVDW    =     0    specifies the selected vdW correction

 Linear response parameters
   LEPSILON=     F    determine dielectric tensor
   LRPA    =     F    only Hartree local field effects (RPA)
   LNABLA  =     F    use nabla operator in PAW spheres
   LVEL    =     F    velocity operator in full k-point grid
   CSHIFT  =0.1000    complex shift for real part using Kramers Kronig
   OMEGAMAX=  -1.0    maximum frequency
   DEG_THRESHOLD= 0.2000000E-02 threshold for treating states as degnerate
   RTIME   =   -0.100 relaxation time in fs
  (WPLASMAI=    0.000 imaginary part of plasma frequency in eV, 0.658/RTIME)
   DFIELD  = 0.0000000 0.0000000 0.0000000 field for delta impulse in time
 
  Optional k-point grid parameters
   LKPOINTS_OPT  =     F    use optional k-point grid
   KPOINTS_OPT_MODE=     1    mode for optional k-point grid
 
 Orbital magnetization related:
   ORBITALMAG=     F  switch on orbital magnetization
   LCHIMAG   =     F  perturbation theory with respect to B field
   DQ        =  0.001000  dq finite difference perturbation B field
   LLRAUG    =     F  two centre corrections for induced B field
   LBONE     =     F  B-component reconstruction in AE one-centre
   LVGVCALC  =     T  calculate vGv susceptibility
   LVGVAPPL  =     F  apply vGv susceptibility instead of pGv for G=0

 Random number generation:
   RANDOM_GENERATOR = DEFAULT
   PCG_SEED         = not used


--------------------------------------------------------------------------------------------------------


 conjugate gradient relaxation of ions
 charge density and potential will be updated during run
 spin polarized calculation
 Conjugate gradient for all bands (Freysoldt, et al. PRB 79, 241103 (2009))
 perform sub-space diagonalisation
    before iterative eigenvector-optimisation
 modified Broyden-mixing scheme, WC =      100.0
 initial mixing is a Kerker type mixing with AMIX =  0.4000 and BMIX =      1.0000
 Hartree-type preconditioning will be used
 using additional bands          284
 real space projection scheme for non local part
 use partial core corrections
 no Harris-corrections to forces 
 use gradient corrections 
 use of overlap-Matrix (Vanderbilt PP)
 Gauss-broadening in eV      SIGMA  =   0.10


--------------------------------------------------------------------------------------------------------


  energy-cutoff  :      400.00
  volume of cell :     2286.93
      direct lattice vectors                 reciprocal lattice vectors
    12.997490098  0.000000000  0.000000000     0.076937931  0.044420135  0.000000000
    -6.498745049 11.256156610  0.000000000     0.000000000  0.088840271  0.000000000
     0.000000000  0.000000000 15.631603691     0.000000000  0.000000000  0.063972963

  length of vectors
    12.997490098 12.997490098 15.631603691     0.088840271  0.088840271  0.063972963


 
 k-points in units of 2pi/SCALE and weight: Num irrep kpoints: 4                    
   0.00000000  0.00000000  0.00000000       0.250
   0.03846897  0.02221007  0.00000000       0.250
   0.00000000  0.04442014  0.00000000       0.250
   0.03846897  0.06663020  0.00000000       0.250
 
 k-points in reciprocal lattice and weights: Num irrep kpoints: 4                    
   0.00000000  0.00000000  0.00000000       0.250
   0.50000000 -0.00000000  0.00000000       0.250
   0.00000000  0.50000000  0.00000000       0.250
   0.50000000  0.50000000  0.00000000       0.250
 
 position of ions in fractional coordinates (direct lattice) 
   0.08333333  0.16666667  0.33348073
   0.08333333  0.16666667  0.66681406
   0.08333333  0.41666667  0.00014739
   0.08333333  0.41666667  0.33348073
   0.08333333  0.41666667  0.66681406
   0.08333333  0.66666667  0.00014739
   0.08333333  0.66666667  0.33348073
   0.08333333  0.66666667  0.66681406
   0.08333333  0.91666667  0.00014739
   0.08333333  0.91666667  0.33348073
   0.08333333  0.91666667  0.66681406
   0.33333333  0.16666667  0.00014739
   0.33333333  0.16666667  0.33348073
   0.33333333  0.16666667  0.66681406
   0.33333333  0.41666667  0.00014739
   0.33333333  0.41666667  0.33348073
   0.33333333  0.41666667  0.66681406
   0.33333333  0.66666667  0.00014739
   0.33333333  0.66666667  0.33348073
   0.33333333  0.66666667  0.66681406
   0.33333333  0.91666667  0.00014739
   0.33333333  0.91666667  0.33348073
   0.33333333  0.91666667  0.66681406
   0.58333333  0.16666667  0.00014739
   0.58333333  0.16666667  0.33348073
   0.58333333  0.16666667  0.66681406
   0.58333333  0.41666667  0.00014739
   0.58333333  0.41666667  0.33348073
   0.58333333  0.41666667  0.66681406
   0.58333333  0.66666667  0.00014739
   0.58333333  0.66666667  0.33348073
   0.58333333  0.66666667  0.66681406
   0.58333333  0.91666667  0.00014739
   0.58333333  0.91666667  0.33348073
   0.58333333  0.91666667  0.66681406
   0.83333333  0.16666667  0.00014739
   0.83333333  0.16666667  0.33348073
   0.83333333  0.16666667  0.66681406
   0.83333333  0.41666667  0.00014739
   0.83333333  0.41666667  0.33348073
   0.83333333  0.41666667  0.66681406
   0.83333333  0.66666667  0.00014739
   0.83333333  0.66666667  0.33348073
   0.83333333  0.66666667  0.66681406
   0.83333333  0.91666667  0.00014739
   0.83333333  0.91666667  0.33348073
   0.83333333  0.91666667  0.66681406
   0.16666667  0.08333333  0.16681406
   0.16666667  0.08333333  0.50014739
   0.16666667  0.08333333  0.83348073
   0.16666667  0.33333333  0.16681406
   0.16666667  0.33333333  0.50014739
   0.16666667  0.33333333  0.83348073
   0.16666667  0.58333333  0.16681406
   0.16666667  0.58333333  0.50014739
   0.16666667  0.58333333  0.83348073
   0.16666667  0.83333333  0.16681406
   0.16666667  0.83333333  0.50014739
   0.16666667  0.83333333  0.83348073
   0.41666667  0.08333333  0.16681406
   0.41666667  0.08333333  0.50014739
   0.41666667  0.08333333  0.83348073
   0.41666667  0.33333333  0.16681406
   0.41666667  0.33333333  0.50014739
   0.41666667  0.33333333  0.83348073
   0.41666667  0.58333333  0.16681406
   0.41666667  0.58333333  0.50014739
   0.41666667  0.58333333  0.83348073
   0.41666667  0.83333333  0.16681406
   0.41666667  0.83333333  0.50014739
   0.41666667  0.83333333  0.83348073
   0.66666667  0.08333333  0.16681406
   0.66666667  0.08333333  0.50014739
   0.66666667  0.08333333  0.83348073
   0.66666667  0.33333333  0.16681406
   0.66666667  0.33333333  0.50014739
   0.66666667  0.33333333  0.83348073
   0.66666667  0.58333333  0.16681406
   0.66666667  0.58333333  0.50014739
   0.66666667  0.58333333  0.83348073
   0.66666667  0.83333333  0.16681406
   0.66666667  0.83333333  0.50014739
   0.66666667  0.83333333  0.83348073
   0.91666667  0.08333333  0.16681406
   0.91666667  0.08333333  0.50014739
   0.91666667  0.08333333  0.83348073
   0.91666667  0.33333333  0.16681406
   0.91666667  0.33333333  0.50014739
   0.91666667  0.33333333  0.83348073
   0.91666667  0.58333333  0.16681406
   0.91666667  0.58333333  0.50014739
   0.91666667  0.58333333  0.83348073
   0.91666667  0.83333333  0.16681406
   0.91666667  0.83333333  0.50014739
   0.91666667  0.83333333  0.83348073
   0.08682944  0.16193586  0.13277380
   0.08333333  0.16666667  0.46048594
   0.08333333  0.16666667  0.79381927
   0.08333333  0.41666667  0.12715261
   0.08333333  0.41666667  0.46048594
   0.08333333  0.41666667  0.79381927
   0.08333333  0.66666667  0.12715261
   0.08333333  0.66666667  0.46048594
   0.08333333  0.66666667  0.79381927
   0.08333333  0.91666667  0.12715261
   0.08333333  0.91666667  0.46048594
   0.08333333  0.91666667  0.79381927
   0.33333333  0.16666667  0.12715261
   0.33333333  0.16666667  0.46048594
   0.33333333  0.16666667  0.79381927
   0.33333333  0.41666667  0.12715261
   0.33333333  0.41666667  0.46048594
   0.33333333  0.41666667  0.79381927
   0.33333333  0.66666667  0.12715261
   0.33333333  0.66666667  0.46048594
   0.33333333  0.66666667  0.79381927
   0.33333333  0.91666667  0.12715261
   0.33333333  0.91666667  0.46048594
   0.33333333  0.91666667  0.79381927
   0.58333333  0.16666667  0.12715261
   0.58333333  0.16666667  0.46048594
   0.58333333  0.16666667  0.79381927
   0.58333333  0.41666667  0.12715261
   0.58333333  0.41666667  0.46048594
   0.58333333  0.41666667  0.79381927
   0.58333333  0.66666667  0.12715261
   0.58333333  0.66666667  0.46048594
   0.58333333  0.66666667  0.79381927
   0.58333333  0.91666667  0.12715261
   0.58333333  0.91666667  0.46048594
   0.58333333  0.91666667  0.79381927
   0.83333333  0.16666667  0.12715261
   0.83333333  0.16666667  0.46048594
   0.83333333  0.16666667  0.79381927
   0.83333333  0.41666667  0.12715261
   0.83333333  0.41666667  0.46048594
   0.83333333  0.41666667  0.79381927
   0.83333333  0.66666667  0.12715261
   0.83333333  0.66666667  0.46048594
   0.83333333  0.66666667  0.79381927
   0.83333333  0.91666667  0.12715261
   0.83333333  0.91666667  0.46048594
   0.83333333  0.91666667  0.79381927
   0.16666667  0.08333333  0.29381927
   0.16666667  0.08333333  0.62715261
   0.16585092  0.08019168  0.95207485
   0.16666667  0.33333333  0.29381927
   0.16666667  0.33333333  0.62715261
   0.17830656  0.33059776  0.96052069
   0.16666667  0.58333333  0.29381927
   0.16666667  0.58333333  0.62715261
   0.16666667  0.58333333  0.96048594
   0.16666667  0.83333333  0.29381927
   0.16666667  0.83333333  0.62715261
   0.16666667  0.83333333  0.96048594
   0.41666667  0.08333333  0.29381927
   0.41666667  0.08333333  0.62715261
   0.41666667  0.08333333  0.96048594
   0.41666667  0.33333333  0.29381927
   0.41666667  0.33333333  0.62715261
   0.41666667  0.33333333  0.96048594
   0.41666667  0.58333333  0.29381927
   0.41666667  0.58333333  0.62715261
   0.41666667  0.58333333  0.96048594
   0.41666667  0.83333333  0.29381927
   0.41666667  0.83333333  0.62715261
   0.41666667  0.83333333  0.96048594
   0.66666667  0.08333333  0.29381927
   0.66666667  0.08333333  0.62715261
   0.66666667  0.08333333  0.96048594
   0.66666667  0.33333333  0.29381927
   0.66666667  0.33333333  0.62715261
   0.66666667  0.33333333  0.96048594
   0.66666667  0.58333333  0.29381927
   0.66666667  0.58333333  0.62715261
   0.66666667  0.58333333  0.96048594
   0.66666667  0.83333333  0.29381927
   0.66666667  0.83333333  0.62715261
   0.66666667  0.83333333  0.96048594
   0.91666667  0.08333333  0.29381927
   0.91666667  0.08333333  0.62715261
   0.91094538  0.07644431  0.96376084
   0.91666667  0.33333333  0.29381927
   0.91666667  0.33333333  0.62715261
   0.91666667  0.33333333  0.96048594
   0.91666667  0.58333333  0.29381927
   0.91666667  0.58333333  0.62715261
   0.91666667  0.58333333  0.96048594
   0.91666667  0.83333333  0.29381927
   0.91666667  0.83333333  0.62715261
   0.91666667  0.83333333  0.96048594
   0.08333333  0.16666667  0.00014739
 
 position of ions in cartesian coordinates  (Angst):
  -0.00000000  1.87602610  5.21283857
  -0.00000000  1.87602610 10.42337313
  -1.62468626  4.69006525  0.00230400
  -1.62468626  4.69006525  5.21283857
  -1.62468626  4.69006525 10.42337313
  -3.24937253  7.50410441  0.00230400
  -3.24937253  7.50410441  5.21283857
  -3.24937253  7.50410441 10.42337313
  -4.87405879 10.31814356  0.00230400
  -4.87405879 10.31814356  5.21283857
  -4.87405879 10.31814356 10.42337313
   3.24937252  1.87602610  0.00230400
   3.24937252  1.87602610  5.21283857
   3.24937252  1.87602610 10.42337313
   1.62468626  4.69006525  0.00230400
   1.62468626  4.69006525  5.21283857
   1.62468626  4.69006525 10.42337313
  -0.00000000  7.50410441  0.00230400
  -0.00000000  7.50410441  5.21283857
  -0.00000000  7.50410441 10.42337313
  -1.62468626 10.31814356  0.00230400
  -1.62468626 10.31814356  5.21283857
  -1.62468626 10.31814356 10.42337313
   6.49874505  1.87602610  0.00230400
   6.49874505  1.87602610  5.21283857
   6.49874505  1.87602610 10.42337313
   4.87405879  4.69006525  0.00230400
   4.87405879  4.69006525  5.21283857
   4.87405879  4.69006525 10.42337313
   3.24937252  7.50410441  0.00230400
   3.24937252  7.50410441  5.21283857
   3.24937252  7.50410441 10.42337313
   1.62468626 10.31814356  0.00230400
   1.62468626 10.31814356  5.21283857
   1.62468626 10.31814356 10.42337313
   9.74811757  1.87602610  0.00230400
   9.74811757  1.87602610  5.21283857
   9.74811757  1.87602610 10.42337313
   8.12343131  4.69006525  0.00230400
   8.12343131  4.69006525  5.21283857
   8.12343131  4.69006525 10.42337313
   6.49874505  7.50410441  0.00230400
   6.49874505  7.50410441  5.21283857
   6.49874505  7.50410441 10.42337313
   4.87405879 10.31814356  0.00230400
   4.87405879 10.31814356  5.21283857
   4.87405879 10.31814356 10.42337313
   1.62468626  0.93801305  2.60757128
   1.62468626  0.93801305  7.81810585
   1.62468626  0.93801305 13.02864041
   0.00000000  3.75205220  2.60757128
   0.00000000  3.75205220  7.81810585
   0.00000000  3.75205220 13.02864041
  -1.62468626  6.56609136  2.60757128
  -1.62468626  6.56609136  7.81810585
  -1.62468626  6.56609136 13.02864041
  -3.24937252  9.38013051  2.60757128
  -3.24937252  9.38013051  7.81810585
  -3.24937252  9.38013051 13.02864041
   4.87405879  0.93801305  2.60757128
   4.87405879  0.93801305  7.81810585
   4.87405879  0.93801305 13.02864041
   3.24937253  3.75205220  2.60757128
   3.24937253  3.75205220  7.81810585
   3.24937253  3.75205220 13.02864041
   1.62468626  6.56609136  2.60757128
   1.62468626  6.56609136  7.81810585
   1.62468626  6.56609136 13.02864041
   0.00000000  9.38013051  2.60757128
   0.00000000  9.38013051  7.81810585
   0.00000000  9.38013051 13.02864041
   8.12343131  0.93801305  2.60757128
   8.12343131  0.93801305  7.81810585
   8.12343131  0.93801305 13.02864041
   6.49874505  3.75205220  2.60757128
   6.49874505  3.75205220  7.81810585
   6.49874505  3.75205220 13.02864041
   4.87405879  6.56609136  2.60757128
   4.87405879  6.56609136  7.81810585
   4.87405879  6.56609136 13.02864041
   3.24937253  9.38013051  2.60757128
   3.24937253  9.38013051  7.81810585
   3.24937253  9.38013051 13.02864041
  11.37280384  0.93801305  2.60757128
  11.37280384  0.93801305  7.81810585
  11.37280384  0.93801305 13.02864041
   9.74811757  3.75205220  2.60757128
   9.74811757  3.75205220  7.81810585
   9.74811757  3.75205220 13.02864041
   8.12343131  6.56609136  2.60757128
   8.12343131  6.56609136  7.81810585
   8.12343131  6.56609136 13.02864041
   6.49874505  9.38013051  2.60757128
   6.49874505  9.38013051  7.81810585
   6.49874505  9.38013051 13.02864041
   0.07618493  1.82277541  2.07546742
  -0.00000000  1.87602610  7.19813371
  -0.00000000  1.87602610 12.40866827
  -1.62468626  4.69006525  1.98759915
  -1.62468626  4.69006525  7.19813371
  -1.62468626  4.69006525 12.40866827
  -3.24937253  7.50410441  1.98759915
  -3.24937253  7.50410441  7.19813371
  -3.24937253  7.50410441 12.40866827
  -4.87405879 10.31814356  1.98759915
  -4.87405879 10.31814356  7.19813371
  -4.87405879 10.31814356 12.40866827
   3.24937252  1.87602610  1.98759915
   3.24937252  1.87602610  7.19813371
   3.24937252  1.87602610 12.40866827
   1.62468626  4.69006525  1.98759915
   1.62468626  4.69006525  7.19813371
   1.62468626  4.69006525 12.40866827
  -0.00000000  7.50410441  1.98759915
  -0.00000000  7.50410441  7.19813371
  -0.00000000  7.50410441 12.40866827
  -1.62468626 10.31814356  1.98759915
  -1.62468626 10.31814356  7.19813371
  -1.62468626 10.31814356 12.40866827
   6.49874505  1.87602610  1.98759915
   6.49874505  1.87602610  7.19813371
   6.49874505  1.87602610 12.40866827
   4.87405879  4.69006525  1.98759915
   4.87405879  4.69006525  7.19813371
   4.87405879  4.69006525 12.40866827
   3.24937252  7.50410441  1.98759915
   3.24937252  7.50410441  7.19813371
   3.24937252  7.50410441 12.40866827
   1.62468626 10.31814356  1.98759915
   1.62468626 10.31814356  7.19813371
   1.62468626 10.31814356 12.40866827
   9.74811757  1.87602610  1.98759915
   9.74811757  1.87602610  7.19813371
   9.74811757  1.87602610 12.40866827
   8.12343131  4.69006525  1.98759915
   8.12343131  4.69006525  7.19813371
   8.12343131  4.69006525 12.40866827
   6.49874505  7.50410441  1.98759915
   6.49874505  7.50410441  7.19813371
   6.49874505  7.50410441 12.40866827
   4.87405879 10.31814356  1.98759915
   4.87405879 10.31814356  7.19813371
   4.87405879 10.31814356 12.40866827
   1.62468626  0.93801305  4.59286643
   1.62468626  0.93801305  9.80340099
   1.63450038  0.90265007 14.88245679
   0.00000000  3.75205220  4.59286643
   0.00000000  3.75205220  9.80340099
   0.16906713  3.72126021 15.01447873
  -1.62468626  6.56609136  4.59286643
  -1.62468626  6.56609136  9.80340099
  -1.62468626  6.56609136 15.01393556
  -3.24937252  9.38013051  4.59286643
  -3.24937252  9.38013051  9.80340099
  -3.24937252  9.38013051 15.01393556
   4.87405879  0.93801305  4.59286643
   4.87405879  0.93801305  9.80340099
[...]
      6.49872      7.50744      1.98541        -0.001001     -0.029741     -0.009902
      6.49874      7.50458      7.19778        -0.000324      0.008261      0.004612
      6.49863      7.50579     12.41253        -0.001032     -0.028111     -0.019107
      4.88465     10.33116      1.98321        -0.047169     -0.122397      0.026905
      4.87403     10.31921      7.19742         0.005474     -0.009505      0.035212
      4.87717     10.31811     12.41304        -0.012716     -0.184819     -0.145828
      1.62959      0.93538      4.60387         0.083195     -0.055103      0.407354
      1.62249      0.93946      9.81139        -0.016250      0.005046      0.076926
      1.79168      0.82935     14.92320        -0.179842      0.163117      0.009440
     -0.00021      3.75324      4.59660         0.007672      0.099090      0.365978
      0.00001      3.74910      9.80929         0.005383     -0.005213      0.079094
      0.04399      3.91623     14.94769        -0.063390     -0.009947      0.131708
     -1.62424      6.56421      4.58986        -0.003684      0.004542     -0.006568
     -1.62449      6.56529      9.80599         0.005126      0.001665      0.007841
     -1.62499      6.56753     15.01480        -0.016012      0.209689     -0.074573
     -3.25081      9.38161      4.58922        -0.000954      0.000898      0.010407
     -3.24961      9.38069      9.80594         0.013115     -0.002754     -0.013461
     -3.24577      9.37433     15.01473         0.303202     -0.254258     -0.114498
      4.87197      0.93869      4.58933         0.002555     -0.003819      0.004334
      4.87337      0.93811      9.80608         0.009807     -0.014025     -0.011229
      4.87791      0.93729     15.01467         0.309778     -0.106948     -0.093885
      3.24781      3.75022      4.58929         0.007524      0.000300      0.034215
      3.24896      3.75128      9.80583        -0.002067      0.014347     -0.009168
      3.25141      3.73734     15.01718        -0.047520      0.105172     -0.065724
      1.62434      6.56464      4.59041         0.003685      0.004986      0.003999
      1.62448      6.56584      9.80536        -0.003867      0.001494      0.004309
      1.63191      6.58628     15.01280        -0.003292      0.099246     -0.078433
     -0.00004      9.38008      4.59147         0.000792      0.004872      0.000874
      0.00002      9.38016      9.80562         0.000300      0.000532      0.004067
     -0.00003      9.38062     15.01465        -0.000110     -0.014418     -0.011589
      8.12493      0.93849      4.58999         0.001498     -0.002451      0.003492
      8.12418      0.93832      9.80623         0.001789     -0.007907     -0.001602
      8.11402      0.93685     15.01397        -0.269792     -0.101101     -0.076625
      6.49875      3.75167      4.59144         0.000263     -0.000035      0.008384
      6.49886      3.75186      9.80575        -0.002452     -0.000652     -0.002990
      6.50061      3.75164     15.01473         0.023209     -0.008953     -0.006266
      4.87372      6.56614      4.59138         0.004783      0.004018      0.010473
      4.87404      6.56604      9.80577         0.000493      0.003585     -0.003380
      4.87398      6.56666     15.01514        -0.021633     -0.007438     -0.006885
      3.25048      9.38113      4.58989         0.002743      0.003511      0.013803
      3.24989      9.38065      9.80620        -0.002216      0.003529     -0.004244
      3.24168      9.36951     15.01363        -0.260141     -0.185583     -0.100123
     11.37139      0.93743      4.59593        -0.087726     -0.061102      0.426232
     11.37505      0.93926      9.80960         0.005357     -0.002085      0.051195
     11.19634      0.82475     14.96241         0.240048      0.098326      0.024448
      9.74994      3.75137      4.58982        -0.008910     -0.000660      0.023897
      9.74885      3.75154      9.80665         0.004694     -0.000875      0.004037
      9.77417      3.74090     15.01829        -0.035968      0.087857     -0.041723
      8.12380      6.56617      4.59141        -0.004866      0.004402      0.009332
      8.12361      6.56601      9.80580        -0.001309      0.006720     -0.003514
      8.12361      6.56614     15.01470         0.025170     -0.006106     -0.008998
      6.49947      9.38243      4.58887        -0.000588     -0.005313      0.055779
      6.49864      9.38102      9.80652        -0.010639     -0.007073     -0.018515
      6.50199      9.39554     15.01772        -0.014573     -0.093169     -0.063224
      0.00373      1.85176     15.62925         0.036089     -0.084664      0.156317
 -----------------------------------------------------------------------------------
    total drift:                               -0.036605      0.004988      1.856771


--------------------------------------------------------------------------------------------------------



  FREE ENERGIE OF THE ION-ELECTRON SYSTEM (eV)
  ---------------------------------------------------
  free  energy   TOTEN  =     -1208.87974110 eV

  energy  without entropy=    -1208.79637198  energy(sigma->0) =    -1208.83805654
 d Force = 0.3314894E+00[ 0.469E-01, 0.616E+00]  d Energy = 0.3248609E+00 0.663E-02
 d Force =-0.3420222E+02[-0.451E+02,-0.233E+02]  d Ewald  =-0.3423947E+02 0.372E-01
 


--------------------------------------------------------------------------------------------------------


    POTLOK:  cpu time      1.0277: real time      1.0408


--------------------------------------------------------------------------------------------------------


 Conjugate gradient step on ions:
 trial-energy change:   -0.324861  1 .order   -0.331489   -0.616094   -0.046885
  (g-gl).g = 0.600E+00      g.g   = 0.627E+00  gl.gl    = 0.424E+01
 g(Force)  = 0.627E+00   g(Stress)= 0.000E+00 ortho     = 0.266E-01
 gamma     =   0.14159
 trial     =   0.97686
 opt step  =   1.06395  (harmonic =   1.05732) maximal distance =0.06275059
 next E    = -1208.881826   (d E  =  -0.32695)


--------------------------------------------------------------------------------------------------------


      MLFF:  cpu time      0.0233: real time      0.0371
    WAVPRE:  cpu time      0.0353: real time      0.0356
    FEWALD:  cpu time      0.0360: real time      0.0384
    ORTHCH:  cpu time      2.5197: real time      2.6174
    POTLOK:  cpu time      1.0089: real time      1.0129
    EDDIAG:  cpu time   1739.7240: real time   1747.9003
    CHARGE:  cpu time      0.5899: real time      0.6050
 writing wavefunctions
     LOOP+:  cpu time  37168.6268: real time  37374.5253


--------------------------------------- Ionic step        5  -------------------------------------------




--------------------------------------- Iteration      5(   1)  ---------------------------------------


    POTLOK:  cpu time      0.2929: real time      0.3097
    SETDIJ:  cpu time      0.7708: real time      0.7847
    TRIAL :  cpu time   1749.2516: real time   1757.0146
    CORREC:  cpu time      0.0022: real time      0.0033
    CHARGE:  cpu time      0.6017: real time      0.6240
    --------------------------------------------
      LOOP:  cpu time   1751.1617: real time   1758.9826

 eigenvalue-minimisations  :     0
 total energy-change (2. order) : 0.1347409E+00  (-0.1260024E+00)
 number of electron    1728.0002669 magnetization       0.0006357
 augmentation part      840.8765102 magnetization      -0.0001042

 Free energy of the ion-electron system (eV)
  ---------------------------------------------------
  alpha Z        PSCENC =     11324.91224854
  Ewald energy   TEWEN  =   -141872.06927296
  -Hartree energ DENC   =    -63492.65297646
  -exchange      EXHF   =      7304.23247054
  -V(xc)+E(xc)   XCENC  =      5427.10942125
  PAW double counting   =    210060.93770244  -225529.06730787
  entropy T*S    EENTRO =        -0.08339273
  eigenvalues    EBANDS =    -12353.72645076
  atomic energy  EATOM  =    207921.66256209
  ---------------------------------------------------
  free energy    TOTEN  =     -1208.74499591 eV

  energy without entropy =    -1208.66160318  energy(sigma->0) =    -1208.70329954
  exchange ACFDT corr.  =        -0.05086925  see jH, gK, PRB 81, 115126


--------------------------------------------------------------------------------------------------------




--------------------------------------- Iteration      5(   2)  ---------------------------------------


    POTLOK:  cpu time      0.2888: real time      0.3050
    SETDIJ:  cpu time      0.7605: real time      0.7741
    TRIAL :  cpu time   1749.6028: real time   1757.7621
    CORREC:  cpu time      0.0022: real time      0.0036
    CHARGE:  cpu time      0.6049: real time      0.6216
    --------------------------------------------
      LOOP:  cpu time   1751.2795: real time   1759.4954

 eigenvalue-minimisations  :     0
 total energy-change (2. order) :-0.9131756E-01  (-0.5636507E-01)
 number of electron    1728.0002669 magnetization       0.0006332
 augmentation part      840.8766162 magnetization      -0.0001060

 Free energy of the ion-electron system (eV)
  ---------------------------------------------------
  alpha Z        PSCENC =     11324.91224854
  Ewald energy   TEWEN  =   -141872.06927296
  -Hartree energ DENC   =    -63493.93752066
  -exchange      EXHF   =      7304.24663471
  -V(xc)+E(xc)   XCENC  =      5427.11864440
  PAW double counting   =    210059.30535424  -225527.59561126
  entropy T*S    EENTRO =        -0.08354425
  eigenvalues    EBANDS =    -12352.39580832
  atomic energy  EATOM  =    207921.66256209
  ---------------------------------------------------
  free energy    TOTEN  =     -1208.83631347 eV

  energy without entropy =    -1208.75276922  energy(sigma->0) =    -1208.79454135
  exchange ACFDT corr.  =        -0.05134704  see jH, gK, PRB 81, 115126


--------------------------------------------------------------------------------------------------------




--------------------------------------- Iteration      5(   3)  ---------------------------------------


    POTLOK:  cpu time      0.2927: real time      0.3221
    SETDIJ:  cpu time      0.7600: real time      0.7731
    TRIAL :  cpu time   1753.2957: real time   1761.4017
    CORREC:  cpu time      0.0021: real time      0.0035
    CHARGE:  cpu time      0.5965: real time      0.6226
    --------------------------------------------
      LOOP:  cpu time   1754.9670: real time   1763.1499

 eigenvalue-minimisations  :     0
 total energy-change (2. order) :-0.3527520E-01  (-0.1474764E-01)
 number of electron    1728.0002669 magnetization       0.0006300
 augmentation part      840.8752027 magnetization      -0.0001063

 Free energy of the ion-electron system (eV)
  ---------------------------------------------------
  alpha Z        PSCENC =     11324.91224854
  Ewald energy   TEWEN  =   -141872.06927296
  -Hartree energ DENC   =    -63494.31372914
  -exchange      EXHF   =      7304.24431968
  -V(xc)+E(xc)   XCENC  =      5427.11595204
  PAW double counting   =    210057.77266775  -225525.99703546
  entropy T*S    EENTRO =        -0.08357557
  eigenvalues    EBANDS =    -12352.11572565
  atomic energy  EATOM  =    207921.66256209
  ---------------------------------------------------
  free energy    TOTEN  =     -1208.87158867 eV

  energy without entropy =    -1208.78801310  energy(sigma->0) =    -1208.82980089
  exchange ACFDT corr.  =        -0.05117999  see jH, gK, PRB 81, 115126


--------------------------------------------------------------------------------------------------------




--------------------------------------- Iteration      5(   4)  ---------------------------------------


    POTLOK:  cpu time      0.2862: real time      0.2987
    SETDIJ:  cpu time      0.7415: real time      0.7542
    TRIAL :  cpu time   1750.4855: real time   1758.5988
    CORREC:  cpu time      0.0018: real time      0.0036
    CHARGE:  cpu time      0.5993: real time      0.6309
    --------------------------------------------
      LOOP:  cpu time   1752.1351: real time   1760.3142

 eigenvalue-minimisations  :     0
 total energy-change (2. order) :-0.7883202E-02  (-0.2528673E-02)
 number of electron    1728.0002669 magnetization       0.0006268
 augmentation part      840.8753172 magnetization      -0.0001051

 Free energy of the ion-electron system (eV)
  ---------------------------------------------------
  alpha Z        PSCENC =     11324.91224854
  Ewald energy   TEWEN  =   -141872.06927296
  -Hartree energ DENC   =    -63494.02112829
  -exchange      EXHF   =      7304.23687049
  -V(xc)+E(xc)   XCENC  =      5427.11124109
  PAW double counting   =    210057.06797939  -225525.21615343
  entropy T*S    EENTRO =        -0.08351510
  eigenvalues    EBANDS =    -12352.48030370
  atomic energy  EATOM  =    207921.66256209
  ---------------------------------------------------
  free energy    TOTEN  =     -1208.87947187 eV

  energy without entropy =    -1208.79595678  energy(sigma->0) =    -1208.83771433
  exchange ACFDT corr.  =        -0.05120440  see jH, gK, PRB 81, 115126


--------------------------------------------------------------------------------------------------------




--------------------------------------- Iteration      5(   5)  ---------------------------------------


    POTLOK:  cpu time      0.2898: real time      0.3047
    SETDIJ:  cpu time      0.7022: real time      0.7173
    TRIAL :  cpu time   1747.2045: real time   1755.6223
    CORREC:  cpu time      0.0016: real time      0.0036
    CHARGE:  cpu time      0.6049: real time      0.6489
    --------------------------------------------
      LOOP:  cpu time   1748.8214: real time   1757.3233

 eigenvalue-minimisations  :     0
 total energy-change (2. order) :-0.6432409E-03  (-0.6850492E-03)
 number of electron    1728.0002669 magnetization       0.0006239
 augmentation part      840.8759596 magnetization      -0.0001027

 Free energy of the ion-electron system (eV)
  ---------------------------------------------------
  alpha Z        PSCENC =     11324.91224854
  Ewald energy   TEWEN  =   -141872.06927296
  -Hartree energ DENC   =    -63493.84311918
  -exchange      EXHF   =      7304.23723889
  -V(xc)+E(xc)   XCENC  =      5427.11273204
  PAW double counting   =    210057.09335397  -225525.27287006
  entropy T*S    EENTRO =        -0.08345326
  eigenvalues    EBANDS =    -12352.62953519
  atomic energy  EATOM  =    207921.66256209
  ---------------------------------------------------
  free energy    TOTEN  =     -1208.88011511 eV

  energy without entropy =    -1208.79666186  energy(sigma->0) =    -1208.83838849
  exchange ACFDT corr.  =        -0.05089203  see jH, gK, PRB 81, 115126


--------------------------------------------------------------------------------------------------------




--------------------------------------- Iteration      5(   6)  ---------------------------------------


    POTLOK:  cpu time      0.2902: real time      0.3090
    SETDIJ:  cpu time      0.7748: real time      0.7927
    TRIAL :  cpu time   1749.3312: real time   1757.8054
    CORREC:  cpu time      0.0027: real time      0.0036
    CHARGE:  cpu time      0.6683: real time      0.6807
    --------------------------------------------
      LOOP:  cpu time   1751.0851: real time   1759.6169

 eigenvalue-minimisations  :     0
 total energy-change (2. order) :-0.3283256E-03  (-0.7833332E-03)
 number of electron    1728.0002669 magnetization       0.0006211
 augmentation part      840.8760123 magnetization      -0.0001021

 Free energy of the ion-electron system (eV)
  ---------------------------------------------------
  alpha Z        PSCENC =     11324.91224854
  Ewald energy   TEWEN  =   -141872.06927296
  -Hartree energ DENC   =    -63493.85319323
  -exchange      EXHF   =      7304.24086551
  -V(xc)+E(xc)   XCENC  =      5427.11552084
  PAW double counting   =    210057.37048160  -225525.58179293
  entropy T*S    EENTRO =        -0.08343312
  eigenvalues    EBANDS =    -12352.59442977
  atomic energy  EATOM  =    207921.66256209
  ---------------------------------------------------
  free energy    TOTEN  =     -1208.88044344 eV

  energy without entropy =    -1208.79701032  energy(sigma->0) =    -1208.83872688
  exchange ACFDT corr.  =        -0.05083255  see jH, gK, PRB 81, 115126


--------------------------------------------------------------------------------------------------------




--------------------------------------- Iteration      5(   7)  ---------------------------------------


    POTLOK:  cpu time      0.2850: real time      0.2914
    SETDIJ:  cpu time      0.8566: real time      0.8639
    TRIAL :  cpu time   1748.4734: real time   1756.5796
    CORREC:  cpu time      0.0026: real time      0.0037
    CHARGE:  cpu time      0.5950: real time      0.6128
    --------------------------------------------
      LOOP:  cpu time   1750.2476: real time   1758.3955

 eigenvalue-minimisations  :     0
 total energy-change (2. order) :-0.5409738E-03  (-0.4253283E-03)
 number of electron    1728.0002669 magnetization       0.0006183
 augmentation part      840.8759407 magnetization      -0.0001013

 Free energy of the ion-electron system (eV)
  ---------------------------------------------------
  alpha Z        PSCENC =     11324.91224854
  Ewald energy   TEWEN  =   -141872.06927296
  -Hartree energ DENC   =    -63493.87437605
  -exchange      EXHF   =      7304.24123265
  -V(xc)+E(xc)   XCENC  =      5427.11548396
  PAW double counting   =    210057.56633439  -225525.76565416
  entropy T*S    EENTRO =        -0.08343597
  eigenvalues    EBANDS =    -12352.58610690
  atomic energy  EATOM  =    207921.66256209
  ---------------------------------------------------
  free energy    TOTEN  =     -1208.88098441 eV

  energy without entropy =    -1208.79754844  energy(sigma->0) =    -1208.83926643
  exchange ACFDT corr.  =        -0.05082608  see jH, gK, PRB 81, 115126


--------------------------------------------------------------------------------------------------------




--------------------------------------- Iteration      5(   8)  ---------------------------------------


    POTLOK:  cpu time      0.2901: real time      0.3057
    SETDIJ:  cpu time      0.7928: real time      0.8053
    TRIAL :  cpu time   1749.1095: real time   1757.4352
    CORREC:  cpu time      0.0024: real time      0.0036
    CHARGE:  cpu time      0.6083: real time      0.6241
    --------------------------------------------
      LOOP:  cpu time   1750.8214: real time   1759.2009

 eigenvalue-minimisations  :     0
 total energy-change (2. order) :-0.2808375E-03  (-0.1486608E-03)
 number of electron    1728.0002669 magnetization       0.0006154
 augmentation part      840.8760649 magnetization      -0.0000995

 Free energy of the ion-electron system (eV)
  ---------------------------------------------------
  alpha Z        PSCENC =     11324.91224854
  Ewald energy   TEWEN  =   -141872.06927296
  -Hartree energ DENC   =    -63493.87624168
  -exchange      EXHF   =      7304.24031778
  -V(xc)+E(xc)   XCENC  =      5427.11467851
  PAW double counting   =    210057.66389839  -225525.85214081
  entropy T*S    EENTRO =        -0.08343790
  eigenvalues    EBANDS =    -12352.59387722
  atomic energy  EATOM  =    207921.66256209
  ---------------------------------------------------
  free energy    TOTEN  =     -1208.88126525 eV

  energy without entropy =    -1208.79782735  energy(sigma->0) =    -1208.83954630
  exchange ACFDT corr.  =        -0.05082500  see jH, gK, PRB 81, 115126


--------------------------------------------------------------------------------------------------------




--------------------------------------- Iteration      5(   9)  ---------------------------------------


    POTLOK:  cpu time      0.2887: real time      0.3076
    SETDIJ:  cpu time      0.7353: real time      0.7491
