 running  112 mpi-ranks, on    1 nodes
 distrk:  each k-point on   28 cores,    4 groups
 distr:  one band on    1 cores,   28 groups
 vasp.6.5.1 10Mar25 (build May 05 2025 13:45:00) complex                        
  
 POSCAR found type information on POSCAR ZnO Nd
 POSCAR found :  3 types and     192 ions
 -----------------------------------------------------------------------------
|                                                                             |
|           W    W    AA    RRRRR   N    N  II  N    N   GGGG   !!!           |
|           W    W   A  A   R    R  NN   N  II  NN   N  G    G  !!!           |
|           W    W  A    A  R    R  N N  N  II  N N  N  G       !!!           |
|           W WW W  AAAAAA  RRRRR   N  N N  II  N  N N  G  GGG   !            |
|           WW  WW  A    A  R   R   N   NN  II  N   NN  G    G                |
|           W    W  A    A  R    R  N    N  II  N    N   GGGG   !!!           |
|                                                                             |
|     You requested a magnetic or noncollinear calculation, but did not       |
|     specify the initial magnetic moment with the MAGMOM tag. Note that      |
|     a default of 1 will be used for all atoms. This ferromagnetic setup     |
|     may break the symmetry of the crystal, in particular it may rule        |
|     out finding an antiferromagnetic solution. Thence, we recommend         |
|     setting the initial magnetic moment manually or verifying carefully     |
|     that this magnetic setup is desired.                                    |
|                                                                             |
 -----------------------------------------------------------------------------

 scaLAPACK will be used
 -----------------------------------------------------------------------------
|                                                                             |
|           W    W    AA    RRRRR   N    N  II  N    N   GGGG   !!!           |
|           W    W   A  A   R    R  NN   N  II  NN   N  G    G  !!!           |
|           W    W  A    A  R    R  N N  N  II  N N  N  G       !!!           |
|           W WW W  AAAAAA  RRRRR   N  N N  II  N  N N  G  GGG   !            |
|           WW  WW  A    A  R   R   N   NN  II  N   NN  G    G                |
|           W    W  A    A  R    R  N    N  II  N    N   GGGG   !!!           |
|                                                                             |
|     For optimal performance we recommend to set                             |
|       NCORE = 2 up to number-of-cores-per-socket                            |
|     NCORE specifies how many cores store one orbital (NPAR=cpu/NCORE).      |
|     This setting can greatly improve the performance of VASP for DFT.       |
|     The default, NCORE=1 might be grossly inefficient on modern             |
|     multi-core architectures or massively parallel machines. Do your        |
|     own testing! More info at https://www.vasp.at/wiki/index.php/NCORE      |
|     Unfortunately you need to use the default for GW and RPA                |
|     calculations (for HF NCORE is supported but not extensively tested      |
|     yet).                                                                   |
|                                                                             |
 -----------------------------------------------------------------------------

 LDA part: xc-table for (Slater+PW92), standard interpolation
 POSCAR, INCAR and KPOINTS ok, starting setup
 FFT: planning ... GRIDC
 FFT: planning ... GRID_SOFT
 FFT: planning ... GRID
 WAVECAR not read
 entering main loop
       N       E                     dE             d eps       ncg     rms           ort
DAV:   1    -0.381288477868E+05   -0.38129E+05   -0.56973E+05  4592   0.214E+03  
DAV:   2    -0.589125305760E+05   -0.20784E+05   -0.19226E+05  4592   0.574E+02  
DAV:   3    -0.651114327419E+05   -0.61989E+04   -0.57994E+04  4592   0.267E+02  
DAV:   4    -0.660749537499E+05   -0.96352E+03   -0.93664E+03  4592   0.119E+02  
DAV:   5    -0.130408472771E+04    0.64771E+05   -0.21423E+03  4592   0.103E+02  
SDA:   6    -0.679610366260E+03    0.62447E+03   -0.94915E+03  4592   0.237E+04   0.000E+00
DMP:   7    -0.113875279098E+04   -0.45914E+03   -0.41243E+02  4592   0.144E+03  -0.108E+03
DMP:   8    -0.112076046577E+04    0.17992E+02   -0.99003E+02  4592   0.321E+03  -0.194E+03
DMP:   9    -0.118430629240E+04   -0.63546E+02   -0.33824E+02  4592   0.575E+02   0.707E+02
DMP:  10    -0.119827890831E+04   -0.13973E+02   -0.75717E+01  4592   0.244E+02  -0.142E+02
DMP:  11    -0.120270388140E+04   -0.44250E+01   -0.65225E+01  4592   0.150E+02   0.346E+01
DMP:  12    -0.120598863484E+04   -0.32848E+01   -0.93089E+00  4592   0.227E+01   0.146E+00
DMP:  13    -0.120624414742E+04   -0.25551E+00   -0.69770E+00  4592   0.215E+01  -0.106E+01
DMP:  14    -0.120668226614E+04   -0.43812E+00   -0.26202E+00  4592   0.486E+00   0.442E+00
DMP:  15    -0.120679560875E+04   -0.11334E+00   -0.58418E-01  4592   0.180E+00  -0.895E-01
DMP:  16    -0.120683036234E+04   -0.34754E-01   -0.61981E-01  4592   0.144E+00   0.277E-01
DMP:  17    -0.120686820442E+04   -0.37842E-01   -0.16993E-01  4592   0.293E-01   0.345E-01
DMP:  18    -0.120687739249E+04   -0.91881E-02   -0.94859E-02  4592   0.224E-01   0.355E-02
DMP:  19    -0.120688460072E+04   -0.72082E-02   -0.53615E-02  4592   0.870E-02   0.123E-01
DMP:  20    -0.120688839164E+04   -0.37909E-02   -0.23723E-02  4592   0.382E-02   0.553E-02
DMP:  21    -0.120689031783E+04   -0.19262E-02   -0.15824E-02  4592   0.255E-02   0.369E-02
DMP:  22    -0.120689159790E+04   -0.12801E-02   -0.85452E-03  4592   0.120E-02   0.245E-02
DMP:  23    -0.120689232343E+04   -0.72553E-03   -0.55088E-03  4592   0.806E-03   0.150E-02
DMP:  24    -0.120689281283E+04   -0.48939E-03   -0.36348E-03  4592   0.501E-03   0.107E-02
DMP:  25    -0.120689313847E+04   -0.32564E-03   -0.24408E-03  4592   0.337E-03   0.715E-03
DMP:  26    -0.120689336245E+04   -0.22399E-03   -0.17408E-03  4592   0.242E-03   0.506E-03
DMP:  27    -0.120689352331E+04   -0.16086E-03   -0.12671E-03  4592   0.177E-03   0.367E-03
DMP:  28    -0.120689364176E+04   -0.11846E-03   -0.96202E-04  4592   0.136E-03   0.274E-03
DMP:  29    -0.120689373251E+04   -0.90749E-04   -0.74963E-04  4592   0.106E-03   0.212E-03
DMP:  30    -0.120689380362E+04   -0.71108E-04   -0.59710E-04  4592   0.853E-04   0.168E-03
DMP:  31    -0.120689386054E+04   -0.56921E-04   -0.48875E-04  4592   0.706E-04   0.135E-03
DMP:  32    -0.120689390732E+04   -0.46779E-04   -0.40965E-04  4592   0.598E-04   0.112E-03
DMP:  33    -0.120689394667E+04   -0.39347E-04   -0.34831E-04  4592   0.511E-04   0.942E-04
DMP:  34    -0.120689398020E+04   -0.33528E-04   -0.29866E-04  4592   0.439E-04   0.805E-04
DMP:  35    -0.120689400898E+04   -0.28782E-04   -0.25819E-04  4592   0.381E-04   0.692E-04
DMP:  36    -0.120689403388E+04   -0.24907E-04   -0.22475E-04  4592   0.333E-04   0.600E-04
DMP:  37    -0.120689405559E+04   -0.21702E-04   -0.19667E-04  4592   0.292E-04   0.523E-04
DMP:  38    -0.120689407459E+04   -0.19003E-04   -0.17274E-04  4592   0.257E-04   0.458E-04
DMP:  39    -0.120689409129E+04   -0.16701E-04   -0.15240E-04  4592   0.227E-04   0.403E-04
DMP:  40    -0.120689410604E+04   -0.14746E-04   -0.13526E-04  4592   0.202E-04   0.356E-04
DMP:  41    -0.120689411913E+04   -0.13092E-04   -0.12079E-04  4592   0.181E-04   0.316E-04
DMP:  42    -0.120689413080E+04   -0.11669E-04   -0.10967E-04  4592   0.167E-04   0.281E-04
DMP:  43    -0.120689414110E+04   -0.10308E-04   -0.11249E-04  4592   0.189E-04   0.240E-04
DMP:  44    -0.120689414887E+04   -0.77640E-05   -0.23677E-04  4592   0.552E-04   0.105E-04
DMP:  45    -0.120689414198E+04    0.68865E-05   -0.13923E-03  4592   0.384E-03  -0.937E-04
DMP:  46    -0.120689402882E+04    0.11316E-03   -0.96585E-03  4592   0.276E-02  -0.914E-03
DMP:  47    -0.120689331966E+04    0.70916E-03   -0.54097E-02  4592   0.158E-01  -0.596E-02
DMP:  48    -0.120689012152E+04    0.31981E-02   -0.23233E-01  4592   0.694E-01  -0.295E-01
DMP:  49    -0.120687982805E+04    0.10293E-01   -0.74840E-01  4592   0.229E+00  -0.110E+00
DMP:  50    -0.120685591621E+04    0.23912E-01   -0.18343E+00  4592   0.576E+00  -0.307E+00
DMP:  51    -0.120681435577E+04    0.41560E-01   -0.36595E+00  4592   0.117E+01  -0.666E+00
DMP:  52    -0.120674345236E+04    0.70903E-01   -0.70004E+00  4592   0.223E+01  -0.127E+01
DMP:  53    -0.120659414459E+04    0.14931E+00   -0.13691E+01  4592   0.437E+01  -0.249E+01
DMP:  54    -0.120636961241E+04    0.22453E+00   -0.22112E+01  4592   0.726E+01  -0.453E+01
DMP:  55    -0.120623238695E+04    0.13723E+00   -0.24217E+01  4592   0.841E+01  -0.616E+01
DMP:  56    -0.120640417386E+04   -0.17179E+00   -0.16169E+01  4592   0.600E+01  -0.514E+01
DMP:  57    -0.120658008746E+04   -0.17591E+00   -0.12444E+01  4592   0.431E+01  -0.314E+01
DMP:  58    -0.120640457249E+04    0.17551E+00   -0.21546E+01  4592   0.690E+01  -0.397E+01
DMP:  59    -0.120607611148E+04    0.32846E+00   -0.32916E+01  4592   0.109E+02  -0.704E+01
DMP:  60    -0.120594364363E+04    0.13247E+00   -0.33258E+01  4592   0.117E+02  -0.881E+01
DMP:  61    -0.120623415823E+04   -0.29051E+00   -0.21079E+01  4592   0.791E+01  -0.691E+01
DMP:  62    -0.120660630213E+04   -0.37214E+00   -0.84447E+00  4592   0.340E+01  -0.338E+01
DMP:  63    -0.120681072586E+04   -0.20442E+00   -0.18631E+00  4592   0.884E+00  -0.109E+01
DMP:  64    -0.120688745828E+04   -0.76732E-01   -0.10283E-01  4592   0.570E-01  -0.819E-01
DMP:  65    -0.120688789027E+04   -0.43199E-03   -0.24562E-01  4592   0.704E-01  -0.235E-01
DMP:  66    -0.120688532892E+04    0.25613E-02   -0.29283E-01  4592   0.101E+00  -0.741E-01
DMP:  67    -0.120688966678E+04   -0.43379E-02   -0.15216E-01  4592   0.578E-01  -0.516E-01
DMP:  68    -0.120689195097E+04   -0.22842E-02   -0.62804E-02  4592   0.258E-01  -0.265E-01
DMP:  69    -0.120689379341E+04   -0.18424E-02   -0.11147E-02  4592   0.529E-02  -0.656E-02
DMP:  70    -0.120689414585E+04   -0.35243E-03   -0.13494E-03  4592   0.717E-03  -0.993E-03
DMP:  71    -0.120689420194E+04   -0.56088E-04   -0.46404E-04  4592   0.140E-03  -0.622E-04
DMP:  72    -0.120689420256E+04   -0.62512E-06   -0.53445E-04  4592   0.179E-03  -0.120E-03
DMP:  73    -0.120689420832E+04   -0.57640E-05   -0.23985E-04  4592   0.971E-04  -0.972E-04
DMP:  74    -0.120689421683E+04   -0.85049E-05   -0.50823E-05  4592   0.210E-04  -0.216E-04
 final diagonalization occupied
   1 F= -.12068942E+04 E0= -.12068648E+04  d E =-.120689E+04  mag=     0.0037
 curvature:   0.00 expect dE= 0.000E+00 dE for cont linesearch  0.000E+00
 trial: gam= 0.00000 g(F)=  0.424E+01 g(S)=  0.000E+00 ort = 0.000E+00 (trialstep = 0.100E+01)
 search vector abs. value=  0.424E+01
 bond charge predicted
 wavefunctions rotated
 writing wavefunctions
       N       E                     dE             d eps       ncg     rms           ort
SDA:   1    -0.107687435438E+04    0.13002E+03   -0.12535E+03  4592   0.313E+03   0.000E+00
DMP:   2    -0.116560553677E+04   -0.88731E+02   -0.54320E+02  4592   0.873E+02   0.127E+03
DMP:   3    -0.119827530576E+04   -0.32670E+02   -0.12886E+02  4592   0.233E+02   0.234E+02
DMP:   4    -0.120469702975E+04   -0.64217E+01   -0.42101E+01  4592   0.107E+02  -0.343E+00
DMP:   5    -0.120654114855E+04   -0.18441E+01   -0.14191E+01  4592   0.397E+01  -0.111E+01
DMP:   6    -0.120735234299E+04   -0.81119E+00   -0.11568E+01  4592   0.267E+01   0.572E+00
DMP:   7    -0.120811610078E+04   -0.76376E+00   -0.43400E+00  4592   0.724E+00   0.945E+00
DMP:   8    -0.120839040974E+04   -0.27431E+00   -0.15674E+00  4592   0.280E+00   0.293E+00
DMP:   9    -0.120848773586E+04   -0.97326E-01   -0.51666E-01  4592   0.925E-01   0.960E-01
DMP:  10    -0.120851731611E+04   -0.29580E-01   -0.18583E-01  4592   0.393E-01   0.187E-01
DMP:  11    -0.120852832354E+04   -0.11007E-01   -0.75676E-02  4592   0.156E-01   0.862E-02
DMP:  12    -0.120853312101E+04   -0.47975E-02   -0.31168E-02  4592   0.585E-02   0.509E-02
DMP:  13    -0.120853517016E+04   -0.20492E-02   -0.14046E-02  4592   0.258E-02   0.245E-02
DMP:  14    -0.120853608792E+04   -0.91776E-03   -0.48354E-03  4592   0.800E-03   0.107E-02
DMP:  15    -0.120853637060E+04   -0.28268E-03   -0.15806E-03  4592   0.317E-03   0.204E-03
DMP:  16    -0.120853646963E+04   -0.99033E-04   -0.61135E-04  4592   0.115E-03   0.991E-04
DMP:  17    -0.120853650826E+04   -0.38627E-04   -0.29888E-04  4592   0.597E-04   0.392E-04
DMP:  18    -0.120853653024E+04   -0.21982E-04   -0.16074E-04  4592   0.270E-04   0.345E-04
DMP:  19    -0.120853654163E+04   -0.11388E-04   -0.64632E-05  4592   0.100E-04   0.161E-04
DMP:  20    -0.120853654649E+04   -0.48586E-05   -0.28698E-05  4592   0.432E-05   0.747E-05
 final diagonalization occupied
   2 F= -.12085365E+04 E0= -.12084964E+04  d E =-.164233E+01  mag=     0.0009
 trial-energy change:   -1.642330  1 .order   -1.949106   -4.240097    0.341885
 step:   0.8843(harm=  0.9254)  dis= 0.20701  next Energy= -1208.556804 (dE=-0.166E+01)
 bond charge predicted
 wavefunctions rotated
 writing wavefunctions
       N       E                     dE             d eps       ncg     rms           ort
SDA:   1    -0.120686041231E+04    0.16761E+01   -0.15728E+01  4592   0.393E+01   0.000E+00
DMP:   2    -0.120800647623E+04   -0.11461E+01   -0.70692E+00  4592   0.108E+01   0.180E+01
DMP:   3    -0.120844321707E+04   -0.43674E+00   -0.17211E+00  4592   0.271E+00   0.416E+00
DMP:   4    -0.120853065426E+04   -0.87437E-01   -0.30607E-01  4592   0.738E-01   0.700E-02
DMP:   5    -0.120853814036E+04   -0.74861E-02   -0.10422E-01  4592   0.409E-01  -0.390E-01
DMP:   6    -0.120854376214E+04   -0.56218E-02   -0.10285E-01  4592   0.249E-01   0.205E-02
DMP:   7    -0.120855071008E+04   -0.69479E-02   -0.47011E-02  4592   0.831E-02   0.902E-02
DMP:   8    -0.120855369908E+04   -0.29890E-02   -0.15180E-02  4592   0.257E-02   0.320E-02
DMP:   9    -0.120855457175E+04   -0.87267E-03   -0.39132E-03  4592   0.760E-03   0.573E-03
DMP:  10    -0.120855475606E+04   -0.18431E-03   -0.10984E-03  4592   0.296E-03  -0.566E-04
DMP:  11    -0.120855481025E+04   -0.54196E-04   -0.60949E-04  4592   0.155E-03  -0.577E-05
DMP:  12    -0.120855484940E+04   -0.39142E-04   -0.33473E-04  4592   0.678E-04   0.416E-04
DMP:  13    -0.120855487148E+04   -0.22082E-04   -0.13862E-04  4592   0.246E-04   0.263E-04
DMP:  14    -0.120855488016E+04   -0.86819E-05   -0.45664E-05  4592   0.797E-05   0.902E-05
 final diagonalization occupied
   3 F= -.12085549E+04 E0= -.12085150E+04  d E =-.166066E+01  mag=     0.0007
 curvature:  -0.32 expect dE=-0.202E+00 dE for cont linesearch -0.536E-04
 trial: gam= 0.14159 g(F)=  0.627E+00 g(S)=  0.000E+00 ort = 0.266E-01 (trialstep = 0.977E+00)
 search vector abs. value=  0.719E+00
 bond charge predicted
 wavefunctions rotated
 writing wavefunctions
       N       E                     dE             d eps       ncg     rms           ort
SDA:   1    -0.119163392464E+04    0.16921E+02   -0.15999E+02  4592   0.400E+02   0.000E+00
DMP:   2    -0.120315788606E+04   -0.11524E+02   -0.72113E+01  4592   0.113E+02   0.177E+02
DMP:   3    -0.120767676019E+04   -0.45189E+01   -0.18772E+01  4592   0.295E+01   0.455E+01
DMP:   4    -0.120865296417E+04   -0.97620E+00   -0.30928E+00  4592   0.706E+00   0.177E+00
DMP:   5    -0.120872001452E+04   -0.67050E-01   -0.75000E-01  4592   0.356E+00  -0.441E+00
DMP:   6    -0.120875233071E+04   -0.32316E-01   -0.10765E+00  4592   0.279E+00  -0.260E-01
DMP:   7    -0.120882771431E+04   -0.75384E-01   -0.58122E-01  4592   0.104E+00   0.108E+00
DMP:   8    -0.120886559923E+04   -0.37885E-01   -0.18505E-01  4592   0.294E-01   0.442E-01
DMP:   9    -0.120887648241E+04   -0.10883E-01   -0.42215E-02  4592   0.744E-02   0.815E-02
DMP:  10    -0.120887838648E+04   -0.19041E-02   -0.11116E-02  4592   0.317E-02  -0.104E-02
DMP:  11    -0.120887889143E+04   -0.50495E-03   -0.66483E-03  4592   0.176E-02  -0.243E-03
DMP:  12    -0.120887932239E+04   -0.43096E-03   -0.37969E-03  4592   0.759E-03   0.498E-03
DMP:  13    -0.120887958012E+04   -0.25773E-03   -0.16286E-03  4592   0.278E-03   0.337E-03
DMP:  14    -0.120887968881E+04   -0.10870E-03   -0.60783E-04  4592   0.101E-03   0.134E-03
DMP:  15    -0.120887972647E+04   -0.37655E-04   -0.17443E-04  4592   0.298E-04   0.361E-04
DMP:  16    -0.120887973684E+04   -0.10374E-04   -0.64183E-05  4592   0.129E-04   0.811E-05
DMP:  17    -0.120887974110E+04   -0.42563E-05   -0.32333E-05  4592   0.622E-05   0.487E-05
 final diagonalization occupied
   4 F= -.12088797E+04 E0= -.12088381E+04  d E =-.324861E+00  mag=     0.0006
 trial-energy change:   -0.324861  1 .order   -0.331489   -0.616094   -0.046885
 step:   1.0639(harm=  1.0573)  dis= 0.06275  next Energy= -1208.881826 (dE=-0.327E+00)
 bond charge predicted
 wavefunctions rotated
 writing wavefunctions
       N       E                     dE             d eps       ncg     rms           ort
SDA:   1    -0.120874499591E+04    0.13474E+00   -0.12600E+00  4592   0.315E+00   0.000E+00
DMP:   2    -0.120883631347E+04   -0.91318E-01   -0.56365E-01  4592   0.868E-01   0.142E+00
DMP:   3    -0.120887158867E+04   -0.35275E-01   -0.14748E-01  4592   0.233E-01   0.355E-01
DMP:   4    -0.120887947187E+04   -0.78832E-02   -0.25287E-02  4592   0.535E-02   0.254E-02
DMP:   5    -0.120888011511E+04   -0.64324E-03   -0.68505E-03  4592   0.290E-02  -0.311E-02
DMP:   6    -0.120888044344E+04   -0.32833E-03   -0.78333E-03  4592   0.199E-02  -0.725E-04
DMP:   7    -0.120888098441E+04   -0.54097E-03   -0.42533E-03  4592   0.777E-03   0.748E-03
DMP:   8    -0.120888126525E+04   -0.28084E-03   -0.14866E-03  4592   0.241E-03   0.343E-03
