<?xml version="1.0" encoding="ISO-8859-1"?>
<modeling>
 <generator>
  <i name="program" type="string">vasp </i>
  <i name="version" type="string">6.5.1  </i>
  <i name="subversion" type="string">10Mar25 (build May 05 2025 13:45:00) complex                          parallel </i>
  <i name="platform" type="string">LinuxIFC </i>
  <i name="date" type="string">2026 04 28 </i>
  <i name="time" type="string">12:52:09 </i>
 </generator>
 <incar>
  <i type="string" name="PREC">Normal</i>
  <i type="string" name="ALGO">Damped</i>
  <i type="int" name="ISPIN">     2</i>
  <i type="int" name="NELM">   100</i>
  <i type="int" name="IBRION">     2</i>
  <i name="EDIFF">      0.00001000</i>
  <i name="EDIFFG">     -0.03000000</i>
  <i type="int" name="NSW">   300</i>
  <i type="int" name="ISIF">     2</i>
  <i name="ENCUT">    400.00000000</i>
  <i name="NELECT">   1728.00000000</i>
  <i type="string" name="LREAL">Auto</i>
  <i name="TIME">      0.40000000</i>
  <i type="int" name="ISMEAR">     0</i>
  <i name="SIGMA">      0.10000000</i>
  <i type="logical" name="LWAVE"> T  </i>
  <i type="logical" name="LCHARG"> F  </i>
  <i type="int" name="LORBIT">    10</i>
  <i type="logical" name="LASPH"> T  </i>
  <i name="HFSCREEN">      0.20000000</i>
  <i type="logical" name="LHFCALC"> T  </i>
  <i name="AEXX">      0.36000000</i>
  <i type="string" name="PRECFOCK">Fast</i>
 </incar>
 <primitive_cell>
  <structure name="primitive_cell" >
   <crystal>
    <varray name="basis" >
     <v>      12.99749010       0.00000000       0.00000000 </v>
     <v>      -6.49874505      11.25615661       0.00000000 </v>
     <v>       0.00000000       0.00000000      15.63160369 </v>
    </varray>
    <i name="volume">   2286.93150813 </i>
    <varray name="rec_basis" >
     <v>       0.07693793       0.04442014       0.00000000 </v>
     <v>       0.00000000       0.08884027       0.00000000 </v>
     <v>       0.00000000       0.00000000       0.06397296 </v>
    </varray>
   </crystal>
   <varray name="positions" >
    <v>       0.08333333       0.16666667       0.33348073 </v>
    <v>       0.08333333       0.16666667       0.66681406 </v>
    <v>       0.08333333       0.41666667       0.00014739 </v>
    <v>       0.08333333       0.41666667       0.33348073 </v>
    <v>       0.08333333       0.41666667       0.66681406 </v>
    <v>       0.08333333       0.66666667       0.00014739 </v>
    <v>       0.08333333       0.66666667       0.33348073 </v>
    <v>       0.08333333       0.66666667       0.66681406 </v>
    <v>       0.08333333       0.91666667       0.00014739 </v>
    <v>       0.08333333       0.91666667       0.33348073 </v>
    <v>       0.08333333       0.91666667       0.66681406 </v>
    <v>       0.33333333       0.16666667       0.00014739 </v>
    <v>       0.33333333       0.16666667       0.33348073 </v>
    <v>       0.33333333       0.16666667       0.66681406 </v>
    <v>       0.33333333       0.41666667       0.00014739 </v>
    <v>       0.33333333       0.41666667       0.33348073 </v>
    <v>       0.33333333       0.41666667       0.66681406 </v>
    <v>       0.33333333       0.66666667       0.00014739 </v>
    <v>       0.33333333       0.66666667       0.33348073 </v>
    <v>       0.33333333       0.66666667       0.66681406 </v>
    <v>       0.33333333       0.91666667       0.00014739 </v>
    <v>       0.33333333       0.91666667       0.33348073 </v>
    <v>       0.33333333       0.91666667       0.66681406 </v>
    <v>       0.58333333       0.16666667       0.00014739 </v>
    <v>       0.58333333       0.16666667       0.33348073 </v>
    <v>       0.58333333       0.16666667       0.66681406 </v>
    <v>       0.58333333       0.41666667       0.00014739 </v>
    <v>       0.58333333       0.41666667       0.33348073 </v>
    <v>       0.58333333       0.41666667       0.66681406 </v>
    <v>       0.58333333       0.66666667       0.00014739 </v>
    <v>       0.58333333       0.66666667       0.33348073 </v>
    <v>       0.58333333       0.66666667       0.66681406 </v>
    <v>       0.58333333       0.91666667       0.00014739 </v>
    <v>       0.58333333       0.91666667       0.33348073 </v>
    <v>       0.58333333       0.91666667       0.66681406 </v>
    <v>       0.83333333       0.16666667       0.00014739 </v>
    <v>       0.83333333       0.16666667       0.33348073 </v>
    <v>       0.83333333       0.16666667       0.66681406 </v>
    <v>       0.83333333       0.41666667       0.00014739 </v>
    <v>       0.83333333       0.41666667       0.33348073 </v>
    <v>       0.83333333       0.41666667       0.66681406 </v>
    <v>       0.83333333       0.66666667       0.00014739 </v>
    <v>       0.83333333       0.66666667       0.33348073 </v>
    <v>       0.83333333       0.66666667       0.66681406 </v>
    <v>       0.83333333       0.91666667       0.00014739 </v>
    <v>       0.83333333       0.91666667       0.33348073 </v>
    <v>       0.83333333       0.91666667       0.66681406 </v>
    <v>       0.16666667       0.08333333       0.16681406 </v>
    <v>       0.16666667       0.08333333       0.50014739 </v>
    <v>       0.16666667       0.08333333       0.83348073 </v>
    <v>       0.16666667       0.33333333       0.16681406 </v>
    <v>       0.16666667       0.33333333       0.50014739 </v>
    <v>       0.16666667       0.33333333       0.83348073 </v>
    <v>       0.16666667       0.58333333       0.16681406 </v>
    <v>       0.16666667       0.58333333       0.50014739 </v>
    <v>       0.16666667       0.58333333       0.83348073 </v>
    <v>       0.16666667       0.83333333       0.16681406 </v>
    <v>       0.16666667       0.83333333       0.50014739 </v>
    <v>       0.16666667       0.83333333       0.83348073 </v>
    <v>       0.41666667       0.08333333       0.16681406 </v>
    <v>       0.41666667       0.08333333       0.50014739 </v>
    <v>       0.41666667       0.08333333       0.83348073 </v>
    <v>       0.41666667       0.33333333       0.16681406 </v>
    <v>       0.41666667       0.33333333       0.50014739 </v>
    <v>       0.41666667       0.33333333       0.83348073 </v>
    <v>       0.41666667       0.58333333       0.16681406 </v>
    <v>       0.41666667       0.58333333       0.50014739 </v>
    <v>       0.41666667       0.58333333       0.83348073 </v>
    <v>       0.41666667       0.83333333       0.16681406 </v>
    <v>       0.41666667       0.83333333       0.50014739 </v>
    <v>       0.41666667       0.83333333       0.83348073 </v>
    <v>       0.66666667       0.08333333       0.16681406 </v>
    <v>       0.66666667       0.08333333       0.50014739 </v>
    <v>       0.66666667       0.08333333       0.83348073 </v>
    <v>       0.66666667       0.33333333       0.16681406 </v>
    <v>       0.66666667       0.33333333       0.50014739 </v>
    <v>       0.66666667       0.33333333       0.83348073 </v>
    <v>       0.66666667       0.58333333       0.16681406 </v>
    <v>       0.66666667       0.58333333       0.50014739 </v>
    <v>       0.66666667       0.58333333       0.83348073 </v>
    <v>       0.66666667       0.83333333       0.16681406 </v>
    <v>       0.66666667       0.83333333       0.50014739 </v>
    <v>       0.66666667       0.83333333       0.83348073 </v>
    <v>       0.91666667       0.08333333       0.16681406 </v>
    <v>       0.91666667       0.08333333       0.50014739 </v>
    <v>       0.91666667       0.08333333       0.83348073 </v>
    <v>       0.91666667       0.33333333       0.16681406 </v>
    <v>       0.91666667       0.33333333       0.50014739 </v>
    <v>       0.91666667       0.33333333       0.83348073 </v>
    <v>       0.91666667       0.58333333       0.16681406 </v>
    <v>       0.91666667       0.58333333       0.50014739 </v>
    <v>       0.91666667       0.58333333       0.83348073 </v>
    <v>       0.91666667       0.83333333       0.16681406 </v>
    <v>       0.91666667       0.83333333       0.50014739 </v>
    <v>       0.91666667       0.83333333       0.83348073 </v>
    <v>       0.08682944       0.16193586       0.13277380 </v>
    <v>       0.08333333       0.16666667       0.46048594 </v>
    <v>       0.08333333       0.16666667       0.79381927 </v>
    <v>       0.08333333       0.41666667       0.12715261 </v>
    <v>       0.08333333       0.41666667       0.46048594 </v>
    <v>       0.08333333       0.41666667       0.79381927 </v>
    <v>       0.08333333       0.66666667       0.12715261 </v>
    <v>       0.08333333       0.66666667       0.46048594 </v>
    <v>       0.08333333       0.66666667       0.79381927 </v>
    <v>       0.08333333       0.91666667       0.12715261 </v>
    <v>       0.08333333       0.91666667       0.46048594 </v>
    <v>       0.08333333       0.91666667       0.79381927 </v>
    <v>       0.33333333       0.16666667       0.12715261 </v>
    <v>       0.33333333       0.16666667       0.46048594 </v>
    <v>       0.33333333       0.16666667       0.79381927 </v>
    <v>       0.33333333       0.41666667       0.12715261 </v>
    <v>       0.33333333       0.41666667       0.46048594 </v>
    <v>       0.33333333       0.41666667       0.79381927 </v>
    <v>       0.33333333       0.66666667       0.12715261 </v>
    <v>       0.33333333       0.66666667       0.46048594 </v>
    <v>       0.33333333       0.66666667       0.79381927 </v>
    <v>       0.33333333       0.91666667       0.12715261 </v>
    <v>       0.33333333       0.91666667       0.46048594 </v>
    <v>       0.33333333       0.91666667       0.79381927 </v>
    <v>       0.58333333       0.16666667       0.12715261 </v>
    <v>       0.58333333       0.16666667       0.46048594 </v>
    <v>       0.58333333       0.16666667       0.79381927 </v>
    <v>       0.58333333       0.41666667       0.12715261 </v>
    <v>       0.58333333       0.41666667       0.46048594 </v>
    <v>       0.58333333       0.41666667       0.79381927 </v>
    <v>       0.58333333       0.66666667       0.12715261 </v>
    <v>       0.58333333       0.66666667       0.46048594 </v>
    <v>       0.58333333       0.66666667       0.79381927 </v>
    <v>       0.58333333       0.91666667       0.12715261 </v>
    <v>       0.58333333       0.91666667       0.46048594 </v>
    <v>       0.58333333       0.91666667       0.79381927 </v>
    <v>       0.83333333       0.16666667       0.12715261 </v>
    <v>       0.83333333       0.16666667       0.46048594 </v>
    <v>       0.83333333       0.16666667       0.79381927 </v>
    <v>       0.83333333       0.41666667       0.12715261 </v>
    <v>       0.83333333       0.41666667       0.46048594 </v>
    <v>       0.83333333       0.41666667       0.79381927 </v>
    <v>       0.83333333       0.66666667       0.12715261 </v>
    <v>       0.83333333       0.66666667       0.46048594 </v>
    <v>       0.83333333       0.66666667       0.79381927 </v>
    <v>       0.83333333       0.91666667       0.12715261 </v>
    <v>       0.83333333       0.91666667       0.46048594 </v>
    <v>       0.83333333       0.91666667       0.79381927 </v>
    <v>       0.16666667       0.08333333       0.29381927 </v>
    <v>       0.16666667       0.08333333       0.62715261 </v>
    <v>       0.16585092       0.08019168       0.95207485 </v>
    <v>       0.16666667       0.33333333       0.29381927 </v>
    <v>       0.16666667       0.33333333       0.62715261 </v>
    <v>       0.17830656       0.33059776       0.96052069 </v>
    <v>       0.16666667       0.58333333       0.29381927 </v>
    <v>       0.16666667       0.58333333       0.62715261 </v>
    <v>       0.16666667       0.58333333       0.96048594 </v>
    <v>       0.16666667       0.83333333       0.29381927 </v>
    <v>       0.16666667       0.83333333       0.62715261 </v>
    <v>       0.16666667       0.83333333       0.96048594 </v>
    <v>       0.41666667       0.08333333       0.29381927 </v>
    <v>       0.41666667       0.08333333       0.62715261 </v>
    <v>       0.41666667       0.08333333       0.96048594 </v>
    <v>       0.41666667       0.33333333       0.29381927 </v>
    <v>       0.41666667       0.33333333       0.62715261 </v>
    <v>       0.41666667       0.33333333       0.96048594 </v>
    <v>       0.41666667       0.58333333       0.29381927 </v>
    <v>       0.41666667       0.58333333       0.62715261 </v>
    <v>       0.41666667       0.58333333       0.96048594 </v>
    <v>       0.41666667       0.83333333       0.29381927 </v>
    <v>       0.41666667       0.83333333       0.62715261 </v>
    <v>       0.41666667       0.83333333       0.96048594 </v>
    <v>       0.66666667       0.08333333       0.29381927 </v>
    <v>       0.66666667       0.08333333       0.62715261 </v>
    <v>       0.66666667       0.08333333       0.96048594 </v>
    <v>       0.66666667       0.33333333       0.29381927 </v>
    <v>       0.66666667       0.33333333       0.62715261 </v>
    <v>       0.66666667       0.33333333       0.96048594 </v>
    <v>       0.66666667       0.58333333       0.29381927 </v>
    <v>       0.66666667       0.58333333       0.62715261 </v>
    <v>       0.66666667       0.58333333       0.96048594 </v>
    <v>       0.66666667       0.83333333       0.29381927 </v>
    <v>       0.66666667       0.83333333       0.62715261 </v>
    <v>       0.66666667       0.83333333       0.96048594 </v>
    <v>       0.91666667       0.08333333       0.29381927 </v>
    <v>       0.91666667       0.08333333       0.62715261 </v>
    <v>       0.91094538       0.07644431       0.96376084 </v>
    <v>       0.91666667       0.33333333       0.29381927 </v>
    <v>       0.91666667       0.33333333       0.62715261 </v>
    <v>       0.91666667       0.33333333       0.96048594 </v>
    <v>       0.91666667       0.58333333       0.29381927 </v>
    <v>       0.91666667       0.58333333       0.62715261 </v>
    <v>       0.91666667       0.58333333       0.96048594 </v>
    <v>       0.91666667       0.83333333       0.29381927 </v>
    <v>       0.91666667       0.83333333       0.62715261 </v>
    <v>       0.91666667       0.83333333       0.96048594 </v>
    <v>       0.08333333       0.16666667       0.00014739 </v>
   </varray>
  </structure>
  <varray name="primitive_index" >
   <v type="int" >        1 </v>
   <v type="int" >        2 </v>
   <v type="int" >        3 </v>
   <v type="int" >        4 </v>
   <v type="int" >        5 </v>
   <v type="int" >        6 </v>
   <v type="int" >        7 </v>
   <v type="int" >        8 </v>
   <v type="int" >        9 </v>
   <v type="int" >       10 </v>
   <v type="int" >       11 </v>
   <v type="int" >       12 </v>
   <v type="int" >       13 </v>
   <v type="int" >       14 </v>
   <v type="int" >       15 </v>
   <v type="int" >       16 </v>
   <v type="int" >       17 </v>
   <v type="int" >       18 </v>
   <v type="int" >       19 </v>
   <v type="int" >       20 </v>
   <v type="int" >       21 </v>
   <v type="int" >       22 </v>
   <v type="int" >       23 </v>
   <v type="int" >       24 </v>
   <v type="int" >       25 </v>
   <v type="int" >       26 </v>
   <v type="int" >       27 </v>
   <v type="int" >       28 </v>
   <v type="int" >       29 </v>
   <v type="int" >       30 </v>
   <v type="int" >       31 </v>
   <v type="int" >       32 </v>
   <v type="int" >       33 </v>
   <v type="int" >       34 </v>
   <v type="int" >       35 </v>
   <v type="int" >       36 </v>
   <v type="int" >       37 </v>
   <v type="int" >       38 </v>
   <v type="int" >       39 </v>
   <v type="int" >       40 </v>
   <v type="int" >       41 </v>
   <v type="int" >       42 </v>
   <v type="int" >       43 </v>
   <v type="int" >       44 </v>
   <v type="int" >       45 </v>
   <v type="int" >       46 </v>
   <v type="int" >       47 </v>
   <v type="int" >       48 </v>
   <v type="int" >       49 </v>
   <v type="int" >       50 </v>
   <v type="int" >       51 </v>
   <v type="int" >       52 </v>
   <v type="int" >       53 </v>
   <v type="int" >       54 </v>
   <v type="int" >       55 </v>
   <v type="int" >       56 </v>
   <v type="int" >       57 </v>
   <v type="int" >       58 </v>
   <v type="int" >       59 </v>
   <v type="int" >       60 </v>
   <v type="int" >       61 </v>
   <v type="int" >       62 </v>
   <v type="int" >       63 </v>
   <v type="int" >       64 </v>
   <v type="int" >       65 </v>
   <v type="int" >       66 </v>
   <v type="int" >       67 </v>
   <v type="int" >       68 </v>
   <v type="int" >       69 </v>
   <v type="int" >       70 </v>
   <v type="int" >       71 </v>
   <v type="int" >       72 </v>
   <v type="int" >       73 </v>
   <v type="int" >       74 </v>
   <v type="int" >       75 </v>
   <v type="int" >       76 </v>
   <v type="int" >       77 </v>
   <v type="int" >       78 </v>
   <v type="int" >       79 </v>
   <v type="int" >       80 </v>
   <v type="int" >       81 </v>
   <v type="int" >       82 </v>
   <v type="int" >       83 </v>
   <v type="int" >       84 </v>
   <v type="int" >       85 </v>
   <v type="int" >       86 </v>
   <v type="int" >       87 </v>
   <v type="int" >       88 </v>
   <v type="int" >       89 </v>
   <v type="int" >       90 </v>
   <v type="int" >       91 </v>
   <v type="int" >       92 </v>
   <v type="int" >       93 </v>
   <v type="int" >       94 </v>
   <v type="int" >       95 </v>
   <v type="int" >       96 </v>
   <v type="int" >       97 </v>
   <v type="int" >       98 </v>
   <v type="int" >       99 </v>
   <v type="int" >      100 </v>
   <v type="int" >      101 </v>
   <v type="int" >      102 </v>
   <v type="int" >      103 </v>
   <v type="int" >      104 </v>
   <v type="int" >      105 </v>
   <v type="int" >      106 </v>
   <v type="int" >      107 </v>
   <v type="int" >      108 </v>
   <v type="int" >      109 </v>
   <v type="int" >      110 </v>
   <v type="int" >      111 </v>
   <v type="int" >      112 </v>
   <v type="int" >      113 </v>
   <v type="int" >      114 </v>
   <v type="int" >      115 </v>
   <v type="int" >      116 </v>
   <v type="int" >      117 </v>
   <v type="int" >      118 </v>
   <v type="int" >      119 </v>
   <v type="int" >      120 </v>
   <v type="int" >      121 </v>
   <v type="int" >      122 </v>
   <v type="int" >      123 </v>
   <v type="int" >      124 </v>
   <v type="int" >      125 </v>
   <v type="int" >      126 </v>
   <v type="int" >      127 </v>
   <v type="int" >      128 </v>
   <v type="int" >      129 </v>
   <v type="int" >      130 </v>
   <v type="int" >      131 </v>
   <v type="int" >      132 </v>
   <v type="int" >      133 </v>
   <v type="int" >      134 </v>
   <v type="int" >      135 </v>
   <v type="int" >      136 </v>
   <v type="int" >      137 </v>
   <v type="int" >      138 </v>
   <v type="int" >      139 </v>
   <v type="int" >      140 </v>
   <v type="int" >      141 </v>
   <v type="int" >      142 </v>
   <v type="int" >      143 </v>
   <v type="int" >      144 </v>
   <v type="int" >      145 </v>
   <v type="int" >      146 </v>
   <v type="int" >      147 </v>
   <v type="int" >      148 </v>
   <v type="int" >      149 </v>
   <v type="int" >      150 </v>
   <v type="int" >      151 </v>
   <v type="int" >      152 </v>
   <v type="int" >      153 </v>
   <v type="int" >      154 </v>
   <v type="int" >      155 </v>
   <v type="int" >      156 </v>
   <v type="int" >      157 </v>
   <v type="int" >      158 </v>
   <v type="int" >      159 </v>
   <v type="int" >      160 </v>
   <v type="int" >      161 </v>
   <v type="int" >      162 </v>
   <v type="int" >      163 </v>
   <v type="int" >      164 </v>
   <v type="int" >      165 </v>
   <v type="int" >      166 </v>
   <v type="int" >      167 </v>
   <v type="int" >      168 </v>
   <v type="int" >      169 </v>
   <v type="int" >      170 </v>
   <v type="int" >      171 </v>
   <v type="int" >      172 </v>
   <v type="int" >      173 </v>
   <v type="int" >      174 </v>
   <v type="int" >      175 </v>
   <v type="int" >      176 </v>
   <v type="int" >      177 </v>
   <v type="int" >      178 </v>
   <v type="int" >      179 </v>
   <v type="int" >      180 </v>
   <v type="int" >      181 </v>
   <v type="int" >      182 </v>
   <v type="int" >      183 </v>
   <v type="int" >      184 </v>
   <v type="int" >      185 </v>
   <v type="int" >      186 </v>
   <v type="int" >      187 </v>
   <v type="int" >      188 </v>
   <v type="int" >      189 </v>
   <v type="int" >      190 </v>
   <v type="int" >      191 </v>
   <v type="int" >      192 </v>
  </varray>
 </primitive_cell>
 <kpoints>
  <generation param="Gamma">
   <v type="int" name="divisions">       2        2        1 </v>
   <v name="usershift">      0.00000000       0.00000000       0.00000000 </v>
   <v name="genvec1">      0.50000000       0.00000000       0.00000000 </v>
   <v name="genvec2">      0.00000000       0.50000000       0.00000000 </v>
   <v name="genvec3">      0.00000000       0.00000000       1.00000000 </v>
   <v name="shift">      0.00000000       0.00000000       0.00000000 </v>
  </generation>
  <varray name="kpointlist" >
   <v>       0.00000000       0.00000000       0.00000000 </v>
   <v>       0.50000000      -0.00000000       0.00000000 </v>
   <v>       0.00000000       0.50000000       0.00000000 </v>
   <v>       0.50000000       0.50000000       0.00000000 </v>
  </varray>
  <varray name="weights" >
   <v>       0.25000000 </v>
   <v>       0.25000000 </v>
   <v>       0.25000000 </v>
   <v>       0.25000000 </v>
  </varray>
 </kpoints>
 <parameters>
  <separator name="general" >
   <i type="string" name="SYSTEM">unknown system</i>
   <i type="logical" name="LCOMPAT"> F  </i>
  </separator>
  <separator name="electronic" >
   <i type="string" name="PREC">normal</i>
   <i name="ENMAX">    400.00000000</i>
   <i name="ENAUG">    605.39200000</i>
   <i name="EDIFF">      0.00001000</i>
   <i type="int" name="IALGO">    53</i>
   <i type="int" name="IWAVPR">    11</i>
   <i type="int" name="NBANDS">  1148</i>
   <i type="int" name="NBANDSLOW">    -1</i>
   <i type="int" name="NBANDSHIGH">    -1</i>
   <i name="NELECT">   1728.00000000</i>
   <i type="int" name="TURBO">     0</i>
   <i type="int" name="IRESTART">     0</i>
   <i type="int" name="NREBOOT">     0</i>
   <i type="int" name="NMIN">     0</i>
   <i name="EREF">      0.00000000</i>
   <separator name="electronic smearing" >
    <i type="int" name="ISMEAR">     0</i>
    <i name="SIGMA">      0.10000000</i>
    <i name="KSPACING">      0.50000000</i>
    <i type="logical" name="KGAMMA"> T  </i>
    <i type="logical" name="KBLOWUP"> T  </i>
   </separator>
   <separator name="electronic projectors" >
    <i type="logical" name="LREAL"> T  </i>
    <v name="ROPT">     -0.00050000     -0.00050000     -0.00050000</v>
    <i type="int" name="LMAXPAW">  -100</i>
    <i type="int" name="LMAXMIX">     2</i>
    <i type="logical" name="NLSPLINE"> F  </i>
   </separator>
   <separator name="electronic startup" >
    <i type="int" name="ISTART">     0</i>
    <i type="int" name="ICHARG">     2</i>
    <i type="int" name="INIWAV">     1</i>
   </separator>
   <separator name="electronic spin" >
    <i type="int" name="ISPIN">     2</i>
    <i type="logical" name="LNONCOLLINEAR"> F  </i>
    <v name="MAGMOM">      1.00000000      1.00000000      1.00000000      1.00000000      1.00000000      1.00000000      1.00000000      1.00000000      1.00000000      1.00000000      1.00000000      1.00000000      1.00000000      1.00000000      1.00000000      1.00000000      1.00000000      1.00000000      1.00000000      1.00000000
      1.00000000      1.00000000      1.00000000      1.00000000      1.00000000      1.00000000      1.00000000      1.00000000      1.00000000      1.00000000      1.00000000      1.00000000      1.00000000      1.00000000      1.00000000      1.00000000      1.00000000      1.00000000      1.00000000      1.00000000
      1.00000000      1.00000000      1.00000000      1.00000000      1.00000000      1.00000000      1.00000000      1.00000000      1.00000000      1.00000000      1.00000000      1.00000000      1.00000000      1.00000000      1.00000000      1.00000000      1.00000000      1.00000000      1.00000000      1.00000000
      1.00000000      1.00000000      1.00000000      1.00000000      1.00000000      1.00000000      1.00000000      1.00000000      1.00000000      1.00000000      1.00000000      1.00000000      1.00000000      1.00000000      1.00000000      1.00000000      1.00000000      1.00000000      1.00000000      1.00000000
      1.00000000      1.00000000      1.00000000      1.00000000      1.00000000      1.00000000      1.00000000      1.00000000      1.00000000      1.00000000      1.00000000      1.00000000      1.00000000      1.00000000      1.00000000      1.00000000      1.00000000      1.00000000      1.00000000      1.00000000
      1.00000000      1.00000000      1.00000000      1.00000000      1.00000000      1.00000000      1.00000000      1.00000000      1.00000000      1.00000000      1.00000000      1.00000000      1.00000000      1.00000000      1.00000000      1.00000000      1.00000000      1.00000000      1.00000000      1.00000000
      1.00000000      1.00000000      1.00000000      1.00000000      1.00000000      1.00000000      1.00000000      1.00000000      1.00000000      1.00000000      1.00000000      1.00000000      1.00000000      1.00000000      1.00000000      1.00000000      1.00000000      1.00000000      1.00000000      1.00000000
      1.00000000      1.00000000      1.00000000      1.00000000      1.00000000      1.00000000      1.00000000      1.00000000      1.00000000      1.00000000      1.00000000      1.00000000      1.00000000      1.00000000      1.00000000      1.00000000      1.00000000      1.00000000      1.00000000      1.00000000
      1.00000000      1.00000000      1.00000000      1.00000000      1.00000000      1.00000000      1.00000000      1.00000000      1.00000000      1.00000000      1.00000000      1.00000000      1.00000000      1.00000000      1.00000000      1.00000000      1.00000000      1.00000000      1.00000000      1.00000000
      1.00000000      1.00000000      1.00000000      1.00000000      1.00000000      1.00000000      1.00000000      1.00000000      1.00000000      1.00000000      1.00000000      1.00000000</v>
    <i name="NUPDOWN">     -1.00000000</i>
    <i type="logical" name="LSORBIT"> F  </i>
    <v name="SAXIS">      0.00000000      0.00000000      1.00000000</v>
    <i type="logical" name="LSPIRAL"> F  </i>
    <v name="QSPIRAL">      0.00000000      0.00000000      0.00000000</v>
    <i type="logical" name="LZEROZ"> F  </i>
   </separator>
   <separator name="electronic exchange-correlation" >
    <i type="logical" name="LASPH"> T  </i>
   </separator>
   <separator name="electronic convergence" >
    <i type="int" name="NELM">   100</i>
    <i type="int" name="NELMDL">    -5</i>
    <i type="int" name="NELMIN">     2</i>
    <i name="ENINI">    400.00000000</i>
    <separator name="electronic convergence detail" >
     <i type="logical" name="LDIAG"> T  </i>
     <i type="logical" name="LSUBROT"> F  </i>
     <i type="logical" name="LROBUST"> F  </i>
     <i type="int" name="ISEARCH">     0</i>
     <i name="WEIMIN">      0.00100000</i>
     <i name="EBREAK">      0.00000000</i>
     <i name="DEPER">      0.30000000</i>
     <i type="int" name="NRMM">     4</i>
     <i name="TIME">      0.40000000</i>
    </separator>
   </separator>
   <separator name="electronic mixer" >
    <i name="AMIX">      0.40000000</i>
    <i name="BMIX">      1.00000000</i>
    <i name="AMIN">      0.10000000</i>
    <i name="AMIX_MAG">      1.60000000</i>
    <i name="BMIX_MAG">      1.00000000</i>
    <separator name="electronic mixer details" >
     <i type="int" name="IMIX">     4</i>
     <i type="logical" name="MIXFIRST"> F  </i>
     <i type="int" name="MAXMIX">   -45</i>
     <i name="WC">    100.00000000</i>
     <i type="int" name="INIMIX">     1</i>
     <i type="int" name="MIXPRE">     1</i>
     <i type="int" name="MREMOVE">     5</i>
    </separator>
   </separator>
   <separator name="electronic dipolcorrection" >
    <i type="logical" name="LDIPOL"> F  </i>
    <i type="logical" name="LMONO"> F  </i>
    <i type="int" name="IDIPOL">     0</i>
    <i name="EPSILON">      1.00000000</i>
    <v name="DIPOL">   -100.00000000   -100.00000000   -100.00000000</v>
    <i name="EFIELD">      0.00000000</i>
    <i type="logical" name="LVACPOTAV"> F  </i>
   </separator>
  </separator>
  <separator name="grids" >
   <i type="int" name="NGX">    64</i>
   <i type="int" name="NGY">    64</i>
   <i type="int" name="NGZ">    80</i>
   <i type="int" name="NGXF">   128</i>
   <i type="int" name="NGYF">   128</i>
   <i type="int" name="NGZF">   160</i>
   <i type="logical" name="ADDGRID"> F  </i>
  </separator>
  <separator name="ionic" >
   <i type="int" name="NSW">   300</i>
   <i type="int" name="IBRION">     2</i>
   <i type="int" name="MDALGO">     0</i>
   <i type="int" name="ISIF">     2</i>
   <i name="PSTRESS">      0.00000000</i>
   <i name="EDIFFG">     -0.03000000</i>
   <i type="int" name="NFREE">     1</i>
   <i name="POTIM">      0.50000000</i>
   <i name="SMASS">     -3.00000000</i>
   <i name="SCALEE">      1.00000000</i>
  </separator>
  <separator name="ionic md" >
   <i name="TEBEG">      0.00010000</i>
   <i name="TEEND">      0.00010000</i>
   <i type="int" name="NBLOCK">     1</i>
   <i type="int" name="KBLOCK">   300</i>
   <i type="int" name="NPACO">   256</i>
   <i name="APACO">     10.00000000</i>
  </separator>
  <separator name="symmetry" >
   <i type="int" name="ISYM">     3</i>
   <i name="SYMPREC">      0.00001000</i>
  </separator>
  <separator name="dos" >
   <i type="int" name="LORBIT">    10</i>
   <v name="RWIGS">     -1.00000000     -1.00000000     -1.00000000</v>
   <i type="int" name="NEDOS">   301</i>
   <i name="EMIN">     10.00000000</i>
   <i name="EMAX">    -10.00000000</i>
   <i name="EFERMI">      0.00000000</i>
  </separator>
  <separator name="writing" >
   <i type="int" name="NWRITE">     2</i>
   <i type="logical" name="LWAVE"> T  </i>
   <i type="logical" name="LDOWNSAMPLE"> F  </i>
   <i type="logical" name="LCHARG"> F  </i>
   <i type="logical" name="LPARD"> F  </i>
   <i type="logical" name="LVTOT"> F  </i>
   <i type="logical" name="LVHAR"> F  </i>
   <i type="logical" name="LELF"> F  </i>
   <i type="logical" name="LOPTICS"> F  </i>
   <v name="STM">      0.00000000      0.00000000      0.00000000      0.00000000      0.00000000      0.00000000      0.00000000</v>
  </separator>
  <separator name="performance" >
   <i type="int" name="NPAR">    28</i>
   <i type="int" name="NSIM">     4</i>
   <i type="int" name="NBLK">    -1</i>
   <i type="logical" name="LPLANE"> T  </i>
   <i type="logical" name="LSCALAPACK"> T  </i>
   <i type="logical" name="LSCAAWARE"> F  </i>
   <i type="logical" name="LSCALU"> F  </i>
   <i type="logical" name="LASYNC"> F  </i>
   <i type="logical" name="LORBITALREAL"> F  </i>
  </separator>
  <separator name="miscellaneous" >
   <i type="int" name="IDIOT">     3</i>
   <i type="int" name="PHON_NSTRUCT">    -1</i>
   <i type="logical" name="LMUSIC"> F  </i>
   <v name="POMASS">     65.39000000     16.00000000    144.24000000</v>
   <v name="DARWINR">      0.00000000      0.00000000      0.00000000</v>
   <v name="DARWINV">      1.00000000      1.00000000      1.00000000</v>
   <i type="logical" name="LCORR"> T  </i>
  </separator>
  <i type="logical" name="GGA_COMPAT"> T  </i>
  <i type="logical" name="LBERRY"> F  </i>
  <i type="int" name="ICORELEVEL">     0</i>
  <i type="logical" name="LDAU"> F  </i>
  <i type="int" name="I_CONSTRAINED_M">     0</i>
  <separator name="electronic exchange-correlation" >
   <i type="string" name="GGA    ">PE</i>
   <i type="string" name="XC_C">1</i>
   <i type="int" name="VOSKOWN">     0</i>
   <i type="logical" name="LHFCALC"> T  </i>
   <i type="string" name="PRECFOCK">fast</i>
   <i type="logical" name="LSYMGRAD"> F  </i>
   <i type="logical" name="LHFONE"> F  </i>
   <i type="logical" name="LRHFCALC"> F  </i>
   <i type="logical" name="LTHOMAS"> F  </i>
   <i type="logical" name="LMODELHF"> F  </i>
   <i type="logical" name="LFOCKACE"> T  </i>
   <i name="ENCUT4O">     -1.00000000</i>
   <i type="int" name="EXXOEP">     0</i>
   <i type="int" name="FOURORBIT">     0</i>
   <i name="AEXX">      0.36000000</i>
   <i name="HFALPHA">     -1.00000000</i>
   <i name="MCALPHA">      0.00000000</i>
   <i name="ALDAX">      0.64000000</i>
   <i name="AGGAX">      0.64000000</i>
   <i name="AMGGAX">      0.64000000</i>
   <i name="ALDAC">      1.00000000</i>
   <i name="AGGAC">      1.00000000</i>
   <i name="AMGGAC">      1.00000000</i>
   <i type="int" name="NKREDX">     1</i>
   <i type="int" name="NKREDY">     1</i>
   <i type="int" name="NKREDZ">     1</i>
   <i type="logical" name="SHIFTRED"> F  </i>
   <i type="logical" name="ODDONLY"> F  </i>
   <i type="logical" name="EVENONLY"> F  </i>
   <i type="int" name="LMAXFOCK">     4</i>
   <i type="int" name="NMAXFOCKAE">     1</i>
   <i type="logical" name="LFOCKAEDFT"> F  </i>
   <i name="HFSCREEN">      0.20000000</i>
   <i name="HFSCREENC">      0.20000000</i>
   <i type="int" name="NBANDSGWLOW">     1</i>
  </separator>
  <separator name="vdW DFT" >
   <i type="logical" name="LUSE_VDW"> F  </i>
   <i type="int" name="IVDW_NL">    -1</i>
   <i type="logical" name="LSPIN_VDW"> F  </i>
   <i name="ZAB_VDW">     -0.84910000</i>
   <i name="GAMMA_VDW">      1.39626340</i>
   <i name="ALPHA_VDW">      0.00000000</i>
   <i name="PARAM1">      0.12340000</i>
   <i name="PARAM2">      1.00000000</i>
   <i name="BPARAM">      6.30000000</i>
   <i name="CPARAM">      0.00930000</i>
  </separator>
  <separator name="model GW" >
   <i type="int" name="MODEL_GW">     0</i>
   <i name="MODEL_EPS0">      7.14666096</i>
   <i name="MODEL_ALPHA">      1.00000000</i>
  </separator>
  <separator name="linear response parameters" >
   <i type="logical" name="LEPSILON"> F  </i>
   <i type="logical" name="LRPA"> F  </i>
   <i type="logical" name="LNABLA"> F  </i>
   <i type="logical" name="LVEL"> F  </i>
   <i name="CSHIFT">      0.10000000</i>
   <i name="OMEGAMAX">     -1.00000000</i>
   <i name="DEG_THRESHOLD">      0.00200000</i>
   <i name="RTIME">     -0.10000000</i>
   <i name="WPLASMAI">      0.00000000</i>
   <v name="DFIELD">      0.00000000      0.00000000      0.00000000</v>
   <v name="WPLASMA">      0.00000000      0.00000000      0.00000000      0.00000000      0.00000000      0.00000000      0.00000000      0.00000000      0.00000000</v>
  </separator>
  <separator name="orbital magnetization" >
   <i type="logical" name="NUCIND"> F  </i>
   <v name="MAGPOS">      0.00000000      0.00000000      0.00000000</v>
   <i type="logical" name="LNICSALL"> T  </i>
   <i type="logical" name="ORBITALMAG"> F  </i>
   <i type="logical" name="LMAGBLOCH"> F  </i>
   <i type="logical" name="LCHIMAG"> F  </i>
   <i type="logical" name="LGAUGE"> T  </i>
   <i type="int" name="MAGATOM">     0</i>
   <v name="MAGDIPOL">      0.00000000      0.00000000      0.00000000</v>
   <v name="AVECCONST">      0.00000000      0.00000000      0.00000000</v>
  </separator>
  <separator name="response functions" >
   <i type="logical" name="LALL_IN_ONE"> F  </i>
   <i type="int" name="IALL_IN_ONE">    -1</i>
   <i type="int" name="NBANDS_WAVE">    -1</i>
   <i type="logical" name="LFINITE_TEMPERATURE"> F  </i>
   <i type="logical" name="LADDER"> F  </i>
   <i type="logical" name="LRPAFORCE"> F  </i>
   <i type="logical" name="LFXC"> F  </i>
   <i type="logical" name="LHARTREE"> T  </i>
   <i type="int" name="IBSE">     2</i>
   <v type="int" name="KPOINT">    -1     0     0     0</v>
   <i type="logical" name="LTCTC"> F  </i>
   <i type="logical" name="LTCTE"> F  </i>
   <i type="logical" name="LTETE"> F  </i>
   <i type="logical" name="LTRIPLET"> F  </i>
   <i type="logical" name="LFXCEPS"> F  </i>
   <i type="logical" name="LFXHEG"> F  </i>
   <i type="int" name="NATURALO">     2</i>
   <i type="logical" name="LHOLEGF"> F  </i>
   <i type="logical" name="L2ORDER"> F  </i>
   <i type="logical" name="LDMP1"> F  </i>
   <i type="logical" name="LMP2LT"> F  </i>
   <i type="logical" name="LSMP2LT"> F  </i>
   <i type="logical" name="LGWLF"> F  </i>
   <i name="ENCUTGW">     -1.60000002</i>
   <i name="ENCUTGWSOFT">     -1.60000002</i>
   <i name="ENCUTLF">     -1.00000000</i>
   <i type="logical" name="ESF_SPLINES"> F  </i>
   <i name="ESF_CONV">      0.01000000</i>
   <i type="int" name="ESF_NINTER">    15</i>
   <i type="int" name="LMAXMP2">    -1</i>
   <i name="SCISSOR">      0.00000000</i>
   <i type="int" name="NOMEGA">     0</i>
   <i type="int" name="NOMEGAR">     0</i>
   <i type="int" name="NBANDSGW">    -1</i>
   <i type="int" name="NBANDSO">    -1</i>
   <i type="int" name="NBANDSV">    -1</i>
   <i type="int" name="NELMGW">     1</i>
   <i type="int" name="NELMHF">     1</i>
   <i type="int" name="DIM">     3</i>
   <i type="int" name="IESPILON">     4</i>
   <i type="int" name="ANTIRES">     0</i>
   <i name="OMEGAMAX">    -30.00000000</i>
   <i name="OMEGAMIN">    -30.00000000</i>
   <i name="OMEGATL">   -200.00000000</i>
   <i type="int" name="OMEGAGRID">     0</i>
   <i name="CSHIFT">     -0.10000000</i>
   <i type="logical" name="LSELFENERGY"> F  </i>
   <i type="logical" name="LSPECTRAL"> F  </i>
   <i type="logical" name="LSPECTRALGW"> F  </i>
   <i type="logical" name="LSINGLES"> F  </i>
   <i type="logical" name="LFERMIGW"> F  </i>
   <i type="logical" name="ODDONLYGW"> F  </i>
   <i type="logical" name="EVENONLYGW"> F  </i>
   <i type="int" name="NKREDLFX">     1</i>
   <i type="int" name="NKREDLFY">     1</i>
   <i type="int" name="NKREDLFZ">     1</i>
   <i type="int" name="MAXMEM">  2800</i>
   <i type="int" name="TELESCOPE">     0</i>
   <i type="int" name="NTAUPAR">    -1</i>
   <i type="int" name="NOMEGAPAR">    -1</i>
   <i name="DAMP_NEWTON">      0.80000001</i>
   <i name="LAMBDA">      1.00000000</i>
  </separator>
  <separator name="External order field" >
   <i name="OFIELD_KAPPA">      0.00000000</i>
   <v name="OFIELD_K">      0.00000000      0.00000000      0.00000000</v>
   <i name="OFIELD_Q6_NEAR">      0.00000000</i>
   <i name="OFIELD_Q6_FAR">      0.00000000</i>
   <i name="OFIELD_A">      0.00000000</i>
  </separator>
  <separator name="optional k-points parameters" >
   <i type="int" name="KPOINTS_OPT_MODE">     1</i>
   <i type="logical" name="LKPOINTS_OPT"> F  </i>
  </separator>
 </parameters>
 <atominfo>
  <atoms>     192 </atoms>
  <types>       3 </types>
  <array name="atoms" >
   <dimension dim="1">ion</dimension>
   <field type="string">element</field>
   <field type="int">atomtype</field>
   <set>
    <rc><c>Zn</c><c>   1</c></rc>
    <rc><c>Zn</c><c>   1</c></rc>
    <rc><c>Zn</c><c>   1</c></rc>
    <rc><c>Zn</c><c>   1</c></rc>
    <rc><c>Zn</c><c>   1</c></rc>
    <rc><c>Zn</c><c>   1</c></rc>
    <rc><c>Zn</c><c>   1</c></rc>
    <rc><c>Zn</c><c>   1</c></rc>
    <rc><c>Zn</c><c>   1</c></rc>
    <rc><c>Zn</c><c>   1</c></rc>
    <rc><c>Zn</c><c>   1</c></rc>
    <rc><c>Zn</c><c>   1</c></rc>
    <rc><c>Zn</c><c>   1</c></rc>
    <rc><c>Zn</c><c>   1</c></rc>
    <rc><c>Zn</c><c>   1</c></rc>
    <rc><c>Zn</c><c>   1</c></rc>
    <rc><c>Zn</c><c>   1</c></rc>
    <rc><c>Zn</c><c>   1</c></rc>
    <rc><c>Zn</c><c>   1</c></rc>
    <rc><c>Zn</c><c>   1</c></rc>
    <rc><c>Zn</c><c>   1</c></rc>
    <rc><c>Zn</c><c>   1</c></rc>
    <rc><c>Zn</c><c>   1</c></rc>
    <rc><c>Zn</c><c>   1</c></rc>
    <rc><c>Zn</c><c>   1</c></rc>
    <rc><c>Zn</c><c>   1</c></rc>
    <rc><c>Zn</c><c>   1</c></rc>
    <rc><c>Zn</c><c>   1</c></rc>
    <rc><c>Zn</c><c>   1</c></rc>
    <rc><c>Zn</c><c>   1</c></rc>
    <rc><c>Zn</c><c>   1</c></rc>
    <rc><c>Zn</c><c>   1</c></rc>
    <rc><c>Zn</c><c>   1</c></rc>
    <rc><c>Zn</c><c>   1</c></rc>
    <rc><c>Zn</c><c>   1</c></rc>
    <rc><c>Zn</c><c>   1</c></rc>
    <rc><c>Zn</c><c>   1</c></rc>
    <rc><c>Zn</c><c>   1</c></rc>
    <rc><c>Zn</c><c>   1</c></rc>
    <rc><c>Zn</c><c>   1</c></rc>
    <rc><c>Zn</c><c>   1</c></rc>
    <rc><c>Zn</c><c>   1</c></rc>
    <rc><c>Zn</c><c>   1</c></rc>
    <rc><c>Zn</c><c>   1</c></rc>
    <rc><c>Zn</c><c>   1</c></rc>
    <rc><c>Zn</c><c>   1</c></rc>
    <rc><c>Zn</c><c>   1</c></rc>
    <rc><c>Zn</c><c>   1</c></rc>
    <rc><c>Zn</c><c>   1</c></rc>
    <rc><c>Zn</c><c>   1</c></rc>
    <rc><c>Zn</c><c>   1</c></rc>
    <rc><c>Zn</c><c>   1</c></rc>
    <rc><c>Zn</c><c>   1</c></rc>
    <rc><c>Zn</c><c>   1</c></rc>
    <rc><c>Zn</c><c>   1</c></rc>
    <rc><c>Zn</c><c>   1</c></rc>
    <rc><c>Zn</c><c>   1</c></rc>
    <rc><c>Zn</c><c>   1</c></rc>
    <rc><c>Zn</c><c>   1</c></rc>
    <rc><c>Zn</c><c>   1</c></rc>
    <rc><c>Zn</c><c>   1</c></rc>
    <rc><c>Zn</c><c>   1</c></rc>
    <rc><c>Zn</c><c>   1</c></rc>
    <rc><c>Zn</c><c>   1</c></rc>
    <rc><c>Zn</c><c>   1</c></rc>
    <rc><c>Zn</c><c>   1</c></rc>
    <rc><c>Zn</c><c>   1</c></rc>
    <rc><c>Zn</c><c>   1</c></rc>
    <rc><c>Zn</c><c>   1</c></rc>
    <rc><c>Zn</c><c>   1</c></rc>
    <rc><c>Zn</c><c>   1</c></rc>
    <rc><c>Zn</c><c>   1</c></rc>
    <rc><c>Zn</c><c>   1</c></rc>
    <rc><c>Zn</c><c>   1</c></rc>
    <rc><c>Zn</c><c>   1</c></rc>
    <rc><c>Zn</c><c>   1</c></rc>
    <rc><c>Zn</c><c>   1</c></rc>
    <rc><c>Zn</c><c>   1</c></rc>
    <rc><c>Zn</c><c>   1</c></rc>
    <rc><c>Zn</c><c>   1</c></rc>
    <rc><c>Zn</c><c>   1</c></rc>
    <rc><c>Zn</c><c>   1</c></rc>
    <rc><c>Zn</c><c>   1</c></rc>
    <rc><c>Zn</c><c>   1</c></rc>
    <rc><c>Zn</c><c>   1</c></rc>
    <rc><c>Zn</c><c>   1</c></rc>
    <rc><c>Zn</c><c>   1</c></rc>
    <rc><c>Zn</c><c>   1</c></rc>
    <rc><c>Zn</c><c>   1</c></rc>
    <rc><c>Zn</c><c>   1</c></rc>
    <rc><c>Zn</c><c>   1</c></rc>
    <rc><c>Zn</c><c>   1</c></rc>
    <rc><c>Zn</c><c>   1</c></rc>
    <rc><c>Zn</c><c>   1</c></rc>
    <rc><c>Zn</c><c>   1</c></rc>
    <rc><c>O </c><c>   2</c></rc>
    <rc><c>O </c><c>   2</c></rc>
    <rc><c>O </c><c>   2</c></rc>
    <rc><c>O </c><c>   2</c></rc>
    <rc><c>O </c><c>   2</c></rc>
    <rc><c>O </c><c>   2</c></rc>
    <rc><c>O </c><c>   2</c></rc>
    <rc><c>O </c><c>   2</c></rc>
    <rc><c>O </c><c>   2</c></rc>
    <rc><c>O </c><c>   2</c></rc>
    <rc><c>O </c><c>   2</c></rc>
    <rc><c>O </c><c>   2</c></rc>
    <rc><c>O </c><c>   2</c></rc>
    <rc><c>O </c><c>   2</c></rc>
    <rc><c>O </c><c>   2</c></rc>
    <rc><c>O </c><c>   2</c></rc>
    <rc><c>O </c><c>   2</c></rc>
    <rc><c>O </c><c>   2</c></rc>
    <rc><c>O </c><c>   2</c></rc>
    <rc><c>O </c><c>   2</c></rc>
    <rc><c>O </c><c>   2</c></rc>
    <rc><c>O </c><c>   2</c></rc>
    <rc><c>O </c><c>   2</c></rc>
    <rc><c>O </c><c>   2</c></rc>
    <rc><c>O </c><c>   2</c></rc>
    <rc><c>O </c><c>   2</c></rc>
    <rc><c>O </c><c>   2</c></rc>
    <rc><c>O </c><c>   2</c></rc>
    <rc><c>O </c><c>   2</c></rc>
    <rc><c>O </c><c>   2</c></rc>
    <rc><c>O </c><c>   2</c></rc>
    <rc><c>O </c><c>   2</c></rc>
    <rc><c>O </c><c>   2</c></rc>
    <rc><c>O </c><c>   2</c></rc>
    <rc><c>O </c><c>   2</c></rc>
    <rc><c>O </c><c>   2</c></rc>
    <rc><c>O </c><c>   2</c></rc>
    <rc><c>O </c><c>   2</c></rc>
    <rc><c>O </c><c>   2</c></rc>
    <rc><c>O </c><c>   2</c></rc>
    <rc><c>O </c><c>   2</c></rc>
    <rc><c>O </c><c>   2</c></rc>
    <rc><c>O </c><c>   2</c></rc>
    <rc><c>O </c><c>   2</c></rc>
    <rc><c>O </c><c>   2</c></rc>
    <rc><c>O </c><c>   2</c></rc>
    <rc><c>O </c><c>   2</c></rc>
    <rc><c>O </c><c>   2</c></rc>
    <rc><c>O </c><c>   2</c></rc>
    <rc><c>O </c><c>   2</c></rc>
    <rc><c>O </c><c>   2</c></rc>
    <rc><c>O </c><c>   2</c></rc>
    <rc><c>O </c><c>   2</c></rc>
    <rc><c>O </c><c>   2</c></rc>
    <rc><c>O </c><c>   2</c></rc>
    <rc><c>O </c><c>   2</c></rc>
    <rc><c>O </c><c>   2</c></rc>
    <rc><c>O </c><c>   2</c></rc>
    <rc><c>O </c><c>   2</c></rc>
    <rc><c>O </c><c>   2</c></rc>
    <rc><c>O </c><c>   2</c></rc>
    <rc><c>O </c><c>   2</c></rc>
    <rc><c>O </c><c>   2</c></rc>
    <rc><c>O </c><c>   2</c></rc>
    <rc><c>O </c><c>   2</c></rc>
    <rc><c>O </c><c>   2</c></rc>
    <rc><c>O </c><c>   2</c></rc>
    <rc><c>O </c><c>   2</c></rc>
    <rc><c>O </c><c>   2</c></rc>
    <rc><c>O </c><c>   2</c></rc>
    <rc><c>O </c><c>   2</c></rc>
    <rc><c>O </c><c>   2</c></rc>
    <rc><c>O </c><c>   2</c></rc>
    <rc><c>O </c><c>   2</c></rc>
    <rc><c>O </c><c>   2</c></rc>
    <rc><c>O </c><c>   2</c></rc>
    <rc><c>O </c><c>   2</c></rc>
    <rc><c>O </c><c>   2</c></rc>
    <rc><c>O </c><c>   2</c></rc>
    <rc><c>O </c><c>   2</c></rc>
    <rc><c>O </c><c>   2</c></rc>
    <rc><c>O </c><c>   2</c></rc>
    <rc><c>O </c><c>   2</c></rc>
    <rc><c>O </c><c>   2</c></rc>
    <rc><c>O </c><c>   2</c></rc>
    <rc><c>O </c><c>   2</c></rc>
    <rc><c>O </c><c>   2</c></rc>
    <rc><c>O </c><c>   2</c></rc>
    <rc><c>O </c><c>   2</c></rc>
    <rc><c>O </c><c>   2</c></rc>
    <rc><c>O </c><c>   2</c></rc>
    <rc><c>O </c><c>   2</c></rc>
    <rc><c>O </c><c>   2</c></rc>
    <rc><c>O </c><c>   2</c></rc>
    <rc><c>O </c><c>   2</c></rc>
    <rc><c>O </c><c>   2</c></rc>
    <rc><c>Nd</c><c>   3</c></rc>
   </set>
  </array>
  <array name="atomtypes" >
   <dimension dim="1">type</dimension>
   <field type="int">atomspertype</field>
   <field type="string">element</field>
   <field>mass</field>
   <field>valence</field>
   <field type="string">pseudopotential</field>
   <set>
    <rc><c>  95</c><c>Zn</c><c>     65.39000000</c><c>     12.00000000</c><c>  PAW_PBE Zn 06Sep2000                  </c></rc>
    <rc><c>  96</c><c>O </c><c>     16.00000000</c><c>      6.00000000</c><c>  PAW_PBE O 08Apr2002                   </c></rc>
    <rc><c>   1</c><c>Nd</c><c>    144.24000000</c><c>     11.00000000</c><c>  PAW_PBE Nd_3 06Sep2000                </c></rc>
   </set>
  </array>
 </atominfo>
 <structure name="initialpos" >
  <crystal>
   <varray name="basis" >
    <v>      12.99749010       0.00000000       0.00000000 </v>
    <v>      -6.49874505      11.25615661       0.00000000 </v>
    <v>       0.00000000       0.00000000      15.63160369 </v>
   </varray>
   <i name="volume">   2286.93150813 </i>
   <varray name="rec_basis" >
    <v>       0.07693793       0.04442014       0.00000000 </v>
    <v>       0.00000000       0.08884027       0.00000000 </v>
    <v>       0.00000000       0.00000000       0.06397296 </v>
   </varray>
  </crystal>
  <varray name="positions" >
   <v>       0.08333333       0.16666667       0.33348073 </v>
   <v>       0.08333333       0.16666667       0.66681406 </v>
   <v>       0.08333333       0.41666667       0.00014739 </v>
   <v>       0.08333333       0.41666667       0.33348073 </v>
   <v>       0.08333333       0.41666667       0.66681406 </v>
   <v>       0.08333333       0.66666667       0.00014739 </v>
   <v>       0.08333333       0.66666667       0.33348073 </v>
   <v>       0.08333333       0.66666667       0.66681406 </v>
   <v>       0.08333333       0.91666667       0.00014739 </v>
   <v>       0.08333333       0.91666667       0.33348073 </v>
   <v>       0.08333333       0.91666667       0.66681406 </v>
   <v>       0.33333333       0.16666667       0.00014739 </v>
   <v>       0.33333333       0.16666667       0.33348073 </v>
   <v>       0.33333333       0.16666667       0.66681406 </v>
   <v>       0.33333333       0.41666667       0.00014739 </v>
   <v>       0.33333333       0.41666667       0.33348073 </v>
   <v>       0.33333333       0.41666667       0.66681406 </v>
   <v>       0.33333333       0.66666667       0.00014739 </v>
   <v>       0.33333333       0.66666667       0.33348073 </v>
   <v>       0.33333333       0.66666667       0.66681406 </v>
   <v>       0.33333333       0.91666667       0.00014739 </v>
   <v>       0.33333333       0.91666667       0.33348073 </v>
   <v>       0.33333333       0.91666667       0.66681406 </v>
   <v>       0.58333333       0.16666667       0.00014739 </v>
   <v>       0.58333333       0.16666667       0.33348073 </v>
   <v>       0.58333333       0.16666667       0.66681406 </v>
   <v>       0.58333333       0.41666667       0.00014739 </v>
   <v>       0.58333333       0.41666667       0.33348073 </v>
   <v>       0.58333333       0.41666667       0.66681406 </v>
   <v>       0.58333333       0.66666667       0.00014739 </v>
   <v>       0.58333333       0.66666667       0.33348073 </v>
   <v>       0.58333333       0.66666667       0.66681406 </v>
   <v>       0.58333333       0.91666667       0.00014739 </v>
   <v>       0.58333333       0.91666667       0.33348073 </v>
   <v>       0.58333333       0.91666667       0.66681406 </v>
   <v>       0.83333333       0.16666667       0.00014739 </v>
   <v>       0.83333333       0.16666667       0.33348073 </v>
   <v>       0.83333333       0.16666667       0.66681406 </v>
   <v>       0.83333333       0.41666667       0.00014739 </v>
   <v>       0.83333333       0.41666667       0.33348073 </v>
   <v>       0.83333333       0.41666667       0.66681406 </v>
   <v>       0.83333333       0.66666667       0.00014739 </v>
   <v>       0.83333333       0.66666667       0.33348073 </v>
   <v>       0.83333333       0.66666667       0.66681406 </v>
   <v>       0.83333333       0.91666667       0.00014739 </v>
   <v>       0.83333333       0.91666667       0.33348073 </v>
   <v>       0.83333333       0.91666667       0.66681406 </v>
   <v>       0.16666667       0.08333333       0.16681406 </v>
   <v>       0.16666667       0.08333333       0.50014739 </v>
   <v>       0.16666667       0.08333333       0.83348073 </v>
   <v>       0.16666667       0.33333333       0.16681406 </v>
   <v>       0.16666667       0.33333333       0.50014739 </v>
   <v>       0.16666667       0.33333333       0.83348073 </v>
   <v>       0.16666667       0.58333333       0.16681406 </v>
   <v>       0.16666667       0.58333333       0.50014739 </v>
   <v>       0.16666667       0.58333333       0.83348073 </v>
   <v>       0.16666667       0.83333333       0.16681406 </v>
   <v>       0.16666667       0.83333333       0.50014739 </v>
   <v>       0.16666667       0.83333333       0.83348073 </v>
   <v>       0.41666667       0.08333333       0.16681406 </v>
   <v>       0.41666667       0.08333333       0.50014739 </v>
   <v>       0.41666667       0.08333333       0.83348073 </v>
   <v>       0.41666667       0.33333333       0.16681406 </v>
   <v>       0.41666667       0.33333333       0.50014739 </v>
   <v>       0.41666667       0.33333333       0.83348073 </v>
   <v>       0.41666667       0.58333333       0.16681406 </v>
   <v>       0.41666667       0.58333333       0.50014739 </v>
   <v>       0.41666667       0.58333333       0.83348073 </v>
   <v>       0.41666667       0.83333333       0.16681406 </v>
   <v>       0.41666667       0.83333333       0.50014739 </v>
   <v>       0.41666667       0.83333333       0.83348073 </v>
   <v>       0.66666667       0.08333333       0.16681406 </v>
   <v>       0.66666667       0.08333333       0.50014739 </v>
   <v>       0.66666667       0.08333333       0.83348073 </v>
   <v>       0.66666667       0.33333333       0.16681406 </v>
   <v>       0.66666667       0.33333333       0.50014739 </v>
   <v>       0.66666667       0.33333333       0.83348073 </v>
   <v>       0.66666667       0.58333333       0.16681406 </v>
   <v>       0.66666667       0.58333333       0.50014739 </v>
   <v>       0.66666667       0.58333333       0.83348073 </v>
   <v>       0.66666667       0.83333333       0.16681406 </v>
   <v>       0.66666667       0.83333333       0.50014739 </v>
   <v>       0.66666667       0.83333333       0.83348073 </v>
   <v>       0.91666667       0.08333333       0.16681406 </v>
   <v>       0.91666667       0.08333333       0.50014739 </v>
   <v>       0.91666667       0.08333333       0.83348073 </v>
   <v>       0.91666667       0.33333333       0.16681406 </v>
   <v>       0.91666667       0.33333333       0.50014739 </v>
   <v>       0.91666667       0.33333333       0.83348073 </v>
   <v>       0.91666667       0.58333333       0.16681406 </v>
   <v>       0.91666667       0.58333333       0.50014739 </v>
   <v>       0.91666667       0.58333333       0.83348073 </v>
   <v>       0.91666667       0.83333333       0.16681406 </v>
   <v>       0.91666667       0.83333333       0.50014739 </v>
   <v>       0.91666667       0.83333333       0.83348073 </v>
   <v>       0.08682944       0.16193586       0.13277380 </v>
   <v>       0.08333333       0.16666667       0.46048594 </v>
   <v>       0.08333333       0.16666667       0.79381927 </v>
   <v>       0.08333333       0.41666667       0.12715261 </v>
   <v>       0.08333333       0.41666667       0.46048594 </v>
   <v>       0.08333333       0.41666667       0.79381927 </v>
   <v>       0.08333333       0.66666667       0.12715261 </v>
   <v>       0.08333333       0.66666667       0.46048594 </v>
   <v>       0.08333333       0.66666667       0.79381927 </v>
   <v>       0.08333333       0.91666667       0.12715261 </v>
   <v>       0.08333333       0.91666667       0.46048594 </v>
   <v>       0.08333333       0.91666667       0.79381927 </v>
   <v>       0.33333333       0.16666667       0.12715261 </v>
   <v>       0.33333333       0.16666667       0.46048594 </v>
   <v>       0.33333333       0.16666667       0.79381927 </v>
   <v>       0.33333333       0.41666667       0.12715261 </v>
   <v>       0.33333333       0.41666667       0.46048594 </v>
   <v>       0.33333333       0.41666667       0.79381927 </v>
   <v>       0.33333333       0.66666667       0.12715261 </v>
   <v>       0.33333333       0.66666667       0.46048594 </v>
   <v>       0.33333333       0.66666667       0.79381927 </v>
   <v>       0.33333333       0.91666667       0.12715261 </v>
   <v>       0.33333333       0.91666667       0.46048594 </v>
   <v>       0.33333333       0.91666667       0.79381927 </v>
   <v>       0.58333333       0.16666667       0.12715261 </v>
   <v>       0.58333333       0.16666667       0.46048594 </v>
   <v>       0.58333333       0.16666667       0.79381927 </v>
   <v>       0.58333333       0.41666667       0.12715261 </v>
   <v>       0.58333333       0.41666667       0.46048594 </v>
   <v>       0.58333333       0.41666667       0.79381927 </v>
   <v>       0.58333333       0.66666667       0.12715261 </v>
   <v>       0.58333333       0.66666667       0.46048594 </v>
   <v>       0.58333333       0.66666667       0.79381927 </v>
   <v>       0.58333333       0.91666667       0.12715261 </v>
   <v>       0.58333333       0.91666667       0.46048594 </v>
   <v>       0.58333333       0.91666667       0.79381927 </v>
   <v>       0.83333333       0.16666667       0.12715261 </v>
   <v>       0.83333333       0.16666667       0.46048594 </v>
   <v>       0.83333333       0.16666667       0.79381927 </v>
   <v>       0.83333333       0.41666667       0.12715261 </v>
   <v>       0.83333333       0.41666667       0.46048594 </v>
   <v>       0.83333333       0.41666667       0.79381927 </v>
   <v>       0.83333333       0.66666667       0.12715261 </v>
   <v>       0.83333333       0.66666667       0.46048594 </v>
   <v>       0.83333333       0.66666667       0.79381927 </v>
   <v>       0.83333333       0.91666667       0.12715261 </v>
   <v>       0.83333333       0.91666667       0.46048594 </v>
   <v>       0.83333333       0.91666667       0.79381927 </v>
   <v>       0.16666667       0.08333333       0.29381927 </v>
   <v>       0.16666667       0.08333333       0.62715261 </v>
   <v>       0.16585092       0.08019168       0.95207485 </v>
   <v>       0.16666667       0.33333333       0.29381927 </v>
   <v>       0.16666667       0.33333333       0.62715261 </v>
   <v>       0.17830656       0.33059776       0.96052069 </v>
   <v>       0.16666667       0.58333333       0.29381927 </v>
   <v>       0.16666667       0.58333333       0.62715261 </v>
   <v>       0.16666667       0.58333333       0.96048594 </v>
   <v>       0.16666667       0.83333333       0.29381927 </v>
   <v>       0.16666667       0.83333333       0.62715261 </v>
   <v>       0.16666667       0.83333333       0.96048594 </v>
   <v>       0.41666667       0.08333333       0.29381927 </v>
   <v>       0.41666667       0.08333333       0.62715261 </v>
   <v>       0.41666667       0.08333333       0.96048594 </v>
   <v>       0.41666667       0.33333333       0.29381927 </v>
   <v>       0.41666667       0.33333333       0.62715261 </v>
   <v>       0.41666667       0.33333333       0.96048594 </v>
   <v>       0.41666667       0.58333333       0.29381927 </v>
   <v>       0.41666667       0.58333333       0.62715261 </v>
   <v>       0.41666667       0.58333333       0.96048594 </v>
   <v>       0.41666667       0.83333333       0.29381927 </v>
   <v>       0.41666667       0.83333333       0.62715261 </v>
   <v>       0.41666667       0.83333333       0.96048594 </v>
   <v>       0.66666667       0.08333333       0.29381927 </v>
   <v>       0.66666667       0.08333333       0.62715261 </v>
   <v>       0.66666667       0.08333333       0.96048594 </v>
   <v>       0.66666667       0.33333333       0.29381927 </v>
   <v>       0.66666667       0.33333333       0.62715261 </v>
   <v>       0.66666667       0.33333333       0.96048594 </v>
   <v>       0.66666667       0.58333333       0.29381927 </v>
   <v>       0.66666667       0.58333333       0.62715261 </v>
   <v>       0.66666667       0.58333333       0.96048594 </v>
   <v>       0.66666667       0.83333333       0.29381927 </v>
   <v>       0.66666667       0.83333333       0.62715261 </v>
   <v>       0.66666667       0.83333333       0.96048594 </v>
   <v>       0.91666667       0.08333333       0.29381927 </v>
   <v>       0.91666667       0.08333333       0.62715261 </v>
   <v>       0.91094538       0.07644431       0.96376084 </v>
   <v>       0.91666667       0.33333333       0.29381927 </v>
   <v>       0.91666667       0.33333333       0.62715261 </v>
   <v>       0.91666667       0.33333333       0.96048594 </v>
   <v>       0.91666667       0.58333333       0.29381927 </v>
   <v>       0.91666667       0.58333333       0.62715261 </v>
   <v>       0.91666667       0.58333333       0.96048594 </v>
   <v>       0.91666667       0.83333333       0.29381927 </v>
   <v>       0.91666667       0.83333333       0.62715261 </v>
   <v>       0.91666667       0.83333333       0.96048594 </v>
   <v>       0.08333333       0.16666667       0.00014739 </v>
  </varray>
 </structure>
 <calculation>
  <scstep>
   <time name="total">   17.41   17.83</time>
   <energy>
    <i name="alphaZ">  11324.91224854 </i>
    <i name="ewald">-141961.36705359 </i>
    <i name="hartreedc"> -61421.10444428 </i>
    <i name="XCdc">   8143.17798413 </i>
    <i name="pawpsdc"> 172212.50050424 </i>
    <i name="pawaedc">-247478.80664842 </i>
    <i name="eentropy">     -0.08460197 </i>
    <i name="bandstr">  13130.26166247 </i>
    <i name="atom"> 207921.66256209 </i>
    <i name="e_fr_energy"> -38128.84778679 </i>
    <i name="e_wo_entrp"> -38128.76318482 </i>
    <i name="e_0_energy"> -38128.80548581 </i>
   </energy>
  </scstep>
  <scstep>
   <time name="total">   22.32   22.45</time>
   <energy>
    <i name="e_fr_energy"> -58912.53057604 </i>
    <i name="e_wo_entrp"> -58912.44741560 </i>
    <i name="e_0_energy"> -58912.48899582 </i>
   </energy>
  </scstep>
  <scstep>
   <time name="total">   25.27   25.39</time>
   <energy>
    <i name="e_fr_energy"> -65111.43274186 </i>
    <i name="e_wo_entrp"> -65111.41589308 </i>
    <i name="e_0_energy"> -65111.42431747 </i>
   </energy>
  </scstep>
  <scstep>
   <time name="total">   24.67   24.77</time>
   <energy>
    <i name="e_fr_energy"> -66074.95374994 </i>
    <i name="e_wo_entrp"> -66074.95133454 </i>
    <i name="e_0_energy"> -66074.95254224 </i>
   </energy>
  </scstep>
  <scstep>
   <time name="total"> 1775.25 1787.21</time>
   <energy>
    <i name="e_fr_energy">  -1304.08472771 </i>
    <i name="e_wo_entrp">  -1304.08388444 </i>
    <i name="e_0_energy">  -1304.08430607 </i>
   </energy>
  </scstep>
  <scstep>
   <time name="total"> 1752.12 1765.20</time>
   <energy>
    <i name="e_fr_energy">   -679.61036626 </i>
    <i name="e_wo_entrp">   -679.60952299 </i>
    <i name="e_0_energy">   -679.60994463 </i>
   </energy>
  </scstep>
  <scstep>
   <time name="total"> 1750.64 1761.75</time>
   <energy>
    <i name="e_fr_energy">  -1138.75279098 </i>
    <i name="e_wo_entrp">  -1138.74945887 </i>
    <i name="e_0_energy">  -1138.75112493 </i>
   </energy>
  </scstep>
  <scstep>
   <time name="total"> 1752.82 1763.78</time>
   <energy>
    <i name="e_fr_energy">  -1120.76046577 </i>
    <i name="e_wo_entrp">  -1120.74984687 </i>
    <i name="e_0_energy">  -1120.75515632 </i>
   </energy>
  </scstep>
  <scstep>
   <time name="total"> 1751.43 1763.33</time>
   <energy>
    <i name="e_fr_energy">  -1184.30629240 </i>
    <i name="e_wo_entrp">  -1184.28487923 </i>
    <i name="e_0_energy">  -1184.29558581 </i>
   </energy>
  </scstep>
  <scstep>
   <time name="total"> 1755.26 1767.20</time>
   <energy>
    <i name="e_fr_energy">  -1198.27890831 </i>
    <i name="e_wo_entrp">  -1198.24634266 </i>
    <i name="e_0_energy">  -1198.26262548 </i>
   </energy>
  </scstep>
  <scstep>
   <time name="total"> 1753.82 1764.77</time>
   <energy>
    <i name="e_fr_energy">  -1202.70388140 </i>
    <i name="e_wo_entrp">  -1202.66220798 </i>
    <i name="e_0_energy">  -1202.68304469 </i>
   </energy>
  </scstep>
  <scstep>
   <time name="total"> 1751.55 1763.33</time>
   <energy>
    <i name="e_fr_energy">  -1205.98863484 </i>
    <i name="e_wo_entrp">  -1205.94065359 </i>
    <i name="e_0_energy">  -1205.96464422 </i>
   </energy>
  </scstep>
  <scstep>
   <time name="total"> 1751.81 1765.54</time>
   <energy>
    <i name="e_fr_energy">  -1206.24414742 </i>
    <i name="e_wo_entrp">  -1206.19183674 </i>
    <i name="e_0_energy">  -1206.21799208 </i>
   </energy>
  </scstep>
  <scstep>
   <time name="total"> 1753.10 1764.72</time>
   <energy>
    <i name="e_fr_energy">  -1206.68226614 </i>
    <i name="e_wo_entrp">  -1206.62707117 </i>
    <i name="e_0_energy">  -1206.65466866 </i>
   </energy>
  </scstep>
  <scstep>
   <time name="total"> 1750.43 1763.95</time>
   <energy>
    <i name="e_fr_energy">  -1206.79560875 </i>
    <i name="e_wo_entrp">  -1206.73873243 </i>
    <i name="e_0_energy">  -1206.76717059 </i>
   </energy>
  </scstep>
  <scstep>
   <time name="total"> 1752.95 1769.06</time>
   <energy>
    <i name="e_fr_energy">  -1206.83036234 </i>
    <i name="e_wo_entrp">  -1206.77260456 </i>
    <i name="e_0_energy">  -1206.80148345 </i>
   </energy>
  </scstep>
  <scstep>
   <time name="total"> 1753.67 1767.63</time>
   <energy>
    <i name="e_fr_energy">  -1206.86820442 </i>
    <i name="e_wo_entrp">  -1206.80995668 </i>
    <i name="e_0_energy">  -1206.83908055 </i>
   </energy>
  </scstep>
  <scstep>
   <time name="total"> 1752.64 1767.35</time>
   <energy>
    <i name="e_fr_energy">  -1206.87739249 </i>
    <i name="e_wo_entrp">  -1206.81885629 </i>
    <i name="e_0_energy">  -1206.84812439 </i>
   </energy>
  </scstep>
  <scstep>
   <time name="total"> 1750.43 1767.59</time>
   <energy>
    <i name="e_fr_energy">  -1206.88460072 </i>
    <i name="e_wo_entrp">  -1206.82592782 </i>
    <i name="e_0_energy">  -1206.85526427 </i>
   </energy>
  </scstep>
  <scstep>
   <time name="total"> 1753.47 1765.91</time>
   <energy>
    <i name="e_fr_energy">  -1206.88839164 </i>
    <i name="e_wo_entrp">  -1206.82967708 </i>
    <i name="e_0_energy">  -1206.85903436 </i>
   </energy>
  </scstep>
  <scstep>
   <time name="total"> 1753.33 1767.79</time>
   <energy>
    <i name="e_fr_energy">  -1206.89031783 </i>
    <i name="e_wo_entrp">  -1206.83159300 </i>
    <i name="e_0_energy">  -1206.86095541 </i>
   </energy>
  </scstep>
  <scstep>
   <time name="total"> 1751.51 1768.97</time>
   <energy>
    <i name="e_fr_energy">  -1206.89159790 </i>
    <i name="e_wo_entrp">  -1206.83286382 </i>
    <i name="e_0_energy">  -1206.86223086 </i>
   </energy>
  </scstep>
  <scstep>
   <time name="total"> 1752.80 1770.71</time>
   <energy>
    <i name="e_fr_energy">  -1206.89232343 </i>
    <i name="e_wo_entrp">  -1206.83358249 </i>
    <i name="e_0_energy">  -1206.86295296 </i>
   </energy>
  </scstep>
  <scstep>
   <time name="total"> 1751.26 1766.07</time>
   <energy>
    <i name="e_fr_energy">  -1206.89281283 </i>
    <i name="e_wo_entrp">  -1206.83407210 </i>
    <i name="e_0_energy">  -1206.86344247 </i>
   </energy>
  </scstep>
  <scstep>
   <time name="total"> 1751.06 1765.61</time>
   <energy>
    <i name="e_fr_energy">  -1206.89313847 </i>
    <i name="e_wo_entrp">  -1206.83440125 </i>
    <i name="e_0_energy">  -1206.86376986 </i>
   </energy>
  </scstep>
  <scstep>
   <time name="total"> 1752.75 1769.44</time>
   <energy>
    <i name="e_fr_energy">  -1206.89336245 </i>
    <i name="e_wo_entrp">  -1206.83462668 </i>
    <i name="e_0_energy">  -1206.86399456 </i>
   </energy>
  </scstep>
  <scstep>
   <time name="total"> 1751.93 1770.79</time>
   <energy>
    <i name="e_fr_energy">  -1206.89352331 </i>
    <i name="e_wo_entrp">  -1206.83478593 </i>
    <i name="e_0_energy">  -1206.86415462 </i>
   </energy>
  </scstep>
  <scstep>
   <time name="total"> 1750.53 1770.60</time>
   <energy>
    <i name="e_fr_energy">  -1206.89364176 </i>
    <i name="e_wo_entrp">  -1206.83490183 </i>
    <i name="e_0_energy">  -1206.86427180 </i>
   </energy>
  </scstep>
  <scstep>
   <time name="total"> 1753.82 1774.79</time>
   <energy>
    <i name="e_fr_energy">  -1206.89373251 </i>
    <i name="e_wo_entrp">  -1206.83499042 </i>
    <i name="e_0_energy">  -1206.86436147 </i>
   </energy>
  </scstep>
  <scstep>
   <time name="total"> 1755.13 1771.35</time>
   <energy>
    <i name="e_fr_energy">  -1206.89380362 </i>
    <i name="e_wo_entrp">  -1206.83505942 </i>
    <i name="e_0_energy">  -1206.86443152 </i>
   </energy>
  </scstep>
  <scstep>
   <time name="total"> 1750.82 1763.63</time>
   <energy>
    <i name="e_fr_energy">  -1206.89386054 </i>
    <i name="e_wo_entrp">  -1206.83511374 </i>
    <i name="e_0_energy">  -1206.86448714 </i>
   </energy>
  </scstep>
  <scstep>
   <time name="total"> 1752.19 1767.88</time>
   <energy>
    <i name="e_fr_energy">  -1206.89390732 </i>
    <i name="e_wo_entrp">  -1206.83515759 </i>
    <i name="e_0_energy">  -1206.86453245 </i>
   </energy>
  </scstep>
  <scstep>
   <time name="total"> 1752.16 1766.58</time>
   <energy>
    <i name="e_fr_energy">  -1206.89394667 </i>
    <i name="e_wo_entrp">  -1206.83519410 </i>
    <i name="e_0_energy">  -1206.86457038 </i>
   </energy>
  </scstep>
  <scstep>
   <time name="total"> 1752.89 1769.52</time>
   <energy>
    <i name="e_fr_energy">  -1206.89398020 </i>
    <i name="e_wo_entrp">  -1206.83522508 </i>
    <i name="e_0_energy">  -1206.86460264 </i>
   </energy>
  </scstep>
  <scstep>
   <time name="total"> 1752.50 1767.86</time>
   <energy>
    <i name="e_fr_energy">  -1206.89400898 </i>
    <i name="e_wo_entrp">  -1206.83525154 </i>
    <i name="e_0_energy">  -1206.86463026 </i>
   </energy>
  </scstep>
  <scstep>
   <time name="total"> 1752.93 1766.02</time>
   <energy>
    <i name="e_fr_energy">  -1206.89403388 </i>
    <i name="e_wo_entrp">  -1206.83527432 </i>
    <i name="e_0_energy">  -1206.86465410 </i>
   </energy>
  </scstep>
  <scstep>
   <time name="total"> 1753.81 1768.37</time>
   <energy>
    <i name="e_fr_energy">  -1206.89405559 </i>
    <i name="e_wo_entrp">  -1206.83529409 </i>
    <i name="e_0_energy">  -1206.86467484 </i>
   </energy>
  </scstep>
  <scstep>
   <time name="total"> 1752.23 1764.57</time>
   <energy>
    <i name="e_fr_energy">  -1206.89407459 </i>
    <i name="e_wo_entrp">  -1206.83531136 </i>
    <i name="e_0_energy">  -1206.86469298 </i>
   </energy>
  </scstep>
  <scstep>
   <time name="total"> 1751.64 1764.41</time>
   <energy>
    <i name="e_fr_energy">  -1206.89409129 </i>
    <i name="e_wo_entrp">  -1206.83532653 </i>
    <i name="e_0_energy">  -1206.86470891 </i>
   </energy>
  </scstep>
  <scstep>
   <time name="total"> 1754.40 1767.65</time>
   <energy>
    <i name="e_fr_energy">  -1206.89410604 </i>
    <i name="e_wo_entrp">  -1206.83533990 </i>
    <i name="e_0_energy">  -1206.86472297 </i>
   </energy>
  </scstep>
  <scstep>
   <time name="total"> 1753.55 1765.50</time>
   <energy>
    <i name="e_fr_energy">  -1206.89411913 </i>
    <i name="e_wo_entrp">  -1206.83535179 </i>
    <i name="e_0_energy">  -1206.86473546 </i>
   </energy>
  </scstep>
  <scstep>
   <time name="total"> 1753.26 1766.38</time>
   <energy>
    <i name="e_fr_energy">  -1206.89413080 </i>
    <i name="e_wo_entrp">  -1206.83536238 </i>
    <i name="e_0_energy">  -1206.86474659 </i>
   </energy>
  </scstep>
  <scstep>
   <time name="total"> 1752.96 1764.83</time>
   <energy>
    <i name="e_fr_energy">  -1206.89414110 </i>
    <i name="e_wo_entrp">  -1206.83537175 </i>
    <i name="e_0_energy">  -1206.86475643 </i>
   </energy>
  </scstep>
  <scstep>
   <time name="total"> 1751.85 1766.27</time>
   <energy>
    <i name="e_fr_energy">  -1206.89414887 </i>
    <i name="e_wo_entrp">  -1206.83537866 </i>
    <i name="e_0_energy">  -1206.86476377 </i>
   </energy>
  </scstep>
  <scstep>
   <time name="total"> 1753.27 1765.17</time>
   <energy>
    <i name="e_fr_energy">  -1206.89414198 </i>
    <i name="e_wo_entrp">  -1206.83537106 </i>
    <i name="e_0_energy">  -1206.86475652 </i>
   </energy>
  </scstep>
  <scstep>
   <time name="total"> 1750.86 1764.62</time>
   <energy>
    <i name="e_fr_energy">  -1206.89402882 </i>
    <i name="e_wo_entrp">  -1206.83525711 </i>
    <i name="e_0_energy">  -1206.86464297 </i>
   </energy>
  </scstep>
  <scstep>
   <time name="total"> 1754.29 1768.67</time>
   <energy>
    <i name="e_fr_energy">  -1206.89331966 </i>
    <i name="e_wo_entrp">  -1206.83454776 </i>
    <i name="e_0_energy">  -1206.86393371 </i>
   </energy>
  </scstep>
  <scstep>
   <time name="total"> 1753.04 1765.61</time>
   <energy>
    <i name="e_fr_energy">  -1206.89012152 </i>
    <i name="e_wo_entrp">  -1206.83134838 </i>
    <i name="e_0_energy">  -1206.86073495 </i>
   </energy>
  </scstep>
  <scstep>
   <time name="total"> 1755.02 1766.26</time>
   <energy>
    <i name="e_fr_energy">  -1206.87982805 </i>
    <i name="e_wo_entrp">  -1206.82105777 </i>
    <i name="e_0_energy">  -1206.85044291 </i>
   </energy>
  </scstep>
  <scstep>
   <time name="total"> 1752.25 1766.02</time>
   <energy>
    <i name="e_fr_energy">  -1206.85591621 </i>
    <i name="e_wo_entrp">  -1206.79714420 </i>
    <i name="e_0_energy">  -1206.82653020 </i>
   </energy>
  </scstep>
  <scstep>
   <time name="total"> 1752.21 1765.13</time>
   <energy>
    <i name="e_fr_energy">  -1206.81435577 </i>
    <i name="e_wo_entrp">  -1206.75559646 </i>
    <i name="e_0_energy">  -1206.78497611 </i>
   </energy>
  </scstep>
  <scstep>
   <time name="total"> 1754.27 1766.12</time>
   <energy>
    <i name="e_fr_energy">  -1206.74345236 </i>
    <i name="e_wo_entrp">  -1206.68468728 </i>
    <i name="e_0_energy">  -1206.71406982 </i>
   </energy>
  </scstep>
  <scstep>
   <time name="total"> 1753.77 1766.75</time>
   <energy>
    <i name="e_fr_energy">  -1206.59414459 </i>
    <i name="e_wo_entrp">  -1206.53539312 </i>
    <i name="e_0_energy">  -1206.56476885 </i>
   </energy>
  </scstep>
  <scstep>
   <time name="total"> 1753.84 1766.48</time>
   <energy>
    <i name="e_fr_energy">  -1206.36961241 </i>
    <i name="e_wo_entrp">  -1206.31084456 </i>
    <i name="e_0_energy">  -1206.34022849 </i>
   </energy>
  </scstep>
  <scstep>
   <time name="total"> 1752.80 1766.64</time>
   <energy>
    <i name="e_fr_energy">  -1206.23238695 </i>
    <i name="e_wo_entrp">  -1206.17364565 </i>
    <i name="e_0_energy">  -1206.20301630 </i>
   </energy>
  </scstep>
  <scstep>
   <time name="total"> 1754.44 1768.25</time>
   <energy>
    <i name="e_fr_energy">  -1206.40417386 </i>
    <i name="e_wo_entrp">  -1206.34542326 </i>
    <i name="e_0_energy">  -1206.37479856 </i>
   </energy>
  </scstep>
  <scstep>
   <time name="total"> 1752.33 1765.75</time>
   <energy>
    <i name="e_fr_energy">  -1206.58008746 </i>
    <i name="e_wo_entrp">  -1206.52138099 </i>
    <i name="e_0_energy">  -1206.55073423 </i>
   </energy>
  </scstep>
  <scstep>
   <time name="total"> 1752.21 1766.91</time>
   <energy>
    <i name="e_fr_energy">  -1206.40457249 </i>
    <i name="e_wo_entrp">  -1206.34578593 </i>
    <i name="e_0_energy">  -1206.37517921 </i>
   </energy>
  </scstep>
  <scstep>
   <time name="total"> 1752.02 1770.18</time>
   <energy>
    <i name="e_fr_energy">  -1206.07611148 </i>
    <i name="e_wo_entrp">  -1206.01739099 </i>
    <i name="e_0_energy">  -1206.04675124 </i>
   </energy>
  </scstep>
  <scstep>
   <time name="total"> 1750.58 1771.27</time>
   <energy>
    <i name="e_fr_energy">  -1205.94364363 </i>
    <i name="e_wo_entrp">  -1205.88480417 </i>
    <i name="e_0_energy">  -1205.91422390 </i>
   </energy>
  </scstep>
  <scstep>
   <time name="total"> 1752.17 1767.17</time>
   <energy>
    <i name="e_fr_energy">  -1206.23415823 </i>
    <i name="e_wo_entrp">  -1206.17540918 </i>
    <i name="e_0_energy">  -1206.20478370 </i>
   </energy>
  </scstep>
  <scstep>
   <time name="total"> 1752.58 1767.38</time>
   <energy>
    <i name="e_fr_energy">  -1206.60630213 </i>
    <i name="e_wo_entrp">  -1206.54747849 </i>
    <i name="e_0_energy">  -1206.57689031 </i>
   </energy>
  </scstep>
  <scstep>
   <time name="total"> 1753.74 1773.34</time>
   <energy>
    <i name="e_fr_energy">  -1206.81072586 </i>
    <i name="e_wo_entrp">  -1206.75190251 </i>
    <i name="e_0_energy">  -1206.78131418 </i>
   </energy>
  </scstep>
  <scstep>
   <time name="total"> 1750.97 1764.77</time>
   <energy>
    <i name="e_fr_energy">  -1206.88745828 </i>
    <i name="e_wo_entrp">  -1206.82863973 </i>
    <i name="e_0_energy">  -1206.85804901 </i>
   </energy>
  </scstep>
  <scstep>
   <time name="total"> 1752.77 1764.99</time>
   <energy>
    <i name="e_fr_energy">  -1206.88789027 </i>
    <i name="e_wo_entrp">  -1206.82907029 </i>
    <i name="e_0_energy">  -1206.85848028 </i>
   </energy>
  </scstep>
  <scstep>
   <time name="total"> 1754.53 1766.94</time>
   <energy>
    <i name="e_fr_energy">  -1206.88532892 </i>
    <i name="e_wo_entrp">  -1206.82651975 </i>
    <i name="e_0_energy">  -1206.85592434 </i>
   </energy>
  </scstep>
  <scstep>
   <time name="total"> 1752.29 1765.32</time>
   <energy>
    <i name="e_fr_energy">  -1206.88966678 </i>
    <i name="e_wo_entrp">  -1206.83086497 </i>
    <i name="e_0_energy">  -1206.86026588 </i>
   </energy>
  </scstep>
  <scstep>
   <time name="total"> 1753.59 1767.57</time>
   <energy>
    <i name="e_fr_energy">  -1206.89195097 </i>
    <i name="e_wo_entrp">  -1206.83315937 </i>
    <i name="e_0_energy">  -1206.86255517 </i>
   </energy>
  </scstep>
  <scstep>
   <time name="total"> 1752.33 1765.80</time>
   <energy>
    <i name="e_fr_energy">  -1206.89379341 </i>
    <i name="e_wo_entrp">  -1206.83500300 </i>
    <i name="e_0_energy">  -1206.86439820 </i>
   </energy>
  </scstep>
  <scstep>
   <time name="total"> 1753.94 1765.92</time>
   <energy>
    <i name="e_fr_energy">  -1206.89414585 </i>
    <i name="e_wo_entrp">  -1206.83535920 </i>
    <i name="e_0_energy">  -1206.86475252 </i>
   </energy>
  </scstep>
  <scstep>
   <time name="total"> 1752.09 1766.62</time>
   <energy>
    <i name="e_fr_energy">  -1206.89420194 </i>
    <i name="e_wo_entrp">  -1206.83541819 </i>
    <i name="e_0_energy">  -1206.86481006 </i>
   </energy>
  </scstep>
  <scstep>
   <time name="total"> 1754.27 1768.08</time>
   <energy>
    <i name="e_fr_energy">  -1206.89420256 </i>
    <i name="e_wo_entrp">  -1206.83541961 </i>
    <i name="e_0_energy">  -1206.86481109 </i>
   </energy>
  </scstep>
  <scstep>
   <time name="total"> 1754.36 1769.18</time>
   <energy>
    <i name="e_fr_energy">  -1206.89420832 </i>
    <i name="e_wo_entrp">  -1206.83542667 </i>
    <i name="e_0_energy">  -1206.86481750 </i>
   </energy>
  </scstep>
  <scstep>
   <time name="total"> 3496.12 3522.55</time>
   <energy>
    <i name="alphaZ">  11324.91224854 </i>
    <i name="ewald">-141961.36705359 </i>
    <i name="hartreedc"> -63394.43232905 </i>
    <i name="XCdc">   5427.61566074 </i>
    <i name="pawpsdc"> 210769.01115967 </i>
    <i name="pawaedc">-226233.92439025 </i>
    <i name="eentropy">     -0.05878087 </i>
    <i name="bandstr"> -12365.43139445 </i>
    <i name="atom"> 207921.66256209 </i>
    <i name="e_fr_energy">  -1206.89421683 </i>
    <i name="e_wo_entrp">  -1206.83543596 </i>
    <i name="e_0_energy">  -1206.86482639 </i>
   </energy>
  </scstep>
  <structure>
   <crystal>
    <varray name="basis" >
     <v>      12.99749010       0.00000000       0.00000000 </v>
     <v>      -6.49874505      11.25615661       0.00000000 </v>
     <v>       0.00000000       0.00000000      15.63160369 </v>
    </varray>
    <i name="volume">   2286.93150813 </i>
    <varray name="rec_basis" >
     <v>       0.07693793       0.04442014       0.00000000 </v>
     <v>       0.00000000       0.08884027       0.00000000 </v>
     <v>       0.00000000       0.00000000       0.06397296 </v>
    </varray>
   </crystal>
   <varray name="positions" >
    <v>       0.08333333       0.16666667       0.33348073 </v>
    <v>       0.08333333       0.16666667       0.66681406 </v>
    <v>       0.08333333       0.41666667       0.00014739 </v>
    <v>       0.08333333       0.41666667       0.33348073 </v>
    <v>       0.08333333       0.41666667       0.66681406 </v>
    <v>       0.08333333       0.66666667       0.00014739 </v>
    <v>       0.08333333       0.66666667       0.33348073 </v>
    <v>       0.08333333       0.66666667       0.66681406 </v>
    <v>       0.08333333       0.91666667       0.00014739 </v>
    <v>       0.08333333       0.91666667       0.33348073 </v>
    <v>       0.08333333       0.91666667       0.66681406 </v>
    <v>       0.33333333       0.16666667       0.00014739 </v>
    <v>       0.33333333       0.16666667       0.33348073 </v>
    <v>       0.33333333       0.16666667       0.66681406 </v>
    <v>       0.33333333       0.41666667       0.00014739 </v>
    <v>       0.33333333       0.41666667       0.33348073 </v>
    <v>       0.33333333       0.41666667       0.66681406 </v>
    <v>       0.33333333       0.66666667       0.00014739 </v>
    <v>       0.33333333       0.66666667       0.33348073 </v>
    <v>       0.33333333       0.66666667       0.66681406 </v>
    <v>       0.33333333       0.91666667       0.00014739 </v>
    <v>       0.33333333       0.91666667       0.33348073 </v>
    <v>       0.33333333       0.91666667       0.66681406 </v>
    <v>       0.58333333       0.16666667       0.00014739 </v>
    <v>       0.58333333       0.16666667       0.33348073 </v>
    <v>       0.58333333       0.16666667       0.66681406 </v>
    <v>       0.58333333       0.41666667       0.00014739 </v>
    <v>       0.58333333       0.41666667       0.33348073 </v>
    <v>       0.58333333       0.41666667       0.66681406 </v>
    <v>       0.58333333       0.66666667       0.00014739 </v>
    <v>       0.58333333       0.66666667       0.33348073 </v>
    <v>       0.58333333       0.66666667       0.66681406 </v>
    <v>       0.58333333       0.91666667       0.00014739 </v>
    <v>       0.58333333       0.91666667       0.33348073 </v>
[...]
    <v>       0.33326486       0.66650303       0.12715340 </v>
    <v>       0.33331540       0.66665506       0.46045367 </v>
    <v>       0.33335552       0.66669309       0.79397887 </v>
    <v>       0.33319799       0.91679686       0.12713219 </v>
    <v>       0.33333439       0.91667652       0.46044769 </v>
    <v>       0.33327562       0.91673751       0.79401573 </v>
    <v>       0.58333240       0.16662983       0.12711787 </v>
    <v>       0.58330385       0.16661977       0.46045549 </v>
    <v>       0.58329435       0.16664556       0.79400000 </v>
    <v>       0.58308920       0.41654703       0.12705450 </v>
    <v>       0.58327041       0.41663240       0.46045981 </v>
    <v>       0.58325452       0.41661446       0.79403081 </v>
    <v>       0.58334254       0.66669838       0.12710802 </v>
    <v>       0.58329178       0.66668320       0.46046122 </v>
    <v>       0.58339326       0.66672533       0.79399074 </v>
    <v>       0.58355331       0.91676171       0.12711269 </v>
    <v>       0.58332752       0.91667471       0.46045991 </v>
    <v>       0.58339585       0.91669487       0.79400692 </v>
    <v>       0.83498144       0.16664338       0.12669338 </v>
    <v>       0.83338010       0.16664917       0.46044904 </v>
    <v>       0.83354219       0.16672124       0.79416802 </v>
    <v>       0.83343926       0.41655661       0.12702390 </v>
    <v>       0.83336072       0.41663185       0.46046262 </v>
    <v>       0.83335504       0.41661942       0.79402815 </v>
    <v>       0.83347901       0.66696259       0.12701283 </v>
    <v>       0.83335377       0.66670896       0.46046320 </v>
    <v>       0.83339883       0.66681606       0.79406645 </v>
    <v>       0.83472622       0.91782334       0.12687152 </v>
    <v>       0.83337816       0.91676109       0.46044012 </v>
    <v>       0.83357092       0.91666367       0.79409897 </v>
    <v>       0.16692712       0.08309908       0.29452342 </v>
    <v>       0.16656225       0.08346208       0.62766351 </v>
    <v>       0.17468808       0.07367982       0.95468142 </v>
    <v>       0.16670341       0.33343919       0.29405802 </v>
    <v>       0.16653598       0.33307086       0.62752933 </v>
    <v>       0.17734357       0.34791864       0.95624772 </v>
    <v>       0.16661734       0.58316617       0.29362705 </v>
    <v>       0.16664625       0.58326245       0.62731799 </v>
    <v>       0.16670734       0.58346083       0.96054138 </v>
    <v>       0.16662156       0.83346456       0.29358618 </v>
    <v>       0.16667351       0.83338288       0.62731527 </v>
    <v>       0.16668635       0.83281835       0.96053657 </v>
    <v>       0.41653547       0.08339311       0.29359291 </v>
    <v>       0.41661811       0.08334198       0.62732383 </v>
    <v>       0.41693072       0.08326870       0.96053307 </v>
    <v>       0.41646496       0.33317042       0.29359050 </v>
    <v>       0.41660073       0.33326445       0.62730772 </v>
    <v>       0.41616950       0.33202601       0.96069336 </v>
    <v>       0.41657512       0.58320404       0.29366215 </v>
    <v>       0.41663962       0.58331139       0.62727813 </v>
    <v>       0.41811898       0.58512704       0.96041299 </v>
    <v>       0.41666112       0.83332852       0.29373024 </v>
    <v>       0.41666944       0.83333592       0.62729456 </v>
    <v>       0.41668634       0.83337659       0.96053187 </v>
    <v>       0.66680319       0.08337587       0.29363505 </v>
    <v>       0.66673817       0.08336068       0.62733376 </v>
    <v>       0.66589056       0.08322963       0.96048829 </v>
    <v>       0.66665012       0.33329972       0.29372815 </v>
    <v>       0.66666673       0.33331610       0.62730294 </v>
    <v>       0.66679228       0.33329685       0.96053694 </v>
    <v>       0.66664255       0.58333764       0.29372408 </v>
    <v>       0.66666286       0.58332893       0.62730411 </v>
    <v>       0.66668595       0.58338395       0.96056295 </v>
    <v>       0.66679626       0.83342188       0.29362865 </v>
    <v>       0.66672915       0.83337924       0.62733166 </v>
    <v>       0.66560315       0.83238995       0.96046635 </v>
    <v>       0.91653198       0.08328123       0.29401509 </v>
    <v>       0.91689497       0.08344404       0.62754906 </v>
    <v>       0.89805869       0.07327095       0.95718975 </v>
    <v>       0.91677669       0.33327315       0.29362462 </v>
    <v>       0.91670042       0.33328812       0.62736031 </v>
    <v>       0.91817589       0.33234237       0.96076462 </v>
    <v>       0.91669816       0.58334032       0.29372588 </v>
    <v>       0.91667695       0.58332572       0.62730618 </v>
    <v>       0.91668239       0.58333778       0.96053479 </v>
    <v>       0.91682447       0.83353796       0.29356347 </v>
    <v>       0.91669790       0.83341263       0.62735190 </v>
    <v>       0.91760035       0.83470203       0.96072806 </v>
    <v>       0.08254245       0.16451088       0.99984951 </v>
   </varray>
  </structure>
  <varray name="forces" >
   <v>      -0.00398476       0.01366460      -0.09617147 </v>
   <v>      -0.02186398       0.00259170       0.01694904 </v>
   <v>      -0.21728710       0.24751252       0.07020752 </v>
   <v>      -0.01580386       0.00669024       0.03413025 </v>
   <v>      -0.05032805       0.02889125      -0.05522652 </v>
   <v>      -0.01604504      -0.03160878       0.00759915 </v>
   <v>       0.00732151      -0.00255248      -0.00664586 </v>
   <v>       0.00106572      -0.00421973       0.00996625 </v>
   <v>       0.07098619      -0.15998517       0.02815791 </v>
   <v>      -0.00105056      -0.05817095       0.05271803 </v>
   <v>       0.00553885      -0.07165849      -0.08163277 </v>
   <v>       0.25268346      -0.07568063       0.04450491 </v>
   <v>       0.05107196       0.03782642       0.05839959 </v>
   <v>       0.06851965       0.03537535      -0.08378142 </v>
   <v>      -0.08848925       0.06342816      -0.06864737 </v>
   <v>       0.01820735       0.00525017       0.03618786 </v>
   <v>       0.05133686       0.03027285      -0.12085503 </v>
   <v>      -0.04404430       0.07515508       0.01323042 </v>
   <v>      -0.00309750      -0.00538634       0.00189858 </v>
   <v>      -0.00177204       0.00715892      -0.00796056 </v>
   <v>       0.01438054       0.00084741      -0.01133156 </v>
   <v>       0.00040874       0.00146544      -0.00331932 </v>
   <v>       0.00768595      -0.00190265       0.00804671 </v>
   <v>      -0.03377153       0.02613502       0.00572477 </v>
   <v>      -0.00213455       0.00017254      -0.00568016 </v>
   <v>       0.00128698       0.00399360       0.01320973 </v>
   <v>       0.08903481       0.01790163       0.00007302 </v>
   <v>      -0.00421538      -0.00429978      -0.00393349 </v>
   <v>       0.00918237       0.00126760       0.00393268 </v>
   <v>       0.10587597       0.02081879       0.04525135 </v>
   <v>      -0.00368444      -0.00370982      -0.00295782 </v>
   <v>       0.00166515      -0.00193415       0.00927501 </v>
   <v>      -0.03390070      -0.01137191      -0.00417474 </v>
   <v>      -0.00266709       0.00037382       0.00049527 </v>
   <v>      -0.00635105      -0.00062854       0.00561549 </v>
   <v>      -0.19605708      -0.02175388       0.02300318 </v>
   <v>      -0.02149152       0.02402637       0.03698687 </v>
   <v>      -0.04644361       0.02388591      -0.01446282 </v>
   <v>       0.07514985      -0.01806858      -0.03770987 </v>
   <v>       0.00479481      -0.00403802      -0.00070506 </v>
   <v>      -0.00675253       0.00060703       0.00144445 </v>
   <v>       0.01604765       0.00694553      -0.02484211 </v>
   <v>       0.00005773      -0.00105772      -0.00609463 </v>
   <v>      -0.00016415      -0.01309066       0.00943175 </v>
   <v>      -0.07105044       0.01338452      -0.00822207 </v>
   <v>       0.00359226      -0.02652109       0.03168009 </v>
   <v>      -0.00584864      -0.04536063      -0.01122930 </v>
   <v>      -0.12964680       0.05718956      -0.00901300 </v>
   <v>      -0.00943443       0.01457078      -0.00744891 </v>
   <v>       0.15499563      -0.12500323       0.07651249 </v>
   <v>      -0.02637640       0.04711200       0.17089954 </v>
   <v>      -0.00531022       0.00355603      -0.02074104 </v>
   <v>       0.00680088       0.18788325      -0.23062121 </v>
   <v>      -0.01464424      -0.08510515      -0.03264299 </v>
   <v>       0.00517759      -0.01391814       0.00370368 </v>
   <v>      -0.02342815       0.04535778      -0.01408042 </v>
   <v>      -0.04287152      -0.00206085      -0.02481415 </v>
   <v>       0.00514186      -0.00688511       0.00420058 </v>
   <v>       0.03001187      -0.01860754      -0.00137253 </v>
   <v>      -0.01582072       0.03667324      -0.02963919 </v>
   <v>       0.00106641       0.00158601       0.00458626 </v>
   <v>       0.03856945      -0.01494243       0.00927144 </v>
   <v>       0.01851959      -0.07756250       0.02145666 </v>
   <v>      -0.01256610       0.00779369       0.00079347 </v>
   <v>       0.07823934       0.00004176      -0.01969194 </v>
   <v>       0.01212420       0.01631447       0.03000340 </v>
   <v>      -0.00772825      -0.00964250      -0.00101889 </v>
   <v>       0.01943541       0.07786410      -0.05693700 </v>
   <v>      -0.00058585       0.00865851      -0.01383734 </v>
   <v>       0.00124829      -0.01011420       0.00364093 </v>
   <v>      -0.00257581       0.01390594       0.01316821 </v>
   <v>       0.03400315       0.03162846      -0.01542476 </v>
   <v>       0.00800791       0.00558256       0.00687763 </v>
   <v>      -0.01963507      -0.00137202      -0.01475794 </v>
   <v>       0.00114345       0.00477135      -0.00615928 </v>
   <v>       0.00634695       0.00149481       0.00594148 </v>
   <v>      -0.00050888      -0.00583153      -0.00837672 </v>
   <v>       0.00930509      -0.00120172      -0.00696138 </v>
   <v>      -0.00892071      -0.00356476       0.00498554 </v>
   <v>       0.00615835       0.00298901      -0.01322003 </v>
   <v>       0.03016233       0.00494888      -0.00207922 </v>
   <v>      -0.00314979      -0.00120680       0.00566096 </v>
   <v>      -0.01029293      -0.00898256      -0.02879836 </v>
   <v>      -0.02425693      -0.03707465       0.08661971 </v>
   <v>       0.00143572       0.01458265      -0.01296996 </v>
   <v>      -0.20669362      -0.13175787      -0.18332631 </v>
   <v>       0.06573286      -0.00198108      -0.02519057 </v>
   <v>       0.01219800       0.00314434       0.00594486 </v>
   <v>      -0.03343367      -0.01468260       0.03892100 </v>
   <v>      -0.00546194      -0.00308654      -0.01044294 </v>
   <v>       0.00887837      -0.00942104       0.00527495 </v>
   <v>      -0.00278874       0.00207146      -0.00711213 </v>
   <v>       0.03397370       0.05023663      -0.01478978 </v>
   <v>      -0.00663405       0.00134894       0.00548867 </v>
   <v>      -0.01709815      -0.02054050       0.02361845 </v>
   <v>       0.02446661      -0.01343696      -0.54522680 </v>
   <v>       0.00164118      -0.01214818       0.04912572 </v>
   <v>       0.03263232       0.05087305       0.20807131 </v>
   <v>      -0.08699433       0.10822329      -0.00740714 </v>
   <v>      -0.00690518       0.00144304       0.04085290 </v>
   <v>      -0.07214032       0.07281075      -0.09887580 </v>
   <v>       0.00177286      -0.02441417      -0.00934430 </v>
   <v>      -0.00752874       0.00893753       0.00474090 </v>
   <v>       0.01500868      -0.01724931      -0.01260484 </v>
   <v>       0.03477279      -0.13249710       0.07607272 </v>
   <v>      -0.00408851      -0.01088318       0.05209154 </v>
   <v>       0.00830887      -0.14695077      -0.12028300 </v>
   <v>       0.12827625       0.06177088       0.04706645 </v>
   <v>       0.00625827      -0.00124176       0.05256743 </v>
   <v>       0.12666427       0.10278825      -0.11429207 </v>
   <v>       0.09396804       0.09627643      -0.06004305 </v>
   <v>       0.01154757       0.00225390       0.03859854 </v>
   <v>       0.06990940       0.05515648      -0.02925474 </v>
   <v>       0.00512328      -0.01726119      -0.02347749 </v>
   <v>       0.00105028       0.00581588       0.00650042 </v>
   <v>       0.00697047      -0.03933444       0.00175813 </v>
   <v>       0.00725322      -0.00461626      -0.00571933 </v>
   <v>      -0.00448084       0.00211463       0.00605209 </v>
   <v>      -0.00663034       0.00062443      -0.01640252 </v>
   <v>       0.02192738       0.01227220      -0.00469978 </v>
   <v>      -0.00194208      -0.00246523       0.00417023 </v>
   <v>       0.00771856       0.00389825      -0.01925995 </v>
   <v>       0.00903527       0.01127870      -0.02184195 </v>
   <v>       0.00157417       0.00272468       0.00476753 </v>
   <v>      -0.00236928       0.00502291      -0.00520215 </v>
   <v>       0.00268986      -0.01318651      -0.00852472 </v>
   <v>       0.00738991       0.00627385       0.00456784 </v>
   <v>      -0.01436213      -0.01579704      -0.01238701 </v>
   <v>       0.00582535       0.00718604      -0.00763575 </v>
   <v>       0.00440440       0.00047224       0.00517836 </v>
   <v>       0.00951569       0.00413689      -0.01086697 </v>
   <v>      -0.15140857       0.03541633       0.02869501 </v>
   <v>      -0.00369154      -0.00411224       0.03590219 </v>
   <v>      -0.17264230       0.10055729      -0.14984688 </v>
   <v>      -0.00603090       0.00206133      -0.01373813 </v>
   <v>      -0.00473777       0.00391359       0.00698297 </v>
   <v>       0.00014294       0.00291313      -0.00807466 </v>
   <v>      -0.00100149      -0.02974113      -0.00990187 </v>
   <v>      -0.00032368       0.00826054       0.00461162 </v>
   <v>      -0.00103200      -0.02811068      -0.01910681 </v>
   <v>      -0.04716880      -0.12239732       0.02690499 </v>
   <v>       0.00547362      -0.00950485       0.03521175 </v>
   <v>      -0.01271568      -0.18481938      -0.14582822 </v>
   <v>       0.08319450      -0.05510314       0.40735388 </v>
   <v>      -0.01625002       0.00504566       0.07692614 </v>
   <v>      -0.17984232       0.16311683       0.00943997 </v>
   <v>       0.00767174       0.09909015       0.36597786 </v>
   <v>       0.00538307      -0.00521279       0.07909418 </v>
   <v>      -0.06338954      -0.00994743       0.13170796 </v>
   <v>      -0.00368436       0.00454154      -0.00656847 </v>
   <v>       0.00512585       0.00166504       0.00784116 </v>
   <v>      -0.01601219       0.20968948      -0.07457335 </v>
   <v>      -0.00095440       0.00089754       0.01040687 </v>
   <v>       0.01311525      -0.00275446      -0.01346071 </v>
   <v>       0.30320239      -0.25425825      -0.11449839 </v>
   <v>       0.00255468      -0.00381908       0.00433438 </v>
   <v>       0.00980661      -0.01402549      -0.01122868 </v>
   <v>       0.30977777      -0.10694792      -0.09388518 </v>
   <v>       0.00752352       0.00029962       0.03421509 </v>
   <v>      -0.00206722       0.01434667      -0.00916830 </v>
   <v>      -0.04752014       0.10517167      -0.06572424 </v>
   <v>       0.00368542       0.00498617       0.00399900 </v>
   <v>      -0.00386681       0.00149418       0.00430896 </v>
   <v>      -0.00329184       0.09924585      -0.07843267 </v>
   <v>       0.00079221       0.00487169       0.00087351 </v>
   <v>       0.00029951       0.00053206       0.00406702 </v>
   <v>      -0.00011035      -0.01441765      -0.01158876 </v>
   <v>       0.00149785      -0.00245122       0.00349201 </v>
   <v>       0.00178854      -0.00790707      -0.00160182 </v>
   <v>      -0.26979172      -0.10110101      -0.07662498 </v>
   <v>       0.00026290      -0.00003456       0.00838365 </v>
   <v>      -0.00245230      -0.00065210      -0.00298990 </v>
   <v>       0.02320896      -0.00895305      -0.00626565 </v>
   <v>       0.00478294       0.00401835       0.01047304 </v>
   <v>       0.00049335       0.00358473      -0.00338001 </v>
   <v>      -0.02163313      -0.00743846      -0.00688473 </v>
   <v>       0.00274300       0.00351129       0.01380349 </v>
   <v>      -0.00221562       0.00352861      -0.00424436 </v>
   <v>      -0.26014072      -0.18558331      -0.10012341 </v>
   <v>      -0.08772637      -0.06110222       0.42623228 </v>
   <v>       0.00535659      -0.00208515       0.05119461 </v>
   <v>       0.24004754       0.09832560       0.02444783 </v>
   <v>      -0.00891027      -0.00065966       0.02389730 </v>
   <v>       0.00469419      -0.00087473       0.00403678 </v>
   <v>      -0.03596847       0.08785679      -0.04172258 </v>
   <v>      -0.00486559       0.00440200       0.00933203 </v>
   <v>      -0.00130917       0.00671977      -0.00351421 </v>
   <v>       0.02517036      -0.00610574      -0.00899773 </v>
   <v>      -0.00058805      -0.00531349       0.05577909 </v>
   <v>      -0.01063923      -0.00707318      -0.01851503 </v>
   <v>      -0.01457317      -0.09316871      -0.06322428 </v>
   <v>       0.03608858      -0.08466353       0.15631680 </v>
  </varray>
  <varray name="stress" >
   <v>     -21.35021468      -0.18703364      -0.01479608 </v>
   <v>      -0.18703255     -21.63631807       0.09289619 </v>
   <v>      -0.01477040       0.09289664     -21.33301399 </v>
  </varray>
  <energy>
   <i name="e_fr_energy">  -1208.87974110 </i>
   <i name="e_wo_entrp">  -1208.79637198 </i>
   <i name="e_0_energy">  -1208.83805654 </i>
  </energy>
  <time name="totalsc">37168.6337374.53</time>
 </calculation>
 <calculation>
  <scstep>
   <time name="total"> 1751.16 1758.98</time>
   <energy>
    <i name="alphaZ">  11324.91224854 </i>
    <i name="ewald">-141872.06927296 </i>
    <i name="hartreedc"> -63492.65297646 </i>
    <i name="XCdc">   5427.10942125 </i>
    <i name="pawpsdc"> 210060.93770244 </i>
    <i name="pawaedc">-225529.06730787 </i>
    <i name="eentropy">     -0.08339273 </i>
    <i name="bandstr"> -12353.72645076 </i>
    <i name="atom"> 207921.66256209 </i>
    <i name="e_fr_energy">  -1208.74499591 </i>
    <i name="e_wo_entrp">  -1208.66160318 </i>
    <i name="e_0_energy">  -1208.70329954 </i>
   </energy>
  </scstep>
  <scstep>
   <time name="total"> 1751.28 1759.50</time>
   <energy>
    <i name="e_fr_energy">  -1208.83631347 </i>
    <i name="e_wo_entrp">  -1208.75276922 </i>
    <i name="e_0_energy">  -1208.79454135 </i>
   </energy>
  </scstep>
  <scstep>
   <time name="total"> 1754.97 1763.15</time>
   <energy>
    <i name="e_fr_energy">  -1208.87158867 </i>
    <i name="e_wo_entrp">  -1208.78801310 </i>
    <i name="e_0_energy">  -1208.82980089 </i>
   </energy>
  </scstep>
  <scstep>
   <time name="total"> 1752.14 1760.31</time>
   <energy>
    <i name="e_fr_energy">  -1208.87947187 </i>
    <i name="e_wo_entrp">  -1208.79595678 </i>
    <i name="e_0_energy">  -1208.83771433 </i>
   </energy>
  </scstep>
  <scstep>
   <time name="total"> 1748.82 1757.32</time>
   <energy>
    <i name="e_fr_energy">  -1208.88011511 </i>
    <i name="e_wo_entrp">  -1208.79666186 </i>
    <i name="e_0_energy">  -1208.83838849 </i>
   </energy>
  </scstep>
  <scstep>
   <time name="total"> 1751.09 1759.62</time>
   <energy>
    <i name="e_fr_energy">  -1208.88044344 </i>
    <i name="e_wo_entrp">  -1208.79701032 </i>
    <i name="e_0_energy">  -1208.83872688 </i>
   </energy>
  </scstep>
  <scstep>
   <time name="total"> 1750.25 1758.40</time>
   <energy>
    <i name="e_fr_energy">  -1208.88098441 </i>
    <i name="e_wo_entrp">  -1208.79754844 </i>
    <i name="e_0_energy">  -1208.83926643 </i>
   </energy>
  </scstep>
  <scstep>
   <time name="total"> 1750.82 1759.20</time>
   <energy>
    <i name="e_fr_energy">  -1208.88126525 </i>
    <i name="e_wo_entrp">  -1208.79782735 </i>
    <i name="e_0_energy">  -1208.83954630 </i>
   </energy>
  </scstep>
  <scstep>
