       N       E                     dE             d eps       ncg     rms           ort
DAV:   1    -0.204894941211E+05   -0.20489E+05   -0.31775E+05  2556   0.216E+03  
DAV:   2    -0.323000088707E+05   -0.11811E+05   -0.10981E+05  2556   0.583E+02  
DAV:   3    -0.358834673274E+05   -0.35835E+04   -0.33408E+04  2556   0.273E+02  
DAV:   4    -0.364586429218E+05   -0.57518E+03   -0.55847E+03  2556   0.124E+02  
DAV:   5    -0.722797239775E+03    0.35736E+05   -0.12952E+03  2556   0.105E+02  
SDA:   6    -0.375736540462E+03    0.34706E+03   -0.53940E+03  2556   0.135E+04   0.000E+00
DMP:   7    -0.633475938172E+03   -0.25774E+03   -0.22353E+02  2556   0.858E+02  -0.783E+02
DMP:   8    -0.623409136275E+03    0.10067E+02   -0.57382E+02  2556   0.184E+03  -0.107E+03
DMP:   9    -0.659807853393E+03   -0.36399E+02   -0.18571E+02  2556   0.316E+02   0.389E+02
DMP:  10    -0.667295940670E+03   -0.74881E+01   -0.44827E+01  2556   0.145E+02  -0.873E+01
DMP:  11    -0.669946470917E+03   -0.26505E+01   -0.36727E+01  2556   0.834E+01   0.220E+01
DMP:  12    -0.671737253235E+03   -0.17908E+01   -0.48843E+00  2556   0.130E+01  -0.214E+00
DMP:  13    -0.671868312144E+03   -0.13106E+00   -0.40014E+00  2556   0.122E+01  -0.571E+00
DMP:  14    -0.672110202683E+03   -0.24189E+00   -0.12825E+00  2556   0.242E+00   0.207E+00
DMP:  15    -0.672158287030E+03   -0.48084E-01   -0.29497E-01  2556   0.105E+00  -0.808E-01
DMP:  16    -0.672174774719E+03   -0.16488E-01   -0.30546E-01  2556   0.730E-01   0.874E-02
DMP:  17    -0.672191313484E+03   -0.16539E-01   -0.58473E-02  2556   0.121E-01   0.647E-02
DMP:  18    -0.672193542452E+03   -0.22290E-02   -0.35780E-02  2556   0.102E-01  -0.341E-02
DMP:  19    -0.672195937618E+03   -0.23952E-02   -0.16648E-02  2556   0.300E-02   0.304E-02
DMP:  20    -0.672196869160E+03   -0.93154E-03   -0.51645E-03  2556   0.110E-02   0.488E-03
DMP:  21    -0.672197212691E+03   -0.34353E-03   -0.34302E-03  2556   0.695E-03   0.426E-03
DMP:  22    -0.672197431858E+03   -0.21917E-03   -0.11388E-03  2556   0.191E-03   0.245E-03
DMP:  23    -0.672197505955E+03   -0.74097E-04   -0.64317E-04  2556   0.126E-03   0.919E-04
DMP:  24    -0.672197556005E+03   -0.50050E-04   -0.34274E-04  2556   0.512E-04   0.904E-04
DMP:  25    -0.672197582348E+03   -0.26343E-04   -0.16754E-04  2556   0.247E-04   0.450E-04
DMP:  26    -0.672197596392E+03   -0.14044E-04   -0.99890E-05  2556   0.145E-04   0.275E-04
DMP:  27    -0.672197604631E+03   -0.82385E-05   -0.51418E-05  2556   0.676E-05   0.160E-04
   1 F= -.67219760E+03 E0= -.67218209E+03  d E =-.672198E+03  mag=     1.2153
       N       E                     dE             d eps       ncg     rms           ort
SDA:   1    -0.591690826601E+03    0.80507E+02   -0.11119E+03  2556   0.278E+03   0.000E+00
DMP:   2    -0.644690421826E+03   -0.53000E+02   -0.38603E+02  2556   0.962E+02   0.871E+00
DMP:   3    -0.668426124313E+03   -0.23736E+02   -0.10595E+02  2556   0.183E+02   0.214E+02
DMP:   4    -0.669914787104E+03   -0.14887E+01   -0.60400E+01  2556   0.227E+02  -0.199E+02
DMP:   5    -0.672273762659E+03   -0.23590E+01   -0.67166E+00  2556   0.279E+01  -0.291E+01
DMP:   6    -0.672629254767E+03   -0.35549E+00   -0.12625E+01  2556   0.312E+01   0.107E+00
DMP:   7    -0.673168699287E+03   -0.53944E+00   -0.26290E+00  2556   0.844E+00  -0.489E+00
DMP:   8    -0.673317065731E+03   -0.14837E+00   -0.69285E-01  2556   0.141E+00   0.836E-01
DMP:   9    -0.673324889920E+03   -0.78242E-02   -0.39938E-01  2556   0.151E+00  -0.134E+00
DMP:  10    -0.673346594638E+03   -0.21705E-01   -0.10101E-01  2556   0.219E-01   0.873E-02
DMP:  11    -0.673350269070E+03   -0.36744E-02   -0.84102E-02  2556   0.236E-01  -0.685E-02
DMP:  12    -0.673354570552E+03   -0.43015E-02   -0.13779E-02  2556   0.327E-02   0.453E-03
DMP:  13    -0.673355221238E+03   -0.65069E-03   -0.11422E-02  2556   0.293E-02  -0.200E-03
DMP:  14    -0.673355528652E+03   -0.30741E-03   -0.25557E-03  2556   0.114E-02  -0.130E-02
DMP:  15    -0.673355679450E+03   -0.15080E-03   -0.10621E-03  2556   0.224E-03   0.110E-03
DMP:  16    -0.673355713433E+03   -0.33983E-04   -0.69604E-04  2556   0.212E-03  -0.101E-03
DMP:  17    -0.673355750831E+03   -0.37398E-04   -0.11861E-04  2556   0.235E-04   0.162E-04
DMP:  18    -0.673355755597E+03   -0.47668E-05   -0.90669E-05  2556   0.246E-04  -0.495E-05
   2 F= -.67335576E+03 E0= -.67334484E+03  d E =-.115815E+01  mag=     1.3613
       N       E                     dE             d eps       ncg     rms           ort
SDA:   1    -0.672349885364E+03    0.10059E+01   -0.83570E+00  2556   0.209E+01   0.000E+00
DMP:   2    -0.672997795142E+03   -0.64791E+00   -0.47237E+00  2556   0.741E+00   0.115E+01
DMP:   3    -0.673312529560E+03   -0.31473E+00   -0.11567E+00  2556   0.139E+00   0.393E+00
DMP:   4    -0.673370944643E+03   -0.58415E-01   -0.91644E-02  2556   0.218E-01   0.296E-02
DMP:   5    -0.673369337306E+03    0.16073E-02   -0.31313E-02  2556   0.196E-01  -0.309E-01
DMP:   6    -0.673370840672E+03   -0.15034E-02   -0.64083E-02  2556   0.161E-01  -0.312E-03
DMP:   7    -0.673375605624E+03   -0.47650E-02   -0.36214E-02  2556   0.607E-02   0.781E-02
DMP:   8    -0.673378070241E+03   -0.24646E-02   -0.10583E-02  2556   0.140E-02   0.327E-02
DMP:   9    -0.673378691079E+03   -0.62084E-03   -0.19747E-03  2556   0.320E-03   0.456E-03
DMP:  10    -0.673378774553E+03   -0.83474E-04   -0.51031E-04  2556   0.157E-03  -0.773E-04
DMP:  11    -0.673378797832E+03   -0.23278E-04   -0.34001E-04  2556   0.892E-04  -0.111E-04
DMP:  12    -0.673378820805E+03   -0.22974E-04   -0.20380E-04  2556   0.396E-04   0.297E-04
DMP:  13    -0.673378835002E+03   -0.14196E-04   -0.89727E-05  2556   0.148E-04   0.200E-04
DMP:  14    -0.673378840920E+03   -0.59181E-05   -0.30162E-05  2556   0.472E-05   0.739E-05
   3 F= -.67337884E+03 E0= -.67336850E+03  d E =-.118124E+01  mag=     1.3714
       N       E                     dE             d eps       ncg     rms           ort
SDA:   1    -0.651388346385E+03    0.21990E+02   -0.20954E+02  2556   0.524E+02   0.000E+00
DMP:   2    -0.666529819795E+03   -0.15141E+02   -0.92106E+01  2556   0.141E+02   0.233E+02
DMP:   3    -0.672210422586E+03   -0.56806E+01   -0.22414E+01  2556   0.356E+01   0.534E+01
DMP:   4    -0.673358165762E+03   -0.11477E+01   -0.42528E+00  2556   0.101E+01   0.132E+00
DMP:   5    -0.673472592445E+03   -0.11443E+00   -0.13355E+00  2556   0.519E+00  -0.486E+00
DMP:   6    -0.673543667684E+03   -0.71075E-01   -0.14336E+00  2556   0.350E+00   0.227E-01
DMP:   7    -0.673640980891E+03   -0.97313E-01   -0.64236E-01  2556   0.112E+00   0.128E+00
DMP:   8    -0.673681551558E+03   -0.40571E-01   -0.20979E-01  2556   0.363E-01   0.423E-01
DMP:   9    -0.673693822042E+03   -0.12270E-01   -0.55481E-02  2556   0.105E-01   0.892E-02
DMP:  10    -0.673696438367E+03   -0.26163E-02   -0.15703E-02  2556   0.422E-02  -0.779E-03
DMP:  11    -0.673697235473E+03   -0.79711E-03   -0.88069E-03  2556   0.218E-02   0.693E-04
DMP:  12    -0.673697805773E+03   -0.57030E-03   -0.46575E-03  2556   0.916E-03   0.651E-03
DMP:  13    -0.673698114291E+03   -0.30852E-03   -0.19570E-03  2556   0.346E-03   0.376E-03
DMP:  14    -0.673698238564E+03   -0.12427E-03   -0.64196E-04  2556   0.110E-03   0.131E-03
DMP:  15    -0.673698274813E+03   -0.36249E-04   -0.16508E-04  2556   0.332E-04   0.211E-04
DMP:  16    -0.673698283585E+03   -0.87718E-05   -0.63888E-05  2556   0.150E-04   0.257E-05
   4 F= -.67369828E+03 E0= -.67368709E+03  d E =-.319443E+00  mag=     1.3608
       N       E                     dE             d eps       ncg     rms           ort
SDA:   1    -0.673387157316E+03    0.31112E+00   -0.28800E+00  2556   0.720E+00   0.000E+00
DMP:   2    -0.673597939256E+03   -0.21078E+00   -0.13068E+00  2556   0.199E+00   0.334E+00
DMP:   3    -0.673679494748E+03   -0.81555E-01   -0.31618E-01  2556   0.481E-01   0.811E-01
DMP:   4    -0.673695990403E+03   -0.16496E-01   -0.56734E-02  2556   0.129E-01   0.344E-02
DMP:   5    -0.673697558003E+03   -0.15676E-02   -0.16450E-02  2556   0.653E-02  -0.634E-02
DMP:   6    -0.673698363484E+03   -0.80548E-03   -0.18035E-02  2556   0.454E-02  -0.844E-04
DMP:   7    -0.673699622576E+03   -0.12591E-02   -0.95901E-03  2556   0.171E-02   0.179E-02
DMP:   8    -0.673700244736E+03   -0.62216E-03   -0.31531E-03  2556   0.515E-03   0.714E-03
DMP:   9    -0.673700432427E+03   -0.18769E-03   -0.83003E-04  2556   0.150E-03   0.151E-03
DMP:  10    -0.673700472966E+03   -0.40539E-04   -0.20119E-04  2556   0.519E-04  -0.430E-05
DMP:  11    -0.673700482162E+03   -0.91961E-05   -0.11247E-04  2556   0.296E-04  -0.397E-05
DMP:  12    -0.673700489343E+03   -0.71807E-05   -0.65894E-05  2556   0.135E-04   0.785E-05
   5 F= -.67370049E+03 E0= -.67368906E+03  d E =-.321648E+00  mag=     1.3565
       N       E                     dE             d eps       ncg     rms           ort
SDA:   1    -0.668414814014E+03    0.52857E+01   -0.46036E+01  2556   0.115E+02   0.000E+00
DMP:   2    -0.671865613897E+03   -0.34508E+01   -0.23869E+01  2556   0.377E+01   0.575E+01
DMP:   3    -0.673429964405E+03   -0.15644E+01   -0.61395E+00  2556   0.827E+00   0.185E+01
DMP:   4    -0.673741299938E+03   -0.31134E+00   -0.63159E-01  2556   0.150E+00   0.214E-01
DMP:   5    -0.673741753991E+03   -0.45405E-03   -0.20012E-01  2556   0.109E+00  -0.156E+00
DMP:   6    -0.673750537125E+03   -0.87831E-02   -0.32617E-01  2556   0.839E-01  -0.610E-02
DMP:   7    -0.673774260513E+03   -0.23723E-01   -0.19104E-01  2556   0.336E-01   0.371E-01
DMP:   8    -0.673787081650E+03   -0.12821E-01   -0.58068E-02  2556   0.827E-02   0.164E-01
DMP:   9    -0.673790447375E+03   -0.33657E-02   -0.11185E-02  2556   0.192E-02   0.231E-02
DMP:  10    -0.673790904826E+03   -0.45745E-03   -0.27245E-03  2556   0.875E-03  -0.508E-03
DMP:  11    -0.673791020052E+03   -0.11523E-03   -0.19492E-03  2556   0.526E-03  -0.100E-03
DMP:  12    -0.673791150298E+03   -0.13025E-03   -0.11762E-03  2556   0.231E-03   0.165E-03
DMP:  13    -0.673791231414E+03   -0.81116E-04   -0.51729E-04  2556   0.872E-04   0.110E-03
DMP:  14    -0.673791265486E+03   -0.34071E-04   -0.16923E-04  2556   0.268E-04   0.405E-04
DMP:  15    -0.673791275362E+03   -0.98763E-05   -0.43254E-05  2556   0.801E-05   0.735E-05
   6 F= -.67379128E+03 E0= -.67378024E+03  d E =-.907860E-01  mag=     1.3616
       N       E                     dE             d eps       ncg     rms           ort
SDA:   1    -0.672430440942E+03    0.13608E+01   -0.11657E+01  2556   0.291E+01   0.000E+00
DMP:   2    -0.673308581487E+03   -0.87814E+00   -0.60943E+00  2556   0.959E+00   0.148E+01
DMP:   3    -0.673708379081E+03   -0.39980E+00   -0.15652E+00  2556   0.210E+00   0.475E+00
DMP:   4    -0.673788638154E+03   -0.80259E-01   -0.15981E-01  2556   0.361E-01   0.997E-02
DMP:   5    -0.673788838484E+03   -0.20033E-03   -0.51473E-02  2556   0.278E-01  -0.390E-01
DMP:   6    -0.673791148694E+03   -0.23102E-02   -0.79294E-02  2556   0.203E-01  -0.132E-02
DMP:   7    -0.673796952303E+03   -0.58036E-02   -0.48318E-02  2556   0.856E-02   0.920E-02
DMP:   8    -0.673800240386E+03   -0.32881E-02   -0.15390E-02  2556   0.218E-02   0.436E-02
DMP:   9    -0.673801160302E+03   -0.91992E-03   -0.32762E-03  2556   0.532E-03   0.751E-03
DMP:  10    -0.673801311257E+03   -0.15095E-03   -0.75318E-04  2556   0.213E-03  -0.637E-04
DMP:  11    -0.673801344101E+03   -0.32844E-04   -0.47838E-04  2556   0.128E-03  -0.224E-04
DMP:  12    -0.673801375235E+03   -0.31134E-04   -0.28344E-04  2556   0.569E-04   0.366E-04
DMP:  13    -0.673801394640E+03   -0.19405E-04   -0.12789E-04  2556   0.221E-04   0.258E-04
DMP:  14    -0.673801403158E+03   -0.85180E-05   -0.44598E-05  2556   0.718E-05   0.104E-04
   7 F= -.67380140E+03 E0= -.67379057E+03  d E =-.100914E+00  mag=     1.3641
       N       E                     dE             d eps       ncg     rms           ort
SDA:   1    -0.672276068784E+03    0.15253E+01   -0.13418E+01  2556   0.335E+01   0.000E+00
DMP:   2    -0.673277208759E+03   -0.10011E+01   -0.68622E+00  2556   0.108E+01   0.165E+01
DMP:   3    -0.673728749367E+03   -0.45154E+00   -0.18113E+00  2556   0.246E+00   0.542E+00
DMP:   4    -0.673821413410E+03   -0.92664E-01   -0.17591E-01  2556   0.399E-01   0.106E-01
DMP:   5    -0.673821255618E+03    0.15779E-03   -0.64245E-02  2556   0.332E-01  -0.448E-01
DMP:   6    -0.673824132005E+03   -0.28764E-02   -0.88387E-02  2556   0.227E-01  -0.168E-02
DMP:   7    -0.673830573243E+03   -0.64412E-02   -0.53252E-02  2556   0.945E-02   0.101E-01
DMP:   8    -0.673834173823E+03   -0.36006E-02   -0.16399E-02  2556   0.231E-02   0.469E-02
DMP:   9    -0.673835148016E+03   -0.97419E-03   -0.37316E-03  2556   0.639E-03   0.770E-03
DMP:  10    -0.673835321523E+03   -0.17351E-03   -0.82468E-04  2556   0.231E-03  -0.653E-04
DMP:  11    -0.673835355786E+03   -0.34263E-04   -0.51885E-04  2556   0.143E-03  -0.342E-04
DMP:  12    -0.673835389570E+03   -0.33784E-04   -0.30130E-04  2556   0.604E-04   0.391E-04
DMP:  13    -0.673835410169E+03   -0.20599E-04   -0.13999E-04  2556   0.245E-04   0.274E-04
DMP:  14    -0.673835419523E+03   -0.93541E-05   -0.49483E-05  2556   0.784E-05   0.119E-04
   8 F= -.67383542E+03 E0= -.67382491E+03  d E =-.340164E-01  mag=     1.3693
       N       E                     dE             d eps       ncg     rms           ort
SDA:   1    -0.671890091019E+03    0.19453E+01   -0.16837E+01  2556   0.421E+01   0.000E+00
DMP:   2    -0.673146377749E+03   -0.12563E+01   -0.86198E+00  2556   0.136E+01   0.207E+01
DMP:   3    -0.673713444022E+03   -0.56707E+00   -0.22767E+00  2556   0.309E+00   0.680E+00
DMP:   4    -0.673829715980E+03   -0.11627E+00   -0.21866E-01  2556   0.499E-01   0.124E-01
DMP:   5    -0.673829317748E+03    0.39823E-03   -0.80091E-02  2556   0.417E-01  -0.566E-01
DMP:   6    -0.673832903868E+03   -0.35861E-02   -0.11190E-01  2556   0.288E-01  -0.209E-02
DMP:   7    -0.673841063149E+03   -0.81593E-02   -0.67327E-02  2556   0.119E-01   0.128E-01
DMP:   8    -0.673845615312E+03   -0.45522E-02   -0.20650E-02  2556   0.290E-02   0.593E-02
DMP:   9    -0.673846839523E+03   -0.12242E-02   -0.46495E-03  2556   0.796E-03   0.958E-03
DMP:  10    -0.673847054119E+03   -0.21460E-03   -0.10277E-03  2556   0.291E-03  -0.891E-04
DMP:  11    -0.673847096410E+03   -0.42291E-04   -0.65165E-04  2556   0.180E-03  -0.446E-04
DMP:  12    -0.673847138916E+03   -0.42506E-04   -0.37998E-04  2556   0.761E-04   0.495E-04
DMP:  13    -0.673847164936E+03   -0.26020E-04   -0.17699E-04  2556   0.310E-04   0.348E-04
DMP:  14    -0.673847176773E+03   -0.11837E-04   -0.62216E-05  2556   0.981E-05   0.150E-04
DMP:  15    -0.673847180499E+03   -0.37258E-05   -0.17364E-05  2556   0.308E-05   0.330E-05
   9 F= -.67384718E+03 E0= -.67383705E+03  d E =-.457773E-01  mag=     1.3750
       N       E                     dE             d eps       ncg     rms           ort
SDA:   1    -0.672075928471E+03    0.17712E+01   -0.14749E+01  2556   0.369E+01   0.000E+00
DMP:   2    -0.673198893499E+03   -0.11230E+01   -0.80859E+00  2556   0.129E+01   0.193E+01
DMP:   3    -0.673741435119E+03   -0.54254E+00   -0.21688E+00  2556   0.278E+00   0.691E+00
DMP:   4    -0.673852601752E+03   -0.11117E+00   -0.16156E-01  2556   0.351E-01   0.138E-01
DMP:   5    -0.673849167737E+03    0.34340E-02   -0.54909E-02  2556   0.357E-01  -0.575E-01
DMP:   6    -0.673851421282E+03   -0.22535E-02   -0.10597E-01  2556   0.274E-01  -0.246E-02
DMP:   7    -0.673859322744E+03   -0.79015E-02   -0.65147E-02  2556   0.113E-01   0.130E-01
DMP:   8    -0.673863785146E+03   -0.44624E-02   -0.19456E-02  2556   0.256E-02   0.603E-02
DMP:   9    -0.673864939104E+03   -0.11540E-02   -0.38791E-03  2556   0.624E-03   0.904E-03
DMP:  10    -0.673865108272E+03   -0.16917E-03   -0.84134E-04  2556   0.258E-03  -0.124E-03
DMP:  11    -0.673865142375E+03   -0.34103E-04   -0.58348E-04  2556   0.161E-03  -0.391E-04
DMP:  12    -0.673865181315E+03   -0.38940E-04   -0.34545E-04  2556   0.678E-04   0.486E-04
DMP:  13    -0.673865205352E+03   -0.24037E-04   -0.16266E-04  2556   0.279E-04   0.334E-04
DMP:  14    -0.673865216320E+03   -0.10968E-04   -0.56822E-05  2556   0.872E-05   0.144E-04
DMP:  15    -0.673865219696E+03   -0.33759E-05   -0.14617E-05  2556   0.253E-05   0.295E-05
  10 F= -.67386522E+03 E0= -.67385499E+03  d E =-.180392E-01  mag=     1.3748
       N       E                     dE             d eps       ncg     rms           ort
SDA:   1    -0.673703228319E+03    0.16199E+00   -0.13408E+00  2556   0.335E+00   0.000E+00
DMP:   2    -0.673805301100E+03   -0.10207E+00   -0.72536E-01  2556   0.114E+00   0.175E+00
DMP:   3    -0.673854171354E+03   -0.48870E-01   -0.19623E-01  2556   0.250E-01   0.630E-01
DMP:   4    -0.673864572600E+03   -0.10401E-01   -0.18427E-02  2556   0.348E-02   0.296E-02
DMP:   5    -0.673864588853E+03   -0.16253E-04   -0.54402E-03  2556   0.309E-02  -0.452E-02
DMP:   6    -0.673864810855E+03   -0.22200E-03   -0.84279E-03  2556   0.220E-02  -0.250E-03
DMP:   7    -0.673865432243E+03   -0.62139E-03   -0.53572E-03  2556   0.957E-03   0.100E-02
DMP:   8    -0.673865803108E+03   -0.37086E-03   -0.17697E-03  2556   0.246E-03   0.515E-03
DMP:   9    -0.673865911560E+03   -0.10845E-03   -0.40649E-04  2556   0.635E-04   0.998E-04
DMP:  10    -0.673865931720E+03   -0.20159E-04   -0.87749E-05  2556   0.223E-04  -0.862E-06
DMP:  11    -0.673865935470E+03   -0.37507E-05   -0.48752E-05  2556   0.134E-04  -0.321E-05
  11 F= -.67386594E+03 E0= -.67385565E+03  d E =-.187550E-01  mag=     1.3742
       N       E                     dE             d eps       ncg     rms           ort
SDA:   1    -0.673836385172E+03    0.29547E-01   -0.24227E-01  2556   0.606E-01   0.000E+00
DMP:   2    -0.673854847418E+03   -0.18462E-01   -0.13109E-01  2556   0.206E-01   0.317E-01
DMP:   3    -0.673863682208E+03   -0.88348E-02   -0.35701E-02  2556   0.457E-02   0.114E-01
DMP:   4    -0.673865601240E+03   -0.19190E-02   -0.38364E-03  2556   0.703E-03   0.669E-03
DMP:   5    -0.673865649216E+03   -0.47975E-04   -0.11413E-03  2556   0.560E-03  -0.720E-03
DMP:   6    -0.673865699420E+03   -0.50204E-04   -0.14695E-03  2556   0.381E-03  -0.346E-04
DMP:   7    -0.673865806217E+03   -0.10680E-03   -0.94877E-04  2556   0.173E-03   0.167E-03
DMP:   8    -0.673865871712E+03   -0.65495E-04   -0.33291E-04  2556   0.487E-04   0.904E-04
DMP:   9    -0.673865892279E+03   -0.20567E-04   -0.82023E-05  2556   0.131E-04   0.195E-04
DMP:  10    -0.673865896590E+03   -0.43116E-05   -0.19582E-05  2556   0.452E-05   0.995E-06
  12 F= -.67386590E+03 E0= -.67385565E+03  d E =-.187161E-01  mag=     1.3747
       N       E                     dE             d eps       ncg     rms           ort
SDA:   1    -0.673860775745E+03    0.51165E-02   -0.43054E-02  2556   0.108E-01   0.000E+00
DMP:   2    -0.673864045614E+03   -0.32699E-02   -0.22503E-02  2556   0.349E-02   0.559E-02
DMP:   3    -0.673865565808E+03   -0.15202E-02   -0.61388E-03  2556   0.780E-03   0.198E-02
DMP:   4    -0.673865904218E+03   -0.33841E-03   -0.78010E-04  2556   0.135E-03   0.158E-03
DMP:   5    -0.673865922742E+03   -0.18524E-04   -0.22207E-04  2556   0.945E-04  -0.102E-03
DMP:   6    -0.673865932632E+03   -0.98900E-05   -0.23080E-04  2556   0.600E-04  -0.605E-05
DMP:   7    -0.673865948973E+03   -0.16341E-04   -0.14278E-04  2556   0.265E-04   0.240E-04
DMP:   8    -0.673865958830E+03   -0.98573E-05   -0.52493E-05  2556   0.794E-05   0.136E-04
  13 F= -.67386596E+03 E0= -.67385570E+03  d E =-.187783E-01  mag=     1.3745
       N       E                     dE             d eps       ncg     rms           ort
SDA:   1    -0.673231404336E+03    0.63454E+00   -0.55406E+00  2556   0.139E+01   0.000E+00
DMP:   2    -0.673647279892E+03   -0.41588E+00   -0.28097E+00  2556   0.437E+00   0.694E+00
DMP:   3    -0.673830074305E+03   -0.18279E+00   -0.70737E-01  2556   0.960E-01   0.212E+00
DMP:   4    -0.673866591110E+03   -0.36517E-01   -0.83046E-02  2556   0.186E-01   0.576E-02
DMP:   5    -0.673867341325E+03   -0.75021E-03   -0.26349E-02  2556   0.131E-01  -0.170E-01
DMP:   6    -0.673868575228E+03   -0.12339E-02   -0.36613E-02  2556   0.931E-02  -0.417E-03
DMP:   7    -0.673871214737E+03   -0.26395E-02   -0.20876E-02  2556   0.367E-02   0.405E-02
DMP:   8    -0.673872617585E+03   -0.14028E-02   -0.66727E-03  2556   0.982E-03   0.180E-02
DMP:   9    -0.673873015952E+03   -0.39837E-03   -0.15198E-03  2556   0.256E-03   0.323E-03
DMP:  10    -0.673873086064E+03   -0.70112E-04   -0.33703E-04  2556   0.956E-04  -0.296E-04
DMP:  11    -0.673873100380E+03   -0.14316E-04   -0.21109E-04  2556   0.576E-04  -0.127E-04
DMP:  12    -0.673873114076E+03   -0.13697E-04   -0.12545E-04  2556   0.254E-04   0.156E-04
DMP:  13    -0.673873122660E+03   -0.85838E-05   -0.58112E-05  2556   0.101E-04   0.115E-04
  14 F= -.67387312E+03 E0= -.67386283E+03  d E =-.716383E-02  mag=     1.3734
       N       E                     dE             d eps       ncg     rms           ort
SDA:   1    -0.673866744694E+03    0.63694E-02   -0.56371E-02  2556   0.141E-01   0.000E+00
DMP:   2    -0.673870970408E+03   -0.42257E-02   -0.27774E-02  2556   0.426E-02   0.704E-02
DMP:   3    -0.673872799299E+03   -0.18289E-02   -0.72917E-03  2556   0.982E-03   0.220E-02
DMP:   4    -0.673873200188E+03   -0.40089E-03   -0.11452E-03  2556   0.217E-03   0.182E-03
DMP:   5    -0.673873235154E+03   -0.34966E-04   -0.32421E-04  2556   0.123E-03  -0.111E-03
DMP:   6    -0.673873250481E+03   -0.15326E-04   -0.31072E-04  2556   0.793E-04  -0.429E-05
DMP:   7    -0.673873272234E+03   -0.21753E-04   -0.18176E-04  2556   0.336E-04   0.311E-04
DMP:   8    -0.673873284550E+03   -0.12316E-04   -0.65708E-05  2556   0.103E-04   0.161E-04
DMP:   9    -0.673873288678E+03   -0.41279E-05   -0.19099E-05  2556   0.317E-05   0.420E-05
  15 F= -.67387329E+03 E0= -.67386300E+03  d E =-.732985E-02  mag=     1.3735
       N       E                     dE             d eps       ncg     rms           ort
SDA:   1    -0.673498662969E+03    0.37462E+00   -0.31669E+00  2556   0.792E+00   0.000E+00
DMP:   2    -0.673739668533E+03   -0.24101E+00   -0.16818E+00  2556   0.263E+00   0.413E+00
DMP:   3    -0.673850415806E+03   -0.11075E+00   -0.42601E-01  2556   0.556E-01   0.133E+00
DMP:   4    -0.673872467161E+03   -0.22051E-01   -0.47477E-02  2556   0.104E-01   0.376E-02
DMP:   5    -0.673872862761E+03   -0.39560E-03   -0.15281E-02  2556   0.760E-02  -0.989E-02
DMP:   6    -0.673873583027E+03   -0.72027E-03   -0.21243E-02  2556   0.539E-02  -0.218E-03
DMP:   7    -0.673875129211E+03   -0.15462E-02   -0.12540E-02  2556   0.221E-02   0.242E-02
DMP:   8    -0.673875978639E+03   -0.84943E-03   -0.40056E-03  2556   0.576E-03   0.111E-02
DMP:   9    -0.673876217138E+03   -0.23850E-03   -0.87188E-04  2556   0.145E-03   0.191E-03
DMP:  10    -0.673876257442E+03   -0.40305E-04   -0.20831E-04  2556   0.584E-04  -0.165E-04
DMP:  11    -0.673876266829E+03   -0.93868E-05   -0.12973E-04  2556   0.343E-04  -0.491E-05
DMP:  12    -0.673876275291E+03   -0.84616E-05   -0.76070E-05  2556   0.152E-04   0.993E-05
  16 F= -.67387628E+03 E0= -.67386612E+03  d E =-.298661E-02  mag=     1.3758
       N       E                     dE             d eps       ncg     rms           ort
SDA:   1    -0.673869442007E+03    0.68248E-02   -0.58322E-02  2556   0.146E-01   0.000E+00
DMP:   2    -0.673873841767E+03   -0.43998E-02   -0.29250E-02  2556   0.448E-02   0.742E-02
DMP:   3    -0.673875764553E+03   -0.19228E-02   -0.73566E-03  2556   0.960E-03   0.230E-02
DMP:   4    -0.673876159668E+03   -0.39511E-03   -0.10763E-03  2556   0.217E-03   0.137E-03
DMP:   5    -0.673876190266E+03   -0.30598E-04   -0.36621E-04  2556   0.136E-03  -0.116E-03
DMP:   6    -0.673876209253E+03   -0.18987E-04   -0.34017E-04  2556   0.838E-04   0.332E-05
DMP:   7    -0.673876233099E+03   -0.23847E-04   -0.19139E-04  2556   0.348E-04   0.341E-04
DMP:   8    -0.673876245991E+03   -0.12891E-04   -0.67018E-05  2556   0.104E-04   0.166E-04
DMP:   9    -0.673876250139E+03   -0.41482E-05   -0.18876E-05  2556   0.320E-05   0.399E-05
  17 F= -.67387625E+03 E0= -.67386610E+03  d E =-.296146E-02  mag=     1.3760
       N       E                     dE             d eps       ncg     rms           ort
SDA:   1    -0.673875411953E+03    0.83404E-03   -0.71994E-03  2556   0.180E-02   0.000E+00
DMP:   2    -0.673875958587E+03   -0.54663E-03   -0.37239E-03  2556   0.575E-03   0.933E-03
DMP:   3    -0.673876207013E+03   -0.24843E-03   -0.10021E-03  2556   0.132E-03   0.311E-03
DMP:   4    -0.673876262827E+03   -0.55813E-04   -0.15813E-04  2556   0.287E-04   0.283E-04
DMP:   5    -0.673876268042E+03   -0.52157E-05   -0.43589E-05  2556   0.161E-04  -0.135E-04
  18 F= -.67387627E+03 E0= -.67386612E+03  d E =-.297936E-02  mag=     1.3759
       N       E                     dE             d eps       ncg     rms           ort
SDA:   1    -0.673875294376E+03    0.96845E-03   -0.83725E-03  2556   0.209E-02   0.000E+00
DMP:   2    -0.673875925456E+03   -0.63108E-03   -0.42118E-03  2556   0.647E-03   0.106E-02
DMP:   3    -0.673876205195E+03   -0.27974E-03   -0.11565E-03  2556   0.157E-03   0.345E-03
DMP:   4    -0.673876270683E+03   -0.65488E-04   -0.20223E-04  2556   0.360E-04   0.381E-04
DMP:   5    -0.673876278040E+03   -0.73569E-05   -0.50703E-05  2556   0.180E-04  -0.138E-04
  19 F= -.67387628E+03 E0= -.67386613E+03  d E =-.298936E-02  mag=     1.3760
       N       E                     dE             d eps       ncg     rms           ort
SDA:   1    -0.673876175738E+03    0.94945E-04   -0.97003E-04  2556   0.243E-03   0.000E+00
DMP:   2    -0.673876247111E+03   -0.71373E-04   -0.44724E-04  2556   0.681E-04   0.114E-03
DMP:   3    -0.673876276232E+03   -0.29121E-04   -0.12812E-04  2556   0.192E-04   0.337E-04
DMP:   4    -0.673876283717E+03   -0.74845E-05   -0.27770E-05  2556   0.492E-05   0.530E-05
  20 F= -.67387628E+03 E0= -.67386614E+03  d E =-.299504E-02  mag=     1.3761
       N       E                     dE             d eps       ncg     rms           ort
SDA:   1    -0.673569529077E+03    0.30675E+00   -0.25462E+00  2556   0.637E+00   0.000E+00
DMP:   2    -0.673765580493E+03   -0.19605E+00   -0.13904E+00  2556   0.216E+00   0.344E+00
DMP:   3    -0.673857807811E+03   -0.92227E-01   -0.34026E-01  2556   0.417E-01   0.114E+00
DMP:   4    -0.673875316915E+03   -0.17509E-01   -0.33381E-02  2556   0.739E-02   0.249E-02
DMP:   5    -0.673875365113E+03   -0.48199E-04   -0.11461E-02  2556   0.596E-02  -0.810E-02
DMP:   6    -0.673875918093E+03   -0.55298E-03   -0.17248E-02  2556   0.435E-02  -0.100E-03
DMP:   7    -0.673877190120E+03   -0.12720E-02   -0.10346E-02  2556   0.180E-02   0.205E-02
DMP:   8    -0.673877894865E+03   -0.70474E-03   -0.32318E-03  2556   0.450E-03   0.938E-03
DMP:   9    -0.673878086204E+03   -0.19134E-03   -0.65557E-04  2556   0.107E-03   0.149E-03
DMP:  10    -0.673878115539E+03   -0.29334E-04   -0.15619E-04  2556   0.457E-04  -0.173E-04
DMP:  11    -0.673878122579E+03   -0.70401E-05   -0.10415E-04  2556   0.275E-04  -0.379E-05
DMP:  12    -0.673878129516E+03   -0.69375E-05   -0.62740E-05  2556   0.124E-04   0.865E-05
  21 F= -.67387813E+03 E0= -.67386797E+03  d E =-.184580E-02  mag=     1.3758
       N       E                     dE             d eps       ncg     rms           ort
SDA:   1    -0.673874442948E+03    0.36796E-02   -0.29612E-02  2556   0.740E-02   0.000E+00
DMP:   2    -0.673876723147E+03   -0.22802E-02   -0.15979E-02  2556   0.247E-02   0.400E-02
DMP:   3    -0.673877796183E+03   -0.10730E-02   -0.41834E-03  2556   0.523E-03   0.137E-02
DMP:   4    -0.673878025909E+03   -0.22973E-03   -0.58429E-04  2556   0.107E-03   0.103E-03
DMP:   5    -0.673878042494E+03   -0.16585E-04   -0.17240E-04  2556   0.672E-04  -0.632E-04
DMP:   6    -0.673878050970E+03   -0.84760E-05   -0.17170E-04  2556   0.432E-04  -0.767E-06
DMP:   7    -0.673878063195E+03   -0.12225E-04   -0.10282E-04  2556   0.187E-04   0.182E-04
DMP:   8    -0.673878070270E+03   -0.70751E-05   -0.37808E-05  2556   0.575E-05   0.970E-05
  22 F= -.67387807E+03 E0= -.67386792E+03  d E =-.178655E-02  mag=     1.3760
       N       E                     dE             d eps       ncg     rms           ort
SDA:   1    -0.673877553377E+03    0.50982E-03   -0.45264E-03  2556   0.113E-02   0.000E+00
DMP:   2    -0.673877900277E+03   -0.34690E-03   -0.23907E-03  2556   0.367E-03   0.603E-03
DMP:   3    -0.673878060604E+03   -0.16033E-03   -0.61778E-04  2556   0.765E-04   0.204E-03
DMP:   4    -0.673878094551E+03   -0.33947E-04   -0.85747E-05  2556   0.156E-04   0.153E-04
DMP:   5    -0.673878096993E+03   -0.24411E-05   -0.25951E-05  2556   0.999E-05  -0.917E-05
  23 F= -.67387810E+03 E0= -.67386795E+03  d E =-.181328E-02  mag=     1.3759
       N       E                     dE             d eps       ncg     rms           ort
SDA:   1    -0.673877348273E+03    0.74628E-03   -0.65406E-03  2556   0.164E-02   0.000E+00
DMP:   2    -0.673877846562E+03   -0.49829E-03   -0.33650E-03  2556   0.514E-03   0.857E-03
DMP:   3    -0.673878070879E+03   -0.22432E-03   -0.87362E-04  2556   0.111E-03   0.280E-03
DMP:   4    -0.673878119439E+03   -0.48560E-04   -0.13640E-04  2556   0.248E-04   0.245E-04
DMP:   5    -0.673878123965E+03   -0.45254E-05   -0.39067E-05  2556   0.141E-04  -0.114E-04
  24 F= -.67387812E+03 E0= -.67386797E+03  d E =-.184025E-02  mag=     1.3759
       N       E                     dE             d eps       ncg     rms           ort
SDA:   1    -0.673878107097E+03    0.12342E-04   -0.25280E-04  2556   0.632E-04   0.000E+00
DMP:   2    -0.673878125480E+03   -0.18383E-04   -0.11074E-04  2556   0.167E-04   0.288E-04
DMP:   3    -0.673878132609E+03   -0.71284E-05   -0.31791E-05  2556   0.490E-05   0.798E-05
  25 F= -.67387813E+03 E0= -.67386798E+03  d E =-.184889E-02  mag=     1.3759
       N       E                     dE             d eps       ncg     rms           ort
SDA:   1    -0.673878134464E+03   -0.89841E-05   -0.88443E-06  2556   0.221E-05   0.000E+00
DMP:   2    -0.673878135145E+03   -0.68102E-06   -0.49383E-06  2556   0.768E-06   0.122E-05
  26 F= -.67387814E+03 E0= -.67386798E+03  d E =-.185143E-02  mag=     1.3759
       N       E                     dE             d eps       ncg     rms           ort
SDA:   1    -0.673805709787E+03    0.72425E-01   -0.59691E-01  2556   0.149E+00   0.000E+00
DMP:   2    -0.673851895086E+03   -0.46185E-01   -0.33022E-01  2556   0.513E-01   0.817E-01
DMP:   3    -0.673873901654E+03   -0.22007E-01   -0.82865E-02  2556   0.102E-01   0.275E-01
DMP:   4    -0.673878285296E+03   -0.43836E-02   -0.94310E-03  2556   0.190E-02   0.120E-02
DMP:   5    -0.673878408382E+03   -0.12309E-03   -0.27536E-03  2556   0.135E-02  -0.174E-02
DMP:   6    -0.673878538625E+03   -0.13024E-03   -0.39320E-03  2556   0.997E-03  -0.374E-04
DMP:   7    -0.673878827532E+03   -0.28891E-03   -0.23692E-03  2556   0.416E-03   0.462E-03
DMP:   8    -0.673878990077E+03   -0.16255E-03   -0.78759E-04  2556   0.113E-03   0.221E-03
DMP:   9    -0.673879038284E+03   -0.48207E-04   -0.18313E-04  2556   0.290E-04   0.440E-04
DMP:  10    -0.673879047541E+03   -0.92576E-05   -0.45783E-05  2556   0.113E-04   0.440E-06
  27 F= -.67387905E+03 E0= -.67386885E+03  d E =-.912396E-03  mag=     1.3753
       N       E                     dE             d eps       ncg     rms           ort
SDA:   1    -0.673878503317E+03    0.53497E-03   -0.43189E-03  2556   0.108E-02   0.000E+00
DMP:   2    -0.673878834647E+03   -0.33133E-03   -0.22605E-03  2556   0.345E-03   0.577E-03
DMP:   3    -0.673878984873E+03   -0.15023E-03   -0.56852E-04  2556   0.711E-04   0.186E-03
DMP:   4    -0.673879016158E+03   -0.31285E-04   -0.89310E-05  2556   0.169E-04   0.143E-04
DMP:   5    -0.673879019124E+03   -0.29658E-05   -0.26339E-05  2556   0.945E-05  -0.750E-05
  28 F= -.67387902E+03 E0= -.67386882E+03  d E =-.883978E-03  mag=     1.3752
       N       E                     dE             d eps       ncg     rms           ort
SDA:   1    -0.673877513554E+03    0.15026E-02   -0.11931E-02  2556   0.298E-02   0.000E+00
DMP:   2    -0.673878428782E+03   -0.91523E-03   -0.62526E-03  2556   0.954E-03   0.159E-02
DMP:   3    -0.673878846634E+03   -0.41785E-03   -0.16200E-03  2556   0.204E-03   0.526E-03
DMP:   4    -0.673878937172E+03   -0.90538E-04   -0.25694E-04  2556   0.460E-04   0.477E-04
DMP:   5    -0.673878945801E+03   -0.86297E-05   -0.68211E-05  2556   0.251E-04  -0.211E-04
  29 F= -.67387895E+03 E0= -.67386875E+03  d E =-.810656E-03  mag=     1.3752
       N       E                     dE             d eps       ncg     rms           ort
SDA:   1    -0.673868362168E+03    0.10575E-01   -0.84555E-02  2556   0.211E-01   0.000E+00
DMP:   2    -0.673874866450E+03   -0.65043E-02   -0.44983E-02  2556   0.690E-02   0.114E-01
DMP:   3    -0.673877872117E+03   -0.30057E-02   -0.11544E-02  2556   0.144E-02   0.378E-02
DMP:   4    -0.673878508201E+03   -0.63608E-03   -0.16791E-03  2556   0.307E-03   0.295E-03
DMP:   5    -0.673878556718E+03   -0.48516E-04   -0.45164E-04  2556   0.181E-03  -0.177E-03
DMP:   6    -0.673878577837E+03   -0.21119E-04   -0.47931E-04  2556   0.123E-03  -0.735E-05
DMP:   7    -0.673878612047E+03   -0.34210E-04   -0.28615E-04  2556   0.520E-04   0.513E-04
DMP:   8    -0.673878631704E+03   -0.19657E-04   -0.10416E-04  2556   0.158E-04   0.268E-04
DMP:   9    -0.673878638322E+03   -0.66181E-05   -0.29565E-05  2556   0.469E-05   0.707E-05
  30 F= -.67387864E+03 E0= -.67386846E+03  d E =-.503177E-03  mag=     1.3755
