 vasp.6.5.1 10Mar25 (build May 13 2025 11:33:44) complex                         
 executed on              LinuxNV date 2026.05.13  11:35:03
 running    2 mpi-ranks, on    1 nodes
 distrk:  each k-point on    1 cores,    2 groups
 distr:  one band on NCORE=   1 cores,    1 groups
 Offloading initialized ...    2 GPUs detected


--------------------------------------------------------------------------------------------------------


 INCAR:
   ALGO = Normal
   PREC = Normal
   LREAL = False
   EDIFF = 1e-07
   ENCUT = 400.0
   LASPH = True
   NELM = 100
   ISIF = 3
   IBRION = 2
   EDIFFG = -0.005
   NSW = 300
   ISMEAR = 0
   SIGMA = 0.1
   LWAVE = False
   LCHARG = False
   LORBIT = 10
   GGA = Ps
   KPAR = 4

 POTCAR:    PAW_PBE Cs_sv 08Apr2002               
 POTCAR:    PAW_PBE Cs_sv 08Apr2002               
   SHA256 =  c1463496f0f6037ed62c6012a8013a89ee9ad6ffb38599dcd6c079e7ed31779b Cs_sv/POTCAR          
   COPYR  = (c) Copyright 08Apr2002 Georg Kresse                                                    
   COPYR  = This file is part of the software VASP. Any use, copying, and all other rights are regul
   COPYR  = If you do not have a valid VASP license, you may not use, copy or distribute this file. 
   VRHFIN =Cs: 5s5p6s                                                                               
   LEXCH  = PE                                                                                      
   EATOM  =   555.6835 eV,   40.8416 Ry                                                             
                                                                                                    
   TITEL  = PAW_PBE Cs_sv 08Apr2002                                                                 
   LULTRA =        F    use ultrasoft PP ?                                                          
   IUNSCR =        1    unscreen: 0-lin 1-nonlin 2-no                                               
   RPACOR =    2.200    partial core radius                                                         
   POMASS =  132.900; ZVAL   =    9.000    mass and valenz                                          
   RCORE  =    2.500    outmost cutoff radius                                                       
   RWIGS  =    2.500; RWIGS  =    1.323    wigner-seitz radius (au A)                               
   ENMAX  =  220.318; ENMIN  =  165.238 eV                                                          
   RCLOC  =    2.207    cutoff for local pot                                                        
   LCOR   =        T    correct aug charges                                                         
   LPAW   =        T    paw PP                                                                      
   EAUG   =  407.933                                                                                
   DEXC   =    0.000                                                                                
   RMAX   =    2.554    core radius for proj-oper                                                   
   RAUG   =    1.300    factor for augmentation sphere                                              
   RDEP   =    2.590    radius for radial grids                                                     
   RDEPT  =    2.117    core radius for aug-charge                                                  
                                                                                                    
   Atomic configuration                                                                             
   13 entries                                                                                       
     n  l   j            E        occ.                                                              
     1  0  0.50    -35790.1377   2.0000                                                             
     2  0  0.50     -5613.6201   2.0000                                                             
     2  1  1.50     -5035.0101   6.0000                                                             
     3  0  0.50     -1167.0767   2.0000                                                             
     3  1  1.50      -980.9754   6.0000                                                             
     3  2  2.50      -708.0703  10.0000                                                             
     4  0  0.50      -220.2386   2.0000                                                             
     4  1  1.50      -160.7596   6.0000                                                             
     4  2  2.50       -74.2354  10.0000                                                             
     5  0  0.50       -26.7287   2.0000                                                             
     6  0  0.50        -2.0862   1.0000                                                             
     5  1  1.50       -13.5159   6.0000                                                             
     5  2  2.50        -0.4136   0.0000                                                             
   Description                                                                                      
     l       E           TYP  RCUT    TYP  RCUT                                                     
     0    -26.7287425     23  1.900                                                                 
     0     -2.0862306     23  1.900                                                                 
     1    -13.5158719     23  2.500                                                                 
     1     -2.7211652     23  2.500                                                                 
     2     -0.4136171     23  2.500                                                                 
  local pseudopotential read in
  partial core-charges read in
  partial kinetic energy density read in
  atomic valenz-charges read in
  non local Contribution for L=            0  read in
    real space projection operators read in
  non local Contribution for L=            0  read in
    real space projection operators read in
  non local Contribution for L=            1  read in
    real space projection operators read in
  non local Contribution for L=            1  read in
    real space projection operators read in
  non local Contribution for L=            2  read in
    real space projection operators read in
    PAW grid and wavefunctions read in
 
   number of l-projection  operators is LMAX  =            5
   number of lm-projection operators is LMMAX =           13
 
 -----------------------------------------------------------------------------
|                                                                             |
|               ----> ADVICE to this user running VASP <----                  |
|                                                                             |
|     You enforced a specific xc type in the INCAR file but a different       |
|     type was found in the POTCAR file.                                      |
|     I HOPE YOU KNOW WHAT YOU ARE DOING!                                     |
|                                                                             |
 -----------------------------------------------------------------------------

  PAW_PBE Cs_sv 08Apr2002               :
 energy of atom  1       EATOM= -555.6835
 kinetic energy error for atom=    0.0041 (will be added to EATOM!!)
 
 
 POSCAR: Cs8
  positions in direct lattice
  No initial velocities read in


 exchange-correlation table for PS
   RHO(1)=    0.500       N(1)  =     2000
   RHO(2)=  100.500       N(2)  =     4000
 


--------------------------------------------------------------------------------------------------------


 ion  position               nearest neighbor table
   1  0.250  0.750  0.249-
   2  0.253  0.253  0.000-
   3  0.753  0.753  0.500-
   4  0.750  0.250  0.751-
   5  0.250  0.750  0.749-
   6  0.747  0.747  0.000-
   7  0.750  0.250  0.251-
   8  0.247  0.247  0.500-
 
  LATTYP: Found a base centered orthorhombic cell.
 ALAT       =    11.8458393316
 B/A-ratio  =     1.1942758474
 C/A-ratio  =     0.9904382300
  
  Lattice vectors:
  
 A1 = (  -7.0735999032,  -5.9229196658,   0.0000000000)
 A2 = (   7.0735999032,  -5.9229196658,   0.0000000000)
 A3 = (   0.0000000000,   0.0000000000,  11.7325721400)


Analysis of symmetry for initial positions (statically):
=====================================================================
 Subroutine PRICEL returns:
 Original cell was already a primitive cell.
 

 Routine SETGRP: Setting up the symmetry group for a 
 base centered orthorhombic supercell.


 Subroutine GETGRP returns: Found  8 space group operations
 (whereof  4 operations were pure point group operations)
 out of a pool of  8 trial point group operations.


The static configuration has the point symmetry C_2h.
 The point group associated with its full space group is D_2h.


Analysis of symmetry for dynamics (positions and initial velocities):
=====================================================================
 Subroutine PRICEL returns:
 Original cell was already a primitive cell.
 

 Routine SETGRP: Setting up the symmetry group for a 
 base centered orthorhombic supercell.


 Subroutine GETGRP returns: Found  8 space group operations
 (whereof  4 operations were pure point group operations)
 out of a pool of  8 trial point group operations.


The dynamic configuration has the point symmetry C_2h.
 The point group associated with its full space group is D_2h.


 Subroutine INISYM returns: Found  8 space group operations
 (whereof  4 operations are pure point group operations),
 and found     1 'primitive' translations


----------------------------------------------------------------------------------------

                                     Primitive cell                                     

  volume of cell :     983.1042

  direct lattice vectors                    reciprocal lattice vectors
     7.073599903 -5.922919666  0.000000000     0.070685366 -0.084417826  0.000000000
     7.073599903  5.922919666  0.000000000     0.070685366  0.084417826 -0.000000000
     0.000000000  0.000000000 11.732572140    -0.000000000  0.000000000  0.085232802

  length of vectors
     9.225876270  9.225876270 11.732572140     0.110103544  0.110103544  0.085232802

  position of ions in fractional coordinates (direct lattice)
     0.250432690  0.749567310  0.248697200
     0.252645930  0.252645930  0.000000000
     0.752645930  0.752645930  0.500000000
     0.749567310  0.250432690  0.751302800
     0.249567310  0.750432690  0.748697200
     0.747354070  0.747354070  0.000000000
     0.750432690  0.249567310  0.251302800
     0.247354070  0.247354070  0.500000000

  ion indices of the primitive-cell ions
   primitive index   ion index
                 1           1
                 2           2
                 3           3
                 4           4
                 5           5
                 6           6
                 7           7
                 8           8

----------------------------------------------------------------------------------------

 
 
 KPOINTS: Num irrep kpoints: 12                   

Automatic generation of k-mesh.
 Grid dimensions read from file:
 generate k-points for:    4    4    3

 Generating k-lattice:

  Cartesian coordinates                     Fractional coordinates (reciprocal lattice)
     0.017671342 -0.021104456  0.000000000     0.250000000 -0.000000000  0.000000000
     0.017671342  0.021104456 -0.000000000    -0.000000000  0.250000000  0.000000000
    -0.000000000  0.000000000  0.028410934     0.000000000  0.000000000  0.333333333

  Length of vectors
     0.027525886  0.027525886  0.028410934

  Shift w.r.t. Gamma in fractional coordinates (k-lattice)
     0.500000000  0.500000000  0.000000000

 
 Subroutine IBZKPT returns following result:
 ===========================================
 
 Found     12 irreducible k-points:
 
 Following reciprocal coordinates:
            Coordinates               Weight
  0.125000  0.125000  0.000000      2.000000
  0.375000  0.125000  0.000000      4.000000
 -0.375000  0.125000  0.000000      4.000000
 -0.125000  0.125000  0.000000      2.000000
  0.375000  0.375000  0.000000      2.000000
 -0.375000  0.375000  0.000000      2.000000
  0.125000  0.125000  0.333333      4.000000
  0.375000  0.125000  0.333333      8.000000
 -0.375000  0.125000  0.333333      8.000000
 -0.125000  0.125000  0.333333      4.000000
  0.375000  0.375000  0.333333      4.000000
 -0.375000  0.375000  0.333333      4.000000
 
 Following cartesian coordinates:
            Coordinates               Weight
  0.017671  0.000000  0.000000      2.000000
  0.035343 -0.021104  0.000000      4.000000
 -0.017671  0.042209  0.000000      4.000000
  0.000000  0.021104  0.000000      2.000000
  0.053014  0.000000  0.000000      2.000000
  0.000000  0.063313  0.000000      2.000000
  0.017671  0.000000  0.028411      4.000000
  0.035343 -0.021104  0.028411      8.000000
 -0.017671  0.042209  0.028411      8.000000
  0.000000  0.021104  0.028411      4.000000
  0.053014  0.000000  0.028411      4.000000
  0.000000  0.063313  0.028411      4.000000
 


--------------------------------------------------------------------------------------------------------




 Dimension of arrays:
   k-points           NKPTS =     12   k-points in BZ     NKDIM =     12   number of bands    NBANDS=     43
   number of dos      NEDOS =    301   number of ions     NIONS =      8
   non local maximal  LDIM  =      5   non local SUM 2l+1 LMDIM =     13
   total plane-waves  NPLWV = 138240
   max r-space proj   IRMAX =      1   max aug-charges    IRDMAX=   7229
   dimension x,y,z NGX =    48 NGY =   48 NGZ =   60
   dimension x,y,z NGXF=    96 NGYF=   96 NGZF=  120
   support grid    NGXF=    96 NGYF=   96 NGZF=  120
   ions per type =               8
   NGX,Y,Z   is equivalent  to a cutoff of   8.65,  8.65,  8.50 a.u.
   NGXF,Y,Z  is equivalent  to a cutoff of  17.30, 17.30, 17.00 a.u.

 SYSTEM =  unknown system                          
 POSCAR =  Cs8                                     

 Startparameter for this run:
   NWRITE =      2    write-flag & timer
   PREC   = normal    normal or accurate (medium, high low for compatibility)
   ISTART =      0    job   : 0-new  1-cont  2-samecut
   ICHARG =      2    charge: 1-file 2-atom 10-const
   ISPIN  =      1    spin polarized calculation?
   LNONCOLLINEAR =      F non collinear calculations
   LSORBIT =      F    spin-orbit coupling
   INIWAV =      1    electr: 0-lowe 1-rand  2-diag
   LASPH  =      T    aspherical Exc in radial PAW
 Electronic Relaxation 1
   ENCUT  =  400.0 eV  29.40 Ry    5.42 a.u.  15.05 15.05 19.13*2*pi/ulx,y,z
   ENINI  =  400.0     initial cutoff
   ENAUG  =  407.9 eV  augmentation charge cutoff
   NELM   =    100;   NELMIN=  2; NELMDL= -5     # of ELM steps 
   EDIFF  = 0.1E-06   stopping-criterion for ELM
   LREAL  =      F    real-space projection
   NLSPLINE    = F    spline interpolate recip. space projectors
   LCOMPAT=      F    compatible to vasp.4.4
   GGA_COMPAT  = T    GGA compatible to vasp.4.4-vasp.4.6
   LMAXPAW     = -100 max onsite density
   LMAXMIX     =    2 max onsite mixed and CHGCAR
   VOSKOWN=      0    Vosko Wilk Nusair interpolation
   ROPT   =    0.00000
 Ionic relaxation
   EDIFFG = -.5E-02   stopping-criterion for IOM
   NSW    =    300    number of steps for IOM
   NBLOCK =      1;   KBLOCK =    300    inner block; outer block 
   IBRION =      2    ionic relax: 0-MD 1-quasi-New 2-CG
   NFREE  =      1    steps in history (QN), initial steepest desc. (CG)
   ISIF   =      3    stress and relaxation
   IWAVPR =     11    prediction:  0-non 1-charg 2-wave 3-comb
   ISYM   =      2    0-nonsym 1-usesym 2-fastsym
   LCORR  =      T    Harris-Foulkes like correction to forces

   POTIM  = 0.5000    time-step for ionic-motion
   TEIN   =    0.0    initial temperature
   TEBEG  =    0.0;   TEEND  =   0.0 temperature during run
   SMASS  =  -3.00    Nose mass-parameter (am)
   estimated Nose-frequenzy (Omega)   =  0.10E-29 period in steps = 0.13E+47 mass=  -0.195E-26a.u.
   SCALEE = 1.0000    scale energy and forces
   NPACO  =    256;   APACO  = 10.0  distance and # of slots for P.C.
   PSTRESS=    0.0 pullay stress

  Mass of Ions in am
   POMASS = 132.90
  Ionic Valenz
   ZVAL   =   9.00
  Atomic Wigner-Seitz radii
   RWIGS  =  -1.00
  virtual crystal weights 
   VCA    =   1.00
   NELECT =      72.0000    total number of electrons
   NUPDOWN=      -1.0000    fix difference up-down

 DOS related values:
   EMIN   =  10.00;   EMAX   =-10.00  energy-range for DOS
   EFERMI =   0.00;   METHOD = LEGACY      
   ISMEAR =     0;   SIGMA  =   0.10  broadening in eV -4-tet -1-fermi 0-gaus
   EFERMI_NEDOS =   21; number of points for ismear=-14 and -15

 Electronic relaxation 2 (details)
   IALGO  =     38    algorithm
   LDIAG  =      T    sub-space diagonalisation (order eigenvalues)
   LSUBROT=      F    optimize rotation matrix (better conditioning)
   LROBUST=      F    robust break criterion during scf (extrapolated energy error)
   ISEARCH=      0    line search for conjugate gradient (0, 1=use gradient)
   TURBO    =      0    0=normal 1=particle mesh
   IRESTART =      0    0=no restart 2=restart with 2 vectors
   NREBOOT  =      0    no. of reboots
   NMIN     =      0    reboot dimension
   EREF     =   0.00    reference energy to select bands
   IMIX   =      4    mixing-type and parameters
     AMIX     =   0.40;   BMIX     =  1.00
     AMIX_MAG =   1.60;   BMIX_MAG =  1.00
     AMIN     =   0.10
     WC   =   100.;   INIMIX=   1;  MIXPRE=   1;  MAXMIX= -45

 Intra band minimization:
   WEIMIN = 0.0010     energy-eigenvalue tresh-hold
   EBREAK =  0.58E-09  absolut break condition
   DEPER  =   0.30     relativ break condition  

   TIME   =   0.40     timestep for ELM

  volume/ion in A,a.u.               =     122.89       829.29
  Fermi-wavevector in a.u.,A,eV,Ry     =   0.684940  1.294349  6.383074  0.469143
  Thomas-Fermi vector in A             =   1.764738
 
 Write flags
   LWAVE        =      F    write WAVECAR
   LDOWNSAMPLE  =      F    k-point downsampling of WAVECAR
   LCHARG       =      F    write CHGCAR
   LVTOT        =      F    write LOCPOT, total local potential
   LVHAR        =      F    write LOCPOT, Hartree potential only
   WRT_POTENTIAL= false  ! write potential to hdf5 file
   LELF         =      F    write electronic localiz. function (ELF)
   LORBIT       =     10    0 simple, 1 ext, 2 COOP (PROOUT), +10 PAW based schemes


 Python interface
   PLUGINS active      =      F    recompile with -DPLUGINS to activate
 
 Dipole corrections
   LMONO      =      F    monopole corrections only (constant potential shift)
   LDIPOL     =      F    correct potential (dipole corrections)
   IDIPOL     =      0    1-x, 2-y, 3-z, 4-all directions 
   EPSILON    =  1.0000000 bulk dielectric constant
   LVACPOTAV  =      F  vacuum potentials using an averaging scheme for the charge density
   VACPOTFLAT =  0.1000000 required flatness to determine vacuum potential
 
Coulomb truncation method
  LTRUNCATE          =      F  Coulomb kernel truncation to be used

 
 Exchange correlation treatment:
   GGA     = PS    functional components
   XC_C    = 1    coefficients multiplying the functional components
   LIBXC   =     F    Libxc                    
   VOSKOWN =     0    Vosko Wilk Nusair interpolation
   LHFCALC =     F    Hartree Fock is set to
   LHFONE  =     F    Hartree Fock one center treatment
   AEXX    =    0.0000 exact exchange contribution

 Parameters of functionals:
   PS:
     No parameter
 
 Van der Waals corrections
   IVDW    =     0    specifies the selected vdW correction

 Linear response parameters
   LEPSILON=     F    determine dielectric tensor
   LRPA    =     F    only Hartree local field effects (RPA)
   LNABLA  =     F    use nabla operator in PAW spheres
   LVEL    =     F    velocity operator in full k-point grid
   CSHIFT  =0.1000    complex shift for real part using Kramers Kronig
   OMEGAMAX=  -1.0    maximum frequency
   DEG_THRESHOLD= 0.2000000E-02 threshold for treating states as degnerate
   RTIME   =   -0.100 relaxation time in fs
  (WPLASMAI=    0.000 imaginary part of plasma frequency in eV, 0.658/RTIME)
   DFIELD  = 0.0000000 0.0000000 0.0000000 field for delta impulse in time
 
  Optional k-point grid parameters
   LKPOINTS_OPT  =     F    use optional k-point grid
   KPOINTS_OPT_MODE=     1    mode for optional k-point grid
 
 Orbital magnetization related:
   ORBITALMAG=     F  switch on orbital magnetization
   LCHIMAG   =     F  perturbation theory with respect to B field
   DQ        =  0.001000  dq finite difference perturbation B field
   LLRAUG    =     F  two centre corrections for induced B field
   LBONE     =     F  B-component reconstruction in AE one-centre
   LVGVCALC  =     T  calculate vGv susceptibility
   LVGVAPPL  =     F  apply vGv susceptibility instead of pGv for G=0

 Random number generation:
   RANDOM_GENERATOR = DEFAULT
   PCG_SEED         = not used


--------------------------------------------------------------------------------------------------------


 conjugate gradient relaxation of ions
 charge density and potential will be updated during run
 non-spin polarized calculation
 Variant of blocked Davidson
 Davidson routine will perform the subspace rotation
 perform sub-space diagonalisation
    after iterative eigenvector-optimisation
 modified Broyden-mixing scheme, WC =      100.0
 initial mixing is a Kerker type mixing with AMIX =  0.4000 and BMIX =      1.0000
 Hartree-type preconditioning will be used
 using additional bands             7
 reciprocal scheme for non local part
 use partial core corrections
 calculate Harris-corrections to forces 
   (improved forces if not selfconsistent)
 use gradient corrections 
 use of overlap-Matrix (Vanderbilt PP)
 Gauss-broadening in eV      SIGMA  =   0.10


--------------------------------------------------------------------------------------------------------


  energy-cutoff  :      400.00
  volume of cell :      983.10
      direct lattice vectors                 reciprocal lattice vectors
     7.073599903 -5.922919666  0.000000000     0.070685366 -0.084417826  0.000000000
     7.073599903  5.922919666  0.000000000     0.070685366  0.084417826 -0.000000000
     0.000000000  0.000000000 11.732572140    -0.000000000  0.000000000  0.085232802

  length of vectors
     9.225876270  9.225876270 11.732572140     0.110103544  0.110103544  0.085232802


 
 k-points in units of 2pi/SCALE and weight: Num irrep kpoints: 12                   
   0.01767134  0.00000000  0.00000000       0.042
   0.03534268 -0.02110446  0.00000000       0.083
  -0.01767134  0.04220891  0.00000000       0.083
   0.00000000  0.02110446  0.00000000       0.042
   0.05301402 -0.00000000  0.00000000       0.042
   0.00000000  0.06331337  0.00000000       0.042
   0.01767134  0.00000000  0.02841093       0.083
   0.03534268 -0.02110446  0.02841093       0.167
  -0.01767134  0.04220891  0.02841093       0.167
   0.00000000  0.02110446  0.02841093       0.083
   0.05301402 -0.00000000  0.02841093       0.083
   0.00000000  0.06331337  0.02841093       0.083
 
 k-points in reciprocal lattice and weights: Num irrep kpoints: 12                   
   0.12500000  0.12500000  0.00000000       0.042
   0.37500000  0.12500000  0.00000000       0.083
  -0.37500000  0.12500000  0.00000000       0.083
  -0.12500000  0.12500000  0.00000000       0.042
   0.37500000  0.37500000  0.00000000       0.042
  -0.37500000  0.37500000  0.00000000       0.042
   0.12500000  0.12500000  0.33333333       0.083
   0.37500000  0.12500000  0.33333333       0.167
  -0.37500000  0.12500000  0.33333333       0.167
  -0.12500000  0.12500000  0.33333333       0.083
   0.37500000  0.37500000  0.33333333       0.083
  -0.37500000  0.37500000  0.33333333       0.083
 
 position of ions in fractional coordinates (direct lattice) 
   0.25043269  0.74956731  0.24869720
   0.25264593  0.25264593  0.00000000
   0.75264593  0.75264593  0.50000000
   0.74956731  0.25043269  0.75130280
   0.24956731  0.75043269  0.74869720
   0.74735407  0.74735407  0.00000000
   0.75043269  0.24956731  0.25130280
   0.24735407  0.24735407  0.50000000
 
 position of ions in cartesian coordinates  (Angst):
   7.07359990  2.95633426  2.91785784
   3.57423245  0.00000000  0.00000000
  10.64783236 -0.00000000  5.86628607
   7.07359990 -2.95633426  8.81471430
   7.07359990  2.96658541  8.78414391
  10.57296735  0.00000000  0.00000000
   7.07359990 -2.96658541  2.94842823
   3.49936745 -0.00000000  5.86628607
 


--------------------------------------------------------------------------------------------------------


 k-point     1 :   0.1250 0.1250 0.0000  plane waves:   17849
 k-point     2 :   0.3750 0.1250 0.0000  plane waves:   17861
 k-point     3 :  -0.3750 0.1250 0.0000  plane waves:   17852
 k-point     4 :  -0.1250 0.1250 0.0000  plane waves:   17829
 k-point     5 :   0.3750 0.3750 0.0000  plane waves:   17859
 k-point     6 :  -0.3750 0.3750 0.0000  plane waves:   17868
 k-point     7 :   0.1250 0.1250 0.3333  plane waves:   17863
 k-point     8 :   0.3750 0.1250 0.3333  plane waves:   17866
 k-point     9 :  -0.3750 0.1250 0.3333  plane waves:   17853
 k-point    10 :  -0.1250 0.1250 0.3333  plane waves:   17848
 k-point    11 :   0.3750 0.3750 0.3333  plane waves:   17893
 k-point    12 :  -0.3750 0.3750 0.3333  plane waves:   17873

 maximum and minimum number of plane-waves per node :     17893    17829

 maximum number of plane-waves:     17893
 maximum index in each direction: 
   IXMAX=   15   IYMAX=   14   IZMAX=   19
   IXMIN=  -15   IYMIN=  -15   IZMIN=  -19


 serial   3D FFT for wavefunctions
 parallel 3D FFT for charge:
    minimum data exchange during FFTs selected (reduces bandwidth)


 total amount of memory used by VASP MPI-rank0   300767. kBytes
=======================================================================

   base                                    :      30000. kBytes
   nonl-proj                               :      24620. kBytes
   fftplans                                :      38260. kBytes
   grid                                    :      59240. kBytes
   one-center                              :         64. kBytes
   wavefun                                 :     148583. kBytes
 
     INWAV:  cpu time      0.0000: real time      0.0000
 Broyden mixing: mesh for mixing (old mesh)
   NGX = 31   NGY = 31   NGZ = 39
  (NGX  = 96   NGY  = 96   NGZ  =120)
  gives a total of  37479 points

 initial charge density was supplied:
 charge density of overlapping atoms calculated
 number of electron      72.0000000 magnetization 
 keeping initial charge density in first step


--------------------------------------------------------------------------------------------------------


 Maximum index for augmentation-charges          6839 (set IRDMAX)


--------------------------------------------------------------------------------------------------------


 First call to EWALD:  gamma=   0.178
 Maximum number of real-space cells   3x   3x   2
 Maximum number of reciprocal cells   3x   3x   3

    FEWALD:  cpu time      0.0022: real time      0.0022


--------------------------------------- Ionic step        1  -------------------------------------------




--------------------------------------- Iteration      1(   1)  ---------------------------------------


    POTLOK:  cpu time      0.0276: real time      0.0283
    SETDIJ:  cpu time      0.2082: real time      0.2088
     EDDAV:  cpu time      0.4273: real time      0.4826
       DOS:  cpu time      0.0005: real time      0.0005
    --------------------------------------------
      LOOP:  cpu time      0.6637: real time      0.7201

 eigenvalue-minimisations  :  1112
 total energy-change (2. order) : 0.5559671E+03  (-0.2139033E+04)
 number of electron      72.0000000 magnetization 
 augmentation part       72.0000000 magnetization 

 Free energy of the ion-electron system (eV)
  ---------------------------------------------------
  alpha Z        PSCENC =       117.02586991
  Ewald energy   TEWEN  =     -2710.05221124
  -Hartree energ DENC   =     -1128.89805453
  -exchange      EXHF   =         0.00000000
  -V(xc)+E(xc)   XCENC  =        82.21916462
  PAW double counting   =      3395.06172738    -3338.40379319
  entropy T*S    EENTRO =        -0.01808469
  eigenvalues    EBANDS =      -306.68813855
  atomic energy  EATOM  =      4445.72066967
  Solvation  Ediel_sol  =         0.00000000
  ---------------------------------------------------
  free energy    TOTEN  =       555.96714938 eV

  energy without entropy =      555.98523407  energy(sigma->0) =      555.97619172


--------------------------------------------------------------------------------------------------------




--------------------------------------- Iteration      1(   2)  ---------------------------------------


     EDDAV:  cpu time      0.3029: real time      0.3040
       DOS:  cpu time      0.0004: real time      0.0004
    --------------------------------------------
      LOOP:  cpu time      0.3033: real time      0.3044

 eigenvalue-minimisations  :  1461
 total energy-change (2. order) :-0.4745452E+03  (-0.4696837E+03)
 number of electron      72.0000000 magnetization 
 augmentation part       72.0000000 magnetization 

 Free energy of the ion-electron system (eV)
  ---------------------------------------------------
  alpha Z        PSCENC =       117.02586991
  Ewald energy   TEWEN  =     -2710.05221124
  -Hartree energ DENC   =     -1128.89805453
  -exchange      EXHF   =         0.00000000
  -V(xc)+E(xc)   XCENC  =        82.21916462
  PAW double counting   =      3395.06172738    -3338.40379319
  entropy T*S    EENTRO =        -0.04021604
  eigenvalues    EBANDS =      -781.21120085
  atomic energy  EATOM  =      4445.72066967
  Solvation  Ediel_sol  =         0.00000000
  ---------------------------------------------------
  free energy    TOTEN  =        81.42195573 eV

  energy without entropy =       81.46217176  energy(sigma->0) =       81.44206375


--------------------------------------------------------------------------------------------------------




--------------------------------------- Iteration      1(   3)  ---------------------------------------


     EDDAV:  cpu time      0.2695: real time      0.2706
       DOS:  cpu time      0.0004: real time      0.0004
    --------------------------------------------
      LOOP:  cpu time      0.2699: real time      0.2709

 eigenvalue-minimisations  :  1240
 total energy-change (2. order) :-0.8660084E+02  (-0.8636690E+02)
 number of electron      72.0000000 magnetization 
 augmentation part       72.0000000 magnetization 

 Free energy of the ion-electron system (eV)
  ---------------------------------------------------
  alpha Z        PSCENC =       117.02586991
  Ewald energy   TEWEN  =     -2710.05221124
  -Hartree energ DENC   =     -1128.89805453
  -exchange      EXHF   =         0.00000000
  -V(xc)+E(xc)   XCENC  =        82.21916462
  PAW double counting   =      3395.06172738    -3338.40379319
  entropy T*S    EENTRO =        -0.04098095
  eigenvalues    EBANDS =      -867.81127972
  atomic energy  EATOM  =      4445.72066967
  Solvation  Ediel_sol  =         0.00000000
  ---------------------------------------------------
  free energy    TOTEN  =        -5.17888806 eV

  energy without entropy =       -5.13790711  energy(sigma->0) =       -5.15839759


--------------------------------------------------------------------------------------------------------




--------------------------------------- Iteration      1(   4)  ---------------------------------------


     EDDAV:  cpu time      0.2688: real time      0.2699
       DOS:  cpu time      0.0004: real time      0.0004
    --------------------------------------------
      LOOP:  cpu time      0.2692: real time      0.2703

 eigenvalue-minimisations  :  1232
 total energy-change (2. order) :-0.2309084E+01  (-0.2301505E+01)
 number of electron      72.0000000 magnetization 
 augmentation part       72.0000000 magnetization 

 Free energy of the ion-electron system (eV)
  ---------------------------------------------------
  alpha Z        PSCENC =       117.02586991
  Ewald energy   TEWEN  =     -2710.05221124
  -Hartree energ DENC   =     -1128.89805453
  -exchange      EXHF   =         0.00000000
  -V(xc)+E(xc)   XCENC  =        82.21916462
  PAW double counting   =      3395.06172738    -3338.40379319
  entropy T*S    EENTRO =        -0.05175821
  eigenvalues    EBANDS =      -870.10958609
  atomic energy  EATOM  =      4445.72066967
  Solvation  Ediel_sol  =         0.00000000
  ---------------------------------------------------
  free energy    TOTEN  =        -7.48797169 eV

  energy without entropy =       -7.43621348  energy(sigma->0) =       -7.46209258


--------------------------------------------------------------------------------------------------------




--------------------------------------- Iteration      1(   5)  ---------------------------------------


     EDDAV:  cpu time      0.2694: real time      0.2704
       DOS:  cpu time      0.0004: real time      0.0004
    CHARGE:  cpu time      0.2329: real time      0.2529
    MIXING:  cpu time      0.0163: real time      0.0164
    --------------------------------------------
      LOOP:  cpu time      0.5190: real time      0.5400

 eigenvalue-minimisations  :  1248
 total energy-change (2. order) :-0.2265097E-01  (-0.2263398E-01)
 number of electron      72.0000043 magnetization 
 augmentation part      -16.0921981 magnetization 

 Broyden mixing:
  rms(total) = 0.92530E-01    rms(broyden)= 0.92367E-01
  rms(prec ) = 0.10703E+00
  weight for this iteration     100.00

 Free energy of the ion-electron system (eV)
  ---------------------------------------------------
  alpha Z        PSCENC =       117.02586991
  Ewald energy   TEWEN  =     -2710.05221124
  -Hartree energ DENC   =     -1128.89805453
  -exchange      EXHF   =         0.00000000
  -V(xc)+E(xc)   XCENC  =        82.21916462
  PAW double counting   =      3395.06172738    -3338.40379319
  entropy T*S    EENTRO =        -0.05218037
  eigenvalues    EBANDS =      -870.13181490
  atomic energy  EATOM  =      4445.72066967
  Solvation  Ediel_sol  =         0.00000000
  ---------------------------------------------------
  free energy    TOTEN  =        -7.51062265 eV

  energy without entropy =       -7.45844229  energy(sigma->0) =       -7.48453247


--------------------------------------------------------------------------------------------------------




--------------------------------------- Iteration      1(   6)  ---------------------------------------


    POTLOK:  cpu time      0.0076: real time      0.0079
    SETDIJ:  cpu time      0.1731: real time      0.1736
     EDDAV:  cpu time      0.2730: real time      0.2737
       DOS:  cpu time      0.0004: real time      0.0004
    CHARGE:  cpu time      0.0602: real time      0.0604
    MIXING:  cpu time      0.0166: real time      0.0167
    --------------------------------------------
      LOOP:  cpu time      0.5309: real time      0.5327

 eigenvalue-minimisations  :  1240
 total energy-change (2. order) :-0.5339058E-02  (-0.1181794E-02)
 number of electron      72.0000043 magnetization 
 augmentation part      -16.1056803 magnetization 

 Broyden mixing:
  rms(total) = 0.59001E-01    rms(broyden)= 0.58991E-01
  rms(prec ) = 0.69814E-01
  weight for this iteration     100.00

 eigenvalues of (default mixing * dielectric matrix)
  average eigenvalue GAMMA=   2.6277
  2.6277

 Free energy of the ion-electron system (eV)
  ---------------------------------------------------
  alpha Z        PSCENC =       117.02586991
  Ewald energy   TEWEN  =     -2710.05221124
  -Hartree energ DENC   =     -1126.01074794
  -exchange      EXHF   =         0.00000000
  -V(xc)+E(xc)   XCENC  =        82.14196302
  PAW double counting   =      3434.01965011    -3377.46577503
  entropy T*S    EENTRO =        -0.05217466
  eigenvalues    EBANDS =      -872.84320557
  atomic energy  EATOM  =      4445.72066967
  Solvation  Ediel_sol  =         0.00000000
  ---------------------------------------------------
  free energy    TOTEN  =        -7.51596171 eV

  energy without entropy =       -7.46378705  energy(sigma->0) =       -7.48987438


--------------------------------------------------------------------------------------------------------




--------------------------------------- Iteration      1(   7)  ---------------------------------------


    POTLOK:  cpu time      0.0085: real time      0.0088
    SETDIJ:  cpu time      0.1691: real time      0.1694
     EDDAV:  cpu time      0.2660: real time      0.2668
       DOS:  cpu time      0.0004: real time      0.0004
    CHARGE:  cpu time      0.0532: real time      0.0533
    MIXING:  cpu time      0.0161: real time      0.0161
    --------------------------------------------
      LOOP:  cpu time      0.5133: real time      0.5149

 eigenvalue-minimisations  :  1216
 total energy-change (2. order) :-0.6586206E-02  (-0.2099947E-02)
 number of electron      72.0000043 magnetization 
 augmentation part      -16.1174902 magnetization 

 Broyden mixing:
  rms(total) = 0.95616E-02    rms(broyden)= 0.95588E-02
  rms(prec ) = 0.12898E-01
  weight for this iteration     100.00

 eigenvalues of (default mixing * dielectric matrix)
  average eigenvalue GAMMA=   2.3406
  1.5069  3.1743

 Free energy of the ion-electron system (eV)
  ---------------------------------------------------
  alpha Z        PSCENC =       117.02586991
  Ewald energy   TEWEN  =     -2710.05221124
  -Hartree energ DENC   =     -1121.26676791
  -exchange      EXHF   =         0.00000000
  -V(xc)+E(xc)   XCENC  =        82.04275310
  PAW double counting   =      3500.89193096    -3444.61546482
  entropy T*S    EENTRO =        -0.05213701
  eigenvalues    EBANDS =      -877.21719058
  atomic energy  EATOM  =      4445.72066967
  Solvation  Ediel_sol  =         0.00000000
  ---------------------------------------------------
  free energy    TOTEN  =        -7.52254792 eV

  energy without entropy =       -7.47041091  energy(sigma->0) =       -7.49647942


--------------------------------------------------------------------------------------------------------




--------------------------------------- Iteration      1(   8)  ---------------------------------------


    POTLOK:  cpu time      0.0074: real time      0.0077
    SETDIJ:  cpu time      0.1680: real time      0.1683
     EDDAV:  cpu time      0.2732: real time      0.2740
       DOS:  cpu time      0.0004: real time      0.0004
    CHARGE:  cpu time      0.0535: real time      0.0537
    MIXING:  cpu time      0.0163: real time      0.0164
    --------------------------------------------
      LOOP:  cpu time      0.5188: real time      0.5205

 eigenvalue-minimisations  :  1248
 total energy-change (2. order) :-0.7061896E-03  (-0.1047615E-03)
 number of electron      72.0000043 magnetization 
 augmentation part      -16.1178997 magnetization 

 Broyden mixing:
  rms(total) = 0.41234E-02    rms(broyden)= 0.41232E-02
  rms(prec ) = 0.46553E-02
  weight for this iteration     100.00

 eigenvalues of (default mixing * dielectric matrix)
  average eigenvalue GAMMA=   2.1746
  1.0217  3.0504  2.4518

 Free energy of the ion-electron system (eV)
  ---------------------------------------------------
  alpha Z        PSCENC =       117.02586991
  Ewald energy   TEWEN  =     -2710.05221124
  -Hartree energ DENC   =     -1120.72979418
  -exchange      EXHF   =         0.00000000
  -V(xc)+E(xc)   XCENC  =        82.05574043
  PAW double counting   =      3516.77517989    -3460.59797137
  entropy T*S    EENTRO =        -0.05210552
  eigenvalues    EBANDS =      -877.66863170
  atomic energy  EATOM  =      4445.72066967
  Solvation  Ediel_sol  =         0.00000000
  ---------------------------------------------------
  free energy    TOTEN  =        -7.52325411 eV

  energy without entropy =       -7.47114859  energy(sigma->0) =       -7.49720135


--------------------------------------------------------------------------------------------------------




--------------------------------------- Iteration      1(   9)  ---------------------------------------


    POTLOK:  cpu time      0.0076: real time      0.0079
    SETDIJ:  cpu time      0.1681: real time      0.1685
     EDDAV:  cpu time      0.2689: real time      0.2697
       DOS:  cpu time      0.0004: real time      0.0004
    CHARGE:  cpu time      0.0535: real time      0.0537
    MIXING:  cpu time      0.0167: real time      0.0167
    --------------------------------------------
      LOOP:  cpu time      0.5152: real time      0.5169

 eigenvalue-minimisations  :  1224
 total energy-change (2. order) :-0.2431698E-04  (-0.7118886E-05)
 number of electron      72.0000043 magnetization 
 augmentation part      -16.1164028 magnetization 

 Broyden mixing:
  rms(total) = 0.76143E-03    rms(broyden)= 0.76139E-03
  rms(prec ) = 0.10913E-02
  weight for this iteration     100.00

 eigenvalues of (default mixing * dielectric matrix)
  average eigenvalue GAMMA=   2.1192
  3.1431  2.7529  0.9563  1.6245

 Free energy of the ion-electron system (eV)
  ---------------------------------------------------
  alpha Z        PSCENC =       117.02586991
  Ewald energy   TEWEN  =     -2710.05221124
  -Hartree energ DENC   =     -1120.95776348
  -exchange      EXHF   =         0.00000000
  -V(xc)+E(xc)   XCENC  =        82.07300303
  PAW double counting   =      3519.19679314    -3463.03214987
  entropy T*S    EENTRO =        -0.05209126
  eigenvalues    EBANDS =      -877.44539834
  atomic energy  EATOM  =      4445.72066967
  Solvation  Ediel_sol  =         0.00000000
  ---------------------------------------------------
  free energy    TOTEN  =        -7.52327843 eV

  energy without entropy =       -7.47118716  energy(sigma->0) =       -7.49723279


--------------------------------------------------------------------------------------------------------




--------------------------------------- Iteration      1(  10)  ---------------------------------------


    POTLOK:  cpu time      0.0076: real time      0.0078
    SETDIJ:  cpu time      0.1690: real time      0.1693
     EDDAV:  cpu time      0.2689: real time      0.2696
       DOS:  cpu time      0.0004: real time      0.0004
    CHARGE:  cpu time      0.0534: real time      0.0536
    MIXING:  cpu time      0.0170: real time      0.0170
    --------------------------------------------
      LOOP:  cpu time      0.5163: real time      0.5178

 eigenvalue-minimisations  :  1232
 total energy-change (2. order) :-0.2631888E-05  (-0.1030501E-05)
 number of electron      72.0000043 magnetization 
 augmentation part      -16.1166630 magnetization 

 Broyden mixing:
  rms(total) = 0.24795E-03    rms(broyden)= 0.24794E-03
  rms(prec ) = 0.33979E-03
  weight for this iteration     100.00

 eigenvalues of (default mixing * dielectric matrix)
  average eigenvalue GAMMA=   2.1271
  3.5085  2.7673  2.2317  1.1665  0.9618

 Free energy of the ion-electron system (eV)
  ---------------------------------------------------
  alpha Z        PSCENC =       117.02586991
  Ewald energy   TEWEN  =     -2710.05221124
  -Hartree energ DENC   =     -1120.90526243
  -exchange      EXHF   =         0.00000000
  -V(xc)+E(xc)   XCENC  =        82.07069235
  PAW double counting   =      3520.60576323    -3464.43597654
  entropy T*S    EENTRO =        -0.05208917
  eigenvalues    EBANDS =      -877.50073684
  atomic energy  EATOM  =      4445.72066967
  Solvation  Ediel_sol  =         0.00000000
  ---------------------------------------------------
  free energy    TOTEN  =        -7.52328106 eV

  energy without entropy =       -7.47119188  energy(sigma->0) =       -7.49723647


--------------------------------------------------------------------------------------------------------




--------------------------------------- Iteration      1(  11)  ---------------------------------------


    POTLOK:  cpu time      0.0076: real time      0.0080
    SETDIJ:  cpu time      0.1887: real time      0.1891
     EDDAV:  cpu time      0.2735: real time      0.2742
       DOS:  cpu time      0.0004: real time      0.0004
    CHARGE:  cpu time      0.0536: real time      0.0538
    MIXING:  cpu time      0.0174: real time      0.0175
    --------------------------------------------
      LOOP:  cpu time      0.5413: real time      0.5429

 eigenvalue-minimisations  :  1248
 total energy-change (2. order) : 0.4269120E-06  (-0.1860079E-06)
 number of electron      72.0000043 magnetization 
 augmentation part      -16.1168913 magnetization 

 Broyden mixing:
  rms(total) = 0.95292E-04    rms(broyden)= 0.95291E-04
  rms(prec ) = 0.12609E-03
  weight for this iteration     100.00

 eigenvalues of (default mixing * dielectric matrix)
  average eigenvalue GAMMA=   2.1126
  3.5935  2.5682  2.5682  1.9196  1.0132  1.0132

 Free energy of the ion-electron system (eV)
  ---------------------------------------------------
  alpha Z        PSCENC =       117.02586991
  Ewald energy   TEWEN  =     -2710.05221124
  -Hartree energ DENC   =     -1120.87542162
  -exchange      EXHF   =         0.00000000
  -V(xc)+E(xc)   XCENC  =        82.06871105
  PAW double counting   =      3520.42294976    -3464.25073556
  entropy T*S    EENTRO =        -0.05208945
  eigenvalues    EBANDS =      -877.53102315
  atomic energy  EATOM  =      4445.72066967
  Solvation  Ediel_sol  =         0.00000000
  ---------------------------------------------------
  free energy    TOTEN  =        -7.52328063 eV

  energy without entropy =       -7.47119118  energy(sigma->0) =       -7.49723591


--------------------------------------------------------------------------------------------------------




--------------------------------------- Iteration      1(  12)  ---------------------------------------


    POTLOK:  cpu time      0.0079: real time      0.0082
    SETDIJ:  cpu time      0.1891: real time      0.1895
     EDDAV:  cpu time      0.2099: real time      0.2105
       DOS:  cpu time      0.0004: real time      0.0004
    CHARGE:  cpu time      0.0534: real time      0.0535
    MIXING:  cpu time      0.0180: real time      0.0181
    --------------------------------------------
      LOOP:  cpu time      0.4787: real time      0.4802

 eigenvalue-minimisations  :   824
 total energy-change (2. order) :-0.3175471E-06  (-0.1680067E-07)
 number of electron      72.0000043 magnetization 
 augmentation part      -16.1168479 magnetization 

 Broyden mixing:
  rms(total) = 0.28595E-04    rms(broyden)= 0.28595E-04
  rms(prec ) = 0.39281E-04
  weight for this iteration     100.00

 eigenvalues of (default mixing * dielectric matrix)
  average eigenvalue GAMMA=   2.0752
  3.5721  3.1243  2.5445  1.9146  1.0020  1.0020  1.3671

 Free energy of the ion-electron system (eV)
  ---------------------------------------------------
  alpha Z        PSCENC =       117.02586991
  Ewald energy   TEWEN  =     -2710.05221124
  -Hartree energ DENC   =     -1120.87918409
  -exchange      EXHF   =         0.00000000
  -V(xc)+E(xc)   XCENC  =        82.06879084
  PAW double counting   =      3520.02076748    -3463.84940196
  entropy T*S    EENTRO =        -0.05208943
  eigenvalues    EBANDS =      -877.52649213
  atomic energy  EATOM  =      4445.72066967
  Solvation  Ediel_sol  =         0.00000000
  ---------------------------------------------------
  free energy    TOTEN  =        -7.52328095 eV

  energy without entropy =       -7.47119152  energy(sigma->0) =       -7.49723623


--------------------------------------------------------------------------------------------------------




--------------------------------------- Iteration      1(  13)  ---------------------------------------


    POTLOK:  cpu time      0.0079: real time      0.0082
    SETDIJ:  cpu time      0.1890: real time      0.1894
     EDDAV:  cpu time      0.2002: real time      0.2006
       DOS:  cpu time      0.0004: real time      0.0004
    CHARGE:  cpu time      0.0536: real time      0.0538
    MIXING:  cpu time      0.0184: real time      0.0184
    --------------------------------------------
      LOOP:  cpu time      0.4695: real time      0.4709

 eigenvalue-minimisations  :   720
 total energy-change (2. order) : 0.1215876E-06  (-0.1691072E-08)
 number of electron      72.0000043 magnetization 
 augmentation part      -16.1168419 magnetization 

 Broyden mixing:
  rms(total) = 0.14629E-04    rms(broyden)= 0.14629E-04
  rms(prec ) = 0.18199E-04
  weight for this iteration     100.00

 eigenvalues of (default mixing * dielectric matrix)
  average eigenvalue GAMMA=   2.0307
  3.6446  2.7297  2.7297  2.0518  2.0518  1.1071  0.9655  0.9655

 Free energy of the ion-electron system (eV)
  ---------------------------------------------------
  alpha Z        PSCENC =       117.02586991
  Ewald energy   TEWEN  =     -2710.05221124
  -Hartree energ DENC   =     -1120.88009123
  -exchange      EXHF   =         0.00000000
  -V(xc)+E(xc)   XCENC  =        82.06869731
  PAW double counting   =      3519.95821819    -3463.78660754
  entropy T*S    EENTRO =        -0.05208957
  eigenvalues    EBANDS =      -877.52573634
  atomic energy  EATOM  =      4445.72066967
  Solvation  Ediel_sol  =         0.00000000
  ---------------------------------------------------
  free energy    TOTEN  =        -7.52328083 eV

  energy without entropy =       -7.47119126  energy(sigma->0) =       -7.49723604


--------------------------------------------------------------------------------------------------------




--------------------------------------- Iteration      1(  14)  ---------------------------------------


    POTLOK:  cpu time      0.0080: real time      0.0082
    SETDIJ:  cpu time      0.1844: real time      0.1849
     EDDAV:  cpu time      0.1857: real time      0.1862
       DOS:  cpu time      0.0004: real time      0.0004
    --------------------------------------------
      LOOP:  cpu time      0.3785: real time      0.3797

 eigenvalue-minimisations  :   672
 total energy-change (2. order) :-0.6313076E-07  (-0.2887199E-09)
 number of electron      72.0000043 magnetization 
 augmentation part      -16.1168419 magnetization 

 Free energy of the ion-electron system (eV)
  ---------------------------------------------------
  alpha Z        PSCENC =       117.02586991
  Ewald energy   TEWEN  =     -2710.05221124
  -Hartree energ DENC   =     -1120.88003484
  -exchange      EXHF   =         0.00000000
  -V(xc)+E(xc)   XCENC  =        82.06873988
  PAW double counting   =      3520.00271657    -3463.83122246
  entropy T*S    EENTRO =        -0.05208961
  eigenvalues    EBANDS =      -877.52571877
  atomic energy  EATOM  =      4445.72066967
  Solvation  Ediel_sol  =         0.00000000
  ---------------------------------------------------
  free energy    TOTEN  =        -7.52328089 eV

  energy without entropy =       -7.47119128  energy(sigma->0) =       -7.49723609


--------------------------------------------------------------------------------------------------------




 average (electrostatic) potential at core
  the test charge radii are     1.1312
  (the norm of the test charge is              1.0000)
       1 -53.3120       2 -53.3088       3 -53.3088       4 -53.3120       5 -53.3120
       6 -53.3088       7 -53.3120       8 -53.3088
 
 
 
 E-fermi :   0.2715     XC(G=0):  -5.2312     alpha+bet : -3.3747

 val. band max:        0.2618006391   @ k =  -0.3750   0.1250   0.0000
 cond. band min:       0.2851464835   @ k =  -0.3750   0.1250   0.0000
 fundamental gap:      0.0233458445
 Fermi energy:         0.2715042886

 k-point     1 :       0.1250    0.1250    0.0000
  band No.  band energies     occupation 
      1     -23.5950      2.00000
      2     -23.5911      2.00000
      3     -23.5910      2.00000
      4     -23.5905      2.00000
      5     -23.5904      2.00000
      6     -23.5903      2.00000
      7     -23.5897      2.00000
      8     -23.5877      2.00000
      9     -10.4317      2.00000
     10     -10.4316      2.00000
     11     -10.4222      2.00000
     12     -10.4044      2.00000
     13     -10.4041      2.00000
     14     -10.4031      2.00000
     15     -10.4030      2.00000
     16     -10.3851      2.00000
     17     -10.3837      2.00000
     18     -10.3733      2.00000
     19     -10.3731      2.00000
     20     -10.3688      2.00000
     21     -10.3687      2.00000
     22     -10.3603      2.00000
     23     -10.3600      2.00000
     24     -10.3542      2.00000
     25     -10.3539      2.00000
     26     -10.3532      2.00000
     27     -10.3531      2.00000
     28     -10.3320      2.00000
     29     -10.3320      2.00000
     30     -10.3302      2.00000
     31     -10.3284      2.00000
     32     -10.3283      2.00000
     33      -1.2589      2.00000
     34       0.0203      1.99962
     35       0.0204      1.99962
     36       0.2227      1.51010
     37       0.2229      1.50844
     38       0.7317      0.00000
     39       0.9995      0.00000
     40       0.9996      0.00000
     41       1.1008      0.00000
     42       1.1008      0.00000
     43       1.2244      0.00000

 k-point     2 :       0.3750    0.1250    0.0000
  band No.  band energies     occupation 
      1     -23.5938      2.00000
      2     -23.5919      2.00000
      3     -23.5909      2.00000
      4     -23.5905      2.00000
      5     -23.5902      2.00000
      6     -23.5898      2.00000
      7     -23.5897      2.00000
      8     -23.5887      2.00000
      9     -10.4253      2.00000
     10     -10.4192      2.00000
     11     -10.4189      2.00000
     12     -10.4165      2.00000
     13     -10.4160      2.00000
     14     -10.4154      2.00000
     15     -10.4043      2.00000
     16     -10.3757      2.00000
     17     -10.3754      2.00000
     18     -10.3740      2.00000
     19     -10.3733      2.00000
     20     -10.3626      2.00000
     21     -10.3610      2.00000
     22     -10.3601      2.00000
     23     -10.3582      2.00000
     24     -10.3554      2.00000
     25     -10.3500      2.00000
     26     -10.3499      2.00000
     27     -10.3458      2.00000
     28     -10.3425      2.00000
     29     -10.3425      2.00000
     30     -10.3361      2.00000
     31     -10.3326      2.00000
     32     -10.3282      2.00000
     33      -0.9868      2.00000
     34      -0.3652      2.00000
     35       0.1947      1.72270
     36       0.1947      1.72234
     37       0.5266      0.00031
     38       0.5759      0.00002
     39       0.6276      0.00000
     40       0.6279      0.00000
     41       1.0458      0.00000
     42       1.3174      0.00000
     43       1.3296      0.00000

 k-point     3 :      -0.3750    0.1250    0.0000
  band No.  band energies     occupation 
      1     -23.5936      2.00000
      2     -23.5922      2.00000
      3     -23.5907      2.00000
      4     -23.5907      2.00000
      5     -23.5901      2.00000
      6     -23.5900      2.00000
      7     -23.5899      2.00000
      8     -23.5885      2.00000
      9     -10.4213      2.00000
     10     -10.4191      2.00000
     11     -10.4188      2.00000
     12     -10.4158      2.00000
     13     -10.4133      2.00000
     14     -10.4132      2.00000
     15     -10.3994      2.00000
     16     -10.3838      2.00000
     17     -10.3748      2.00000
     18     -10.3718      2.00000
     19     -10.3715      2.00000
     20     -10.3696      2.00000
     21     -10.3692      2.00000
     22     -10.3633      2.00000
     23     -10.3627      2.00000
     24     -10.3508      2.00000
     25     -10.3467      2.00000
     26     -10.3453      2.00000
     27     -10.3452      2.00000
     28     -10.3437      2.00000
     29     -10.3437      2.00000
     30     -10.3353      2.00000
     31     -10.3318      2.00000
     32     -10.3288      2.00000
     33      -0.9109      2.00000
     34      -0.4722      2.00000
     35       0.2608      1.12027
     36       0.2618      1.10915
     37       0.2851      0.84701
     38       0.5729      0.00002
     39       0.5729      0.00002
     40       0.9756      0.00000
     41       1.0350      0.00000
     42       1.1591      0.00000
     43       1.1639      0.00000

 k-point     4 :      -0.1250    0.1250    0.0000
  band No.  band energies     occupation 
      1     -23.5949      2.00000
      2     -23.5912      2.00000
      3     -23.5909      2.00000
      4     -23.5905      2.00000
      5     -23.5905      2.00000
      6     -23.5902      2.00000
      7     -23.5898      2.00000
      8     -23.5877      2.00000
      9     -10.4297      2.00000
     10     -10.4296      2.00000
     11     -10.4211      2.00000
     12     -10.4026      2.00000
     13     -10.4024      2.00000
     14     -10.3981      2.00000
     15     -10.3978      2.00000
     16     -10.3895      2.00000
     17     -10.3841      2.00000
     18     -10.3801      2.00000
     19     -10.3791      2.00000
     20     -10.3724      2.00000
     21     -10.3723      2.00000
     22     -10.3596      2.00000
     23     -10.3594      2.00000
     24     -10.3537      2.00000
     25     -10.3536      2.00000
     26     -10.3512      2.00000
     27     -10.3509      2.00000
     28     -10.3331      2.00000
     29     -10.3304      2.00000
     30     -10.3304      2.00000
     31     -10.3291      2.00000
     32     -10.3281      2.00000
     33      -1.2319      2.00000
     34       0.0477      1.99845
     35       0.0480      1.99843
     36       0.1356      1.94544
     37       0.1357      1.94524
     38       0.8825      0.00000
     39       1.0863      0.00000
     40       1.0865      0.00000
     41       1.0993      0.00000
     42       1.0995      0.00000
     43       1.1737      0.00000

 k-point     5 :       0.3750    0.3750    0.0000
  band No.  band energies     occupation 
      1     -23.5929      2.00000
      2     -23.5911      2.00000
      3     -23.5910      2.00000
      4     -23.5905      2.00000
      5     -23.5904      2.00000
      6     -23.5903      2.00000
      7     -23.5899      2.00000
      8     -23.5896      2.00000
      9     -10.4325      2.00000
     10     -10.4325      2.00000
     11     -10.4269      2.00000
     12     -10.4269      2.00000
     13     -10.4028      2.00000
     14     -10.4026      2.00000
     15     -10.3987      2.00000
     16     -10.3705      2.00000
     17     -10.3702      2.00000
     18     -10.3685      2.00000
     19     -10.3675      2.00000
     20     -10.3606      2.00000
     21     -10.3596      2.00000
     22     -10.3592      2.00000
     23     -10.3538      2.00000
     24     -10.3538      2.00000
     25     -10.3534      2.00000
     26     -10.3534      2.00000
     27     -10.3460      2.00000
     28     -10.3457      2.00000
     29     -10.3436      2.00000
     30     -10.3435      2.00000
     31     -10.3334      2.00000
     32     -10.3334      2.00000
     33      -0.7739      2.00000
     34      -0.0018      1.99989
     35      -0.0018      1.99989
     36       0.0483      1.99840
     37       0.2400      1.34405
     38       0.2401      1.34258
     39       0.5588      0.00005
     40       0.5588      0.00005
     41       1.1183      0.00000
     42       1.1184      0.00000
     43       1.3508      0.00000

 k-point     6 :      -0.3750    0.3750    0.0000
  band No.  band energies     occupation 
      1     -23.5924      2.00000
      2     -23.5916      2.00000
      3     -23.5909      2.00000
      4     -23.5909      2.00000
      5     -23.5905      2.00000
      6     -23.5902      2.00000
      7     -23.5898      2.00000
      8     -23.5893      2.00000
      9     -10.4323      2.00000
     10     -10.4322      2.00000
     11     -10.4252      2.00000
     12     -10.4252      2.00000
     13     -10.3954      2.00000
     14     -10.3932      2.00000
     15     -10.3932      2.00000
     16     -10.3926      2.00000
     17     -10.3724      2.00000
     18     -10.3702      2.00000
     19     -10.3701      2.00000
     20     -10.3656      2.00000
     21     -10.3588      2.00000
     22     -10.3581      2.00000
     23     -10.3558      2.00000
     24     -10.3556      2.00000
     25     -10.3538      2.00000
     26     -10.3481      2.00000
     27     -10.3480      2.00000
     28     -10.3426      2.00000
     29     -10.3424      2.00000
     30     -10.3422      2.00000
     31     -10.3333      2.00000
     32     -10.3332      2.00000
     33      -0.5575      2.00000
     34      -0.3162      2.00000
     35      -0.3158      2.00000
     36       0.4011      0.06676
     37       0.4028      0.06334
     38       0.4035      0.06192
     39       0.4051      0.05892
     40       0.5176      0.00050
     41       1.0338      0.00000
     42       1.0338      0.00000
     43       1.4336      0.00000

 k-point     7 :       0.1250    0.1250    0.3333
  band No.  band energies     occupation 
      1     -23.5943      2.00000
      2     -23.5927      2.00000
      3     -23.5909      2.00000
      4     -23.5905      2.00000
      5     -23.5903      2.00000
      6     -23.5899      2.00000
      7     -23.5890      2.00000
      8     -23.5880      2.00000
      9     -10.4251      2.00000
     10     -10.4249      2.00000
     11     -10.4187      2.00000
     12     -10.4137      2.00000
     13     -10.4096      2.00000
     14     -10.4095      2.00000
     15     -10.3852      2.00000
     16     -10.3813      2.00000
     17     -10.3797      2.00000
     18     -10.3790      2.00000
     19     -10.3778      2.00000
     20     -10.3770      2.00000
     21     -10.3691      2.00000
     22     -10.3627      2.00000
     23     -10.3624      2.00000
     24     -10.3514      2.00000
     25     -10.3508      2.00000
     26     -10.3484      2.00000
     27     -10.3405      2.00000
     28     -10.3400      2.00000
     29     -10.3365      2.00000
     30     -10.3364      2.00000
     31     -10.3314      2.00000
     32     -10.3276      2.00000
     33      -1.0980      2.00000
     34      -0.6447      2.00000
     35       0.3836      0.11296
     36       0.3837      0.11261
     37       0.7468      0.00000
     38       0.7654      0.00000
     39       0.7657      0.00000
     40       0.8583      0.00000
     41       1.1173      0.00000
     42       1.1176      0.00000
     43       1.1971      0.00000

 k-point     8 :       0.3750    0.1250    0.3333
  band No.  band energies     occupation 
      1     -23.5933      2.00000
      2     -23.5921      2.00000
      3     -23.5916      2.00000
      4     -23.5909      2.00000
      5     -23.5897      2.00000
      6     -23.5897      2.00000
      7     -23.5894      2.00000
      8     -23.5889      2.00000
      9     -10.4216      2.00000
     10     -10.4184      2.00000
     11     -10.4159      2.00000
     12     -10.4114      2.00000
     13     -10.4100      2.00000
     14     -10.4055      2.00000
     15     -10.3994      2.00000
     16     -10.3923      2.00000
     17     -10.3850      2.00000
     18     -10.3802      2.00000
     19     -10.3775      2.00000
     20     -10.3721      2.00000
     21     -10.3630      2.00000
     22     -10.3575      2.00000
     23     -10.3525      2.00000
     24     -10.3513      2.00000
     25     -10.3494      2.00000
     26     -10.3469      2.00000
     27     -10.3457      2.00000
     28     -10.3456      2.00000
     29     -10.3387      2.00000
     30     -10.3371      2.00000
     31     -10.3341      2.00000
     32     -10.3283      2.00000
     33      -0.8344      2.00000
     34      -0.4109      2.00000
     35      -0.2223      2.00000
     36       0.1540      1.90341
     37       0.6464      0.00000
     38       0.7216      0.00000
     39       0.8092      0.00000
     40       0.9277      0.00000
     41       1.0213      0.00000
     42       1.0777      0.00000
     43       1.2552      0.00000

 k-point     9 :      -0.3750    0.1250    0.3333
  band No.  band energies     occupation 
      1     -23.5931      2.00000
      2     -23.5919      2.00000
      3     -23.5918      2.00000
      4     -23.5911      2.00000
      5     -23.5899      2.00000
      6     -23.5899      2.00000
      7     -23.5892      2.00000
      8     -23.5887      2.00000
      9     -10.4165      2.00000
     10     -10.4141      2.00000
     11     -10.4119      2.00000
     12     -10.4114      2.00000
     13     -10.4096      2.00000
     14     -10.4019      2.00000
     15     -10.3971      2.00000
     16     -10.3966      2.00000
     17     -10.3929      2.00000
     18     -10.3853      2.00000
     19     -10.3778      2.00000
     20     -10.3737      2.00000
     21     -10.3649      2.00000
     22     -10.3593      2.00000
     23     -10.3544      2.00000
     24     -10.3532      2.00000
     25     -10.3514      2.00000
     26     -10.3432      2.00000
     27     -10.3410      2.00000
     28     -10.3402      2.00000
     29     -10.3389      2.00000
     30     -10.3389      2.00000
     31     -10.3342      2.00000
     32     -10.3312      2.00000
     33      -0.7596      2.00000
     34      -0.3409      2.00000
     35      -0.3256      2.00000
     36       0.0614      1.99703
     37       0.4165      0.04026
     38       0.7173      0.00000
     39       0.9003      0.00000
     40       1.0267      0.00000
     41       1.1787      0.00000
     42       1.2163      0.00000
     43       1.2864      0.00000

 k-point    10 :      -0.1250    0.1250    0.3333
  band No.  band energies     occupation 
      1     -23.5942      2.00000
      2     -23.5926      2.00000
      3     -23.5910      2.00000
      4     -23.5906      2.00000
      5     -23.5903      2.00000
      6     -23.5900      2.00000
      7     -23.5889      2.00000
      8     -23.5880      2.00000
      9     -10.4232      2.00000
     10     -10.4231      2.00000
     11     -10.4143      2.00000
     12     -10.4082      2.00000
     13     -10.4080      2.00000
     14     -10.4027      2.00000
     15     -10.3961      2.00000
     16     -10.3955      2.00000
     17     -10.3798      2.00000
     18     -10.3796      2.00000
     19     -10.3781      2.00000
     20     -10.3758      2.00000
     21     -10.3664      2.00000
     22     -10.3637      2.00000
     23     -10.3632      2.00000
     24     -10.3498      2.00000
     25     -10.3486      2.00000
     26     -10.3470      2.00000
     27     -10.3460      2.00000
     28     -10.3376      2.00000
     29     -10.3345      2.00000
     30     -10.3342      2.00000
     31     -10.3342      2.00000
     32     -10.3292      2.00000
     33      -1.0712      2.00000
     34      -0.6180      2.00000
     35       0.2913      0.77899
     36       0.2915      0.77718
     37       0.6780      0.00000
     38       0.6781      0.00000
     39       0.7695      0.00000
     40       0.9830      0.00000
     41       1.1982      0.00000
     42       1.2043      0.00000
     43       1.2044      0.00000

 k-point    11 :       0.3750    0.3750    0.3333
  band No.  band energies     occupation 
      1     -23.5925      2.00000
      2     -23.5916      2.00000
      3     -23.5909      2.00000
      4     -23.5906      2.00000
      5     -23.5903      2.00000
      6     -23.5900      2.00000
      7     -23.5900      2.00000
      8     -23.5898      2.00000
      9     -10.4292      2.00000
     10     -10.4192      2.00000
     11     -10.4191      2.00000
     12     -10.4147      2.00000
     13     -10.4113      2.00000
     14     -10.4064      2.00000
     15     -10.4061      2.00000
     16     -10.3836      2.00000
     17     -10.3719      2.00000
     18     -10.3718      2.00000
     19     -10.3691      2.00000
     20     -10.3691      2.00000
     21     -10.3660      2.00000
     22     -10.3602      2.00000
     23     -10.3583      2.00000
     24     -10.3486      2.00000
     25     -10.3475      2.00000
     26     -10.3468      2.00000
     27     -10.3461      2.00000
     28     -10.3444      2.00000
     29     -10.3442      2.00000
     30     -10.3438      2.00000
     31     -10.3333      2.00000
     32     -10.3287      2.00000
     33      -0.6323      2.00000
     34      -0.2500      2.00000
     35       0.1184      1.96963
     36       0.1185      1.96957
     37       0.1658      1.86510
     38       0.3917      0.08920
     39       0.3918      0.08881
     40       0.4094      0.05116
     41       1.1067      0.00000
     42       1.4579      0.00000
     43       1.4697      0.00000

 k-point    12 :      -0.3750    0.3750    0.3333
  band No.  band energies     occupation 
      1     -23.5920      2.00000
      2     -23.5914      2.00000
      3     -23.5911      2.00000
      4     -23.5910      2.00000
      5     -23.5908      2.00000
      6     -23.5904      2.00000
      7     -23.5895      2.00000
      8     -23.5894      2.00000
      9     -10.4225      2.00000
     10     -10.4224      2.00000
     11     -10.4213      2.00000
     12     -10.4105      2.00000
     13     -10.4055      2.00000
     14     -10.4024      2.00000
     15     -10.4023      2.00000
     16     -10.3892      2.00000
     17     -10.3860      2.00000
     18     -10.3805      2.00000
     19     -10.3621      2.00000
     20     -10.3618      2.00000
     21     -10.3614      2.00000
     22     -10.3607      2.00000
     23     -10.3606      2.00000
     24     -10.3595      2.00000
     25     -10.3557      2.00000
     26     -10.3505      2.00000
     27     -10.3396      2.00000
     28     -10.3394      2.00000
     29     -10.3393      2.00000
     30     -10.3384      2.00000
     31     -10.3341      2.00000
     32     -10.3341      2.00000
     33      -0.4208      2.00000
     34      -0.1859      2.00000
     35      -0.1853      2.00000
     36      -0.0572      2.00000
     37       0.1431      1.93055
     38       0.1433      1.93017
     39       0.6110      0.00000
     40       0.7051      0.00000
     41       1.3079      0.00000
     42       1.3083      0.00000
     43       1.3224      0.00000


--------------------------------------------------------------------------------------------------------


 soft charge-density along one line, spin component            1
         0         1         2         3         4         5         6         7         8         9
 total charge-density along one line
 
 pseudopotential strength for first ion, spin component:            1
 19.480  -5.126  -0.000  -0.000  -0.000   0.000   0.000   0.000
 -5.126   1.353   0.000   0.000   0.000  -0.000  -0.000  -0.000
 -0.000   0.000   2.661   0.000   0.000  -3.332  -0.000  -0.000
 -0.000   0.000   0.000   2.661   0.000  -0.000  -3.332  -0.000
 -0.000   0.000   0.000   0.000   2.661  -0.000  -0.000  -3.332
  0.000  -0.000  -3.332  -0.000  -0.000   4.161   0.000   0.000
  0.000  -0.000  -0.000  -3.332  -0.000   0.000   4.161   0.000
  0.000  -0.000  -0.000  -0.000  -3.332   0.000   0.000   4.162
  0.000  -0.000  -0.000  -0.000  -0.000   0.000   0.000   0.000
  0.000  -0.000  -0.000  -0.000  -0.000   0.000   0.000   0.000
 -0.000   0.000   0.000  -0.000   0.000  -0.000   0.000  -0.000
  0.000  -0.000  -0.000  -0.000  -0.000   0.000   0.000   0.000
  0.000  -0.000   0.000  -0.000  -0.000  -0.000   0.000   0.000
 total augmentation occupancy for first ion, spin component:            1
  2.277   0.550   0.000   0.000   0.000  -0.000  -0.000  -0.000  -0.000  -0.000  -0.000  -0.000   0.000
  0.550   0.825   0.000   0.000   0.000  -0.000  -0.000   0.000   0.000   0.001  -0.001  -0.000  -0.001
  0.000   0.000   1.990  -0.000  -0.000  -0.002   0.000   0.000   0.000  -0.000   0.000   0.000   0.000
  0.000   0.000  -0.000   1.990   0.000   0.000  -0.002   0.000  -0.000  -0.000  -0.000  -0.000  -0.000
  0.000   0.000  -0.000   0.000   1.991   0.000  -0.000  -0.002  -0.000   0.000  -0.000  -0.000  -0.000
 -0.000  -0.000  -0.002   0.000   0.000   0.006   0.000   0.000   0.000   0.000   0.000   0.000  -0.000
 -0.000  -0.000   0.000  -0.002  -0.000   0.000   0.006   0.000  -0.000   0.000   0.000   0.000  -0.000
 -0.000  -0.000   0.000   0.000  -0.002  -0.000   0.000   0.006  -0.000  -0.000   0.000  -0.000   0.000
  0.000   0.000   0.000  -0.000  -0.000   0.000  -0.000  -0.000   0.002   0.000   0.000   0.000  -0.000
 -0.000   0.001  -0.000  -0.000   0.000   0.000   0.000   0.000  -0.000   0.002   0.000   0.000  -0.000
 -0.000  -0.001   0.000  -0.000  -0.000   0.000   0.000   0.000   0.000   0.000   0.002  -0.000   0.000
  0.000  -0.000   0.000  -0.000  -0.000   0.000  -0.000  -0.000   0.000   0.000  -0.000   0.002   0.000
  0.000  -0.001   0.000  -0.000  -0.000  -0.000  -0.000   0.000  -0.000  -0.000   0.000   0.000   0.002


------------------------ aborting loop because EDIFF is reached ----------------------------------------





 total charge

# of ion       s       p       d       tot
------------------------------------------
    1        1.977   4.680   0.008   6.665
    2        1.979   4.680   0.008   6.666
    3        1.979   4.680   0.008   6.666
    4        1.977   4.680   0.008   6.665
    5        1.977   4.680   0.008   6.665
    6        1.979   4.680   0.008   6.666
    7        1.977   4.680   0.008   6.665
    8        1.979   4.680   0.008   6.666
--------------------------------------------------
tot         15.824  37.437   0.062  53.323
 
    CHARGE:  cpu time      0.0835: real time      0.0838
    FORLOC:  cpu time      0.0029: real time      0.0029
    FORNL :  cpu time      0.2423: real time      0.2428
    STRESS:  cpu time      1.1648: real time      1.1677
    FORCOR:  cpu time      0.0100: real time      0.0100
    FORHAR:  cpu time      0.0021: real time      0.0021
    MIXING:  cpu time      0.0188: real time      0.0189
    OFIELD:  cpu time      0.0001: real time      0.0000

  FORCE on cell =-STRESS in cart. coord.  units (eV):
  Direction    XX          YY          ZZ          XY          YZ          ZX
  --------------------------------------------------------------------------------------
  Alpha Z   117.02587   117.02587   117.02587
  Ewald    -903.73092  -906.18076  -900.14436     0.00000    -0.00000    -0.00000
  Hartree   372.37265   372.48910   376.01854     0.00000     0.00000    -0.00000
  E(xc)    -259.56898  -259.55943  -259.57380     0.00000     0.00000     0.00000
  Local    -257.19889  -255.43258  -264.78887    -0.00000     0.00000    -0.00000
  n-local    73.85263    73.81188    73.86919    -0.23600    -0.05222    -0.07172
  augment  -113.94515  -113.96400  -114.01125     0.00000    -0.00000     0.00000
  Kinetic   969.88701   970.39937   970.62106    -1.27941    -0.09242    -0.19937
  Fock        0.00000     0.00000     0.00000     0.00000     0.00000     0.00000
  -------------------------------------------------------------------------------------
  Total      -1.30578    -1.41054    -0.98361     0.00000     0.00000     0.00000
  in kB      -2.12804    -2.29878    -1.60301     0.00000     0.00000     0.00000
  external pressure =       -2.01 kB  Pullay stress =        0.00 kB


 VOLUME and BASIS-vectors are now :
 -----------------------------------------------------------------------------
  energy-cutoff  :      400.00
  volume of cell :      983.10
      direct lattice vectors                 reciprocal lattice vectors
     7.073599903 -5.922919666  0.000000000     0.070685366 -0.084417826  0.000000000
     7.073599903  5.922919666  0.000000000     0.070685366  0.084417826 -0.000000000
     0.000000000  0.000000000 11.732572140    -0.000000000  0.000000000  0.085232802

  length of vectors
     9.225876270  9.225876270 11.732572140     0.110103544  0.110103544  0.085232802


 FORCES acting on ions
    electron-ion (+dipol)            ewald-force                    non-local-force                 convergence-correction
 -----------------------------------------------------------------------------------------------
   -.343E-08 -.722E-01 -.159E+00   0.639E-15 0.727E-01 0.161E+00   -.136E-19 0.973E-03 0.170E-02   0.888E-14 0.131E-06 -.856E-06
   0.117E+01 0.671E-09 0.344E-06   -.116E+01 -.472E-14 -.111E-13   -.159E-01 -.217E-18 0.542E-19   0.145E-04 -.160E-13 0.380E-13
   0.117E+01 -.670E-09 0.344E-06   -.116E+01 -.483E-14 0.177E-14   -.159E-01 -.217E-18 -.542E-19   0.145E-04 0.251E-13 -.430E-13
   0.343E-08 0.722E-01 0.159E+00   0.134E-14 -.727E-01 -.161E+00   0.000E+00 -.973E-03 -.170E-02   -.247E-13 -.131E-06 0.856E-06
   -.343E-08 0.722E-01 -.159E+00   0.177E-14 -.727E-01 0.161E+00   0.136E-19 -.973E-03 0.170E-02   0.444E-14 -.131E-06 -.856E-06
   -.117E+01 -.672E-09 -.344E-06   0.116E+01 0.601E-14 0.150E-13   0.159E-01 0.217E-18 -.542E-19   -.145E-04 0.213E-13 0.309E-13
   0.343E-08 -.722E-01 0.159E+00   -.362E-14 0.727E-01 -.161E+00   0.000E+00 0.973E-03 -.170E-02   -.285E-13 0.131E-06 0.856E-06
   -.117E+01 0.671E-09 -.344E-06   0.116E+01 0.381E-14 0.175E-14   0.159E-01 0.217E-18 0.542E-19   -.145E-04 -.207E-13 -.440E-13
 -----------------------------------------------------------------------------------------------
   0.823E-12 0.348E-12 0.430E-11   -.222E-15 0.262E-15 0.836E-15   0.000E+00 -.108E-18 -.163E-18   -.195E-13 0.930E-14 -.290E-13
 
 
 POSITION                                       TOTAL-FORCE (eV/Angst)
 -----------------------------------------------------------------------------------
      7.07360      2.95633      2.91786         0.000000      0.001441      0.003671
      3.57423      0.00000      0.00000        -0.011443     -0.000000      0.000000
     10.64783     -0.00000      5.86629        -0.011443     -0.000000      0.000000
      7.07360     -2.95633      8.81471         0.000000     -0.001441     -0.003671
      7.07360      2.96659      8.78414         0.000000     -0.001441      0.003671
     10.57297      0.00000      0.00000         0.011443     -0.000000      0.000000
      7.07360     -2.96659      2.94843         0.000000      0.001441     -0.003671
      3.49937     -0.00000      5.86629         0.011443     -0.000000      0.000000
 -----------------------------------------------------------------------------------
    total drift:                                0.000000      0.000000      0.000000


--------------------------------------------------------------------------------------------------------



  FREE ENERGIE OF THE ION-ELECTRON SYSTEM (eV)
  ---------------------------------------------------
  free  energy   TOTEN  =        -7.52328089 eV

  energy  without entropy=       -7.47119128  energy(sigma->0) =       -7.49723609
 


--------------------------------------------------------------------------------------------------------


    POTLOK:  cpu time      0.1802: real time      0.1806


--------------------------------------------------------------------------------------------------------




--------------------------------------------------------------------------------------------------------


      MLFF:  cpu time      0.0006: real time      0.0015
    WAVPRE:  cpu time      0.0927: real time      0.0930
    FEWALD:  cpu time      0.0021: real time      0.0021
    GENKIN:  cpu time      0.0115: real time      0.0116
    ORTHCH:  cpu time      0.1368: real time      0.1372
     LOOP+:  cpu time      8.6947: real time      8.7962


--------------------------------------- Ionic step        2  -------------------------------------------




[...]
     19     -10.0028      2.00000
     20      -9.9975      2.00000
     21      -9.9929      2.00000
     22      -9.9925      2.00000
     23      -9.9925      2.00000
     24      -9.9612      2.00000
     25      -9.9612      2.00000
     26      -9.9595      2.00000
     27      -9.9542      2.00000
     28      -9.9429      2.00000
     29      -9.9429      2.00000
     30      -9.9378      2.00000
     31      -9.9358      2.00000
     32      -9.9258      2.00000
     33      -0.9023      2.00000
     34      -0.4896      2.00000
     35       0.7211      0.07060
     36       0.7211      0.07060
     37       0.7712      0.01185
     38       1.0834      0.00000
     39       1.0834      0.00000
     40       1.1559      0.00000
     41       1.3658      0.00000
     42       1.6205      0.00000
     43       1.6437      0.00000

 k-point     8 :       0.3750    0.1250    0.3333
  band No.  band energies     occupation 
      1     -23.2108      2.00000
      2     -23.2088      2.00000
      3     -23.2077      2.00000
      4     -23.2068      2.00000
      5     -23.2047      2.00000
      6     -23.2041      2.00000
      7     -23.2037      2.00000
      8     -23.2020      2.00000
      9     -10.0690      2.00000
     10     -10.0640      2.00000
     11     -10.0614      2.00000
     12     -10.0597      2.00000
     13     -10.0587      2.00000
     14     -10.0472      2.00000
     15     -10.0363      2.00000
     16     -10.0314      2.00000
     17     -10.0207      2.00000
     18     -10.0189      2.00000
     19     -10.0124      2.00000
     20     -10.0013      2.00000
     21      -9.9872      2.00000
     22      -9.9730      2.00000
     23      -9.9688      2.00000
     24      -9.9609      2.00000
     25      -9.9600      2.00000
     26      -9.9554      2.00000
     27      -9.9476      2.00000
     28      -9.9458      2.00000
     29      -9.9438      2.00000
     30      -9.9398      2.00000
     31      -9.9325      2.00000
     32      -9.9308      2.00000
     33      -0.5490      2.00000
     34      -0.1750      2.00000
     35       0.0716      2.00000
     36       0.4051      1.99221
     37       0.9733      0.00000
     38       1.0037      0.00000
     39       1.1827      0.00000
     40       1.2887      0.00000
     41       1.3836      0.00000
     42       1.4536      0.00000
     43       1.5135      0.00000

 k-point     9 :      -0.3750    0.1250    0.3333
  band No.  band energies     occupation 
      1     -23.2108      2.00000
      2     -23.2088      2.00000
      3     -23.2077      2.00000
      4     -23.2068      2.00000
      5     -23.2047      2.00000
      6     -23.2041      2.00000
      7     -23.2037      2.00000
      8     -23.2020      2.00000
      9     -10.0691      2.00000
     10     -10.0642      2.00000
     11     -10.0615      2.00000
     12     -10.0598      2.00000
     13     -10.0588      2.00000
     14     -10.0473      2.00000
     15     -10.0363      2.00000
     16     -10.0311      2.00000
     17     -10.0207      2.00000
     18     -10.0189      2.00000
     19     -10.0121      2.00000
     20     -10.0012      2.00000
     21      -9.9871      2.00000
     22      -9.9728      2.00000
     23      -9.9687      2.00000
     24      -9.9608      2.00000
     25      -9.9599      2.00000
     26      -9.9555      2.00000
     27      -9.9480      2.00000
     28      -9.9460      2.00000
     29      -9.9438      2.00000
     30      -9.9400      2.00000
     31      -9.9323      2.00000
     32      -9.9306      2.00000
     33      -0.5503      2.00000
     34      -0.1762      2.00000
     35       0.0733      2.00000
     36       0.4064      1.99175
     37       0.9726      0.00000
     38       1.0080      0.00000
     39       1.1842      0.00000
     40       1.2825      0.00000
     41       1.3850      0.00000
     42       1.4563      0.00000
     43       1.5086      0.00000

 k-point    10 :      -0.1250    0.1250    0.3333
  band No.  band energies     occupation 
      1     -23.2129      2.00000
      2     -23.2102      2.00000
      3     -23.2056      2.00000
      4     -23.2056      2.00000
      5     -23.2054      2.00000
      6     -23.2054      2.00000
      7     -23.2030      2.00000
      8     -23.2005      2.00000
      9     -10.0750      2.00000
     10     -10.0750      2.00000
     11     -10.0585      2.00000
     12     -10.0546      2.00000
     13     -10.0546      2.00000
     14     -10.0543      2.00000
     15     -10.0242      2.00000
     16     -10.0213      2.00000
     17     -10.0051      2.00000
     18     -10.0026      2.00000
     19     -10.0026      2.00000
     20      -9.9975      2.00000
     21      -9.9931      2.00000
     22      -9.9925      2.00000
     23      -9.9925      2.00000
     24      -9.9613      2.00000
     25      -9.9613      2.00000
     26      -9.9595      2.00000
     27      -9.9540      2.00000
     28      -9.9429      2.00000
     29      -9.9429      2.00000
     30      -9.9378      2.00000
     31      -9.9358      2.00000
     32      -9.9257      2.00000
     33      -0.9027      2.00000
     34      -0.4900      2.00000
     35       0.7222      0.06811
     36       0.7222      0.06810
     37       0.7708      0.01202
     38       1.0844      0.00000
     39       1.0844      0.00000
     40       1.1557      0.00000
     41       1.3639      0.00000
     42       1.6185      0.00000
     43       1.6414      0.00000

 k-point    11 :       0.3750    0.3750    0.3333
  band No.  band energies     occupation 
      1     -23.2088      2.00000
      2     -23.2076      2.00000
      3     -23.2061      2.00000
      4     -23.2061      2.00000
      5     -23.2059      2.00000
      6     -23.2059      2.00000
      7     -23.2046      2.00000
      8     -23.2037      2.00000
      9     -10.0852      2.00000
     10     -10.0773      2.00000
     11     -10.0773      2.00000
     12     -10.0631      2.00000
     13     -10.0621      2.00000
     14     -10.0519      2.00000
     15     -10.0519      2.00000
     16     -10.0238      2.00000
     17      -9.9970      2.00000
     18      -9.9885      2.00000
     19      -9.9868      2.00000
     20      -9.9867      2.00000
     21      -9.9834      2.00000
     22      -9.9834      2.00000
     23      -9.9833      2.00000
     24      -9.9671      2.00000
     25      -9.9600      2.00000
     26      -9.9531      2.00000
     27      -9.9531      2.00000
     28      -9.9502      2.00000
     29      -9.9418      2.00000
     30      -9.9370      2.00000
     31      -9.9370      2.00000
     32      -9.9262      2.00000
     33      -0.2247      2.00000
     34       0.0824      2.00000
     35       0.3468      1.99951
     36       0.3468      1.99951
     37       0.5614      1.34733
     38       0.5614      1.34733
     39       0.8140      0.00180
     40       0.8237      0.00112
     41       1.4341      0.00000
     42       1.5966      0.00000
     43       1.6086      0.00000

 k-point    12 :      -0.3750    0.3750    0.3333
  band No.  band energies     occupation 
      1     -23.2088      2.00000
      2     -23.2076      2.00000
      3     -23.2060      2.00000
      4     -23.2060      2.00000
      5     -23.2059      2.00000
      6     -23.2059      2.00000
      7     -23.2046      2.00000
      8     -23.2037      2.00000
      9     -10.0852      2.00000
     10     -10.0774      2.00000
     11     -10.0774      2.00000
     12     -10.0631      2.00000
     13     -10.0621      2.00000
     14     -10.0521      2.00000
     15     -10.0521      2.00000
     16     -10.0236      2.00000
     17      -9.9966      2.00000
     18      -9.9881      2.00000
     19      -9.9868      2.00000
     20      -9.9868      2.00000
     21      -9.9835      2.00000
     22      -9.9835      2.00000
     23      -9.9832      2.00000
     24      -9.9669      2.00000
     25      -9.9599      2.00000
     26      -9.9533      2.00000
     27      -9.9533      2.00000
     28      -9.9499      2.00000
     29      -9.9415      2.00000
     30      -9.9374      2.00000
     31      -9.9374      2.00000
     32      -9.9258      2.00000
     33      -0.2282      2.00000
     34       0.0793      2.00000
     35       0.3515      1.99937
     36       0.3515      1.99937
     37       0.5650      1.31057
     38       0.5650      1.31055
     39       0.8072      0.00247
     40       0.8202      0.00133
     41       1.4295      0.00000
     42       1.6034      0.00000
     43       1.6117      0.00000


--------------------------------------------------------------------------------------------------------


 soft charge-density along one line, spin component            1
         0         1         2         3         4         5         6         7         8         9
 total charge-density along one line
 
 pseudopotential strength for first ion, spin component:            1
 19.307  -5.080   0.000  -0.000   0.000  -0.000   0.000  -0.000
 -5.080   1.341  -0.000   0.000  -0.000   0.000  -0.000   0.000
  0.000  -0.000   2.589  -0.000  -0.000  -3.231   0.000   0.000
 -0.000   0.000  -0.000   2.589  -0.000   0.000  -3.231   0.000
  0.000  -0.000  -0.000  -0.000   2.589   0.000   0.000  -3.231
 -0.000   0.000  -3.231   0.000   0.000   4.017  -0.000  -0.000
  0.000  -0.000   0.000  -3.231   0.000  -0.000   4.017  -0.000
 -0.000   0.000   0.000   0.000  -3.231  -0.000  -0.000   4.017
 -0.000   0.000   0.000  -0.000   0.000  -0.000   0.000  -0.000
 -0.000   0.000   0.000   0.000  -0.000  -0.000  -0.000   0.000
 -0.000   0.000  -0.000   0.000  -0.000   0.000  -0.000   0.000
 -0.000   0.000  -0.000   0.000   0.000   0.000  -0.000  -0.000
  0.000  -0.000  -0.000  -0.000   0.000   0.000   0.000  -0.000
 total augmentation occupancy for first ion, spin component:            1
  2.271   0.536  -0.000  -0.000   0.000   0.000  -0.000  -0.000   0.000   0.000   0.000   0.000   0.000
  0.536   0.881  -0.000  -0.000   0.000   0.000   0.000  -0.000   0.000  -0.000  -0.002   0.000   0.000
 -0.000  -0.000   1.990  -0.000  -0.000  -0.001  -0.000   0.000  -0.000   0.000  -0.000  -0.000  -0.000
 -0.000  -0.000  -0.000   1.991   0.000  -0.000  -0.000  -0.000   0.000   0.000  -0.000  -0.000  -0.000
  0.000   0.000  -0.000   0.000   1.989  -0.000   0.000  -0.001   0.000  -0.000   0.000   0.000  -0.000
  0.000   0.000  -0.001  -0.000  -0.000   0.007  -0.000   0.000   0.000  -0.000  -0.000   0.000   0.000
 -0.000   0.000  -0.000  -0.000  -0.000  -0.000   0.007   0.000   0.000   0.000  -0.000   0.000  -0.000
 -0.000  -0.000   0.000   0.000  -0.001  -0.000  -0.000   0.007   0.000  -0.000   0.000   0.000  -0.000
  0.000   0.000  -0.000   0.000   0.000   0.000  -0.000   0.000   0.003  -0.000   0.000  -0.000   0.000
  0.000  -0.000   0.000   0.000  -0.000  -0.000   0.000   0.000   0.000   0.003  -0.000  -0.000   0.000
  0.000  -0.002  -0.000  -0.000   0.000  -0.000  -0.000   0.000   0.000  -0.000   0.002   0.000  -0.000
 -0.000  -0.000  -0.000  -0.000   0.000   0.000   0.000   0.000  -0.000  -0.000   0.000   0.003   0.000
  0.000   0.000  -0.000  -0.000  -0.000   0.000  -0.000  -0.000   0.000   0.000  -0.000  -0.000   0.003


------------------------ aborting loop because EDIFF is reached ----------------------------------------





 total charge

# of ion       s       p       d       tot
------------------------------------------
    1        1.977   4.675   0.010   6.662
    2        1.977   4.675   0.010   6.662
    3        1.977   4.675   0.010   6.662
    4        1.977   4.675   0.010   6.662
    5        1.977   4.675   0.010   6.662
    6        1.977   4.675   0.010   6.662
    7        1.977   4.675   0.010   6.662
    8        1.977   4.675   0.010   6.662
--------------------------------------------------
tot         15.820  37.398   0.082  53.299
 
    CHARGE:  cpu time      0.0837: real time      0.0839
    FORLOC:  cpu time      0.0021: real time      0.0022
    FORNL :  cpu time      0.2445: real time      0.2451
    STRESS:  cpu time      1.1737: real time      1.1765
    FORCOR:  cpu time      0.0099: real time      0.0100
    FORHAR:  cpu time      0.0021: real time      0.0021
    MIXING:  cpu time      0.0358: real time      0.1900
    OFIELD:  cpu time      0.0000: real time      0.0000

  FORCE on cell =-STRESS in cart. coord.  units (eV):
  Direction    XX          YY          ZZ          XY          YZ          ZX
  --------------------------------------------------------------------------------------
  Alpha Z   132.43955   132.43955   132.43955
  Ewald    -939.34977  -940.10668  -945.12852     0.00000    -0.00000     0.00000
  Hartree   351.36897   350.86873   346.57067    -0.00000     0.00000    -0.00000
  E(xc)    -259.91083  -259.90763  -259.92806    -0.00000     0.00000    -0.00000
  Local    -216.55153  -215.28969  -205.60360     0.00000    -0.00000     0.00000
  n-local    74.18727    74.20259    74.27373    -0.33885    -0.06052    -0.06045
  augment  -114.07419  -114.07887  -114.08457    -0.00000    -0.00000     0.00000
  Kinetic   971.89244   971.86074   971.46372    -1.65963    -0.01988    -0.01777
  Fock        0.00000     0.00000     0.00000     0.00000     0.00000     0.00000
  -------------------------------------------------------------------------------------
  Total       0.00190    -0.01126     0.00292     0.00000     0.00000     0.00000
  in kB       0.00351    -0.02076     0.00538     0.00000     0.00000     0.00000
  external pressure =       -0.00 kB  Pullay stress =        0.00 kB


 VOLUME and BASIS-vectors are now :
 -----------------------------------------------------------------------------
  energy-cutoff  :      400.00
  volume of cell :      868.69
      direct lattice vectors                 reciprocal lattice vectors
     5.877957685 -5.891978323 -0.000000000     0.085063559 -0.084861140 -0.000000000
     5.877957685  5.891978323  0.000000000     0.085063559  0.084861140  0.000000000
     0.000000000 -0.000000000 12.541403603     0.000000000 -0.000000000  0.079735892

  length of vectors
     8.322607471  8.322607471 12.541403603     0.120154992  0.120154992  0.079735892


 FORCES acting on ions
    electron-ion (+dipol)            ewald-force                    non-local-force                 convergence-correction
 -----------------------------------------------------------------------------------------------
   -.584E-11 0.940E-02 0.697E-04   -.208E-13 -.954E-02 -.750E-04   0.424E-21 0.186E-04 -.199E-06   0.409E-13 0.915E-05 0.264E-05
   -.146E+00 0.449E-11 -.776E-07   0.146E+00 -.156E-13 -.718E-14   0.111E-02 0.000E+00 0.000E+00   -.100E-03 0.419E-14 0.244E-12
   -.146E+00 -.522E-11 -.776E-07   0.146E+00 -.101E-13 0.177E-13   0.111E-02 0.678E-20 -.847E-21   -.100E-03 -.469E-13 -.308E-12
   0.628E-11 -.940E-02 -.697E-04   0.202E-13 0.954E-02 0.750E-04   0.424E-21 -.186E-04 0.199E-06   0.151E-12 -.915E-05 -.264E-05
   -.449E-11 -.940E-02 0.697E-04   0.144E-13 0.954E-02 -.750E-04   -.424E-21 -.186E-04 -.199E-06   -.895E-13 -.915E-05 0.264E-05
   0.146E+00 -.160E-11 0.776E-07   -.146E+00 0.150E-13 0.110E-13   -.111E-02 0.000E+00 0.000E+00   0.100E-03 0.160E-13 0.369E-12
   0.955E-12 0.940E-02 -.697E-04   -.159E-13 -.954E-02 0.750E-04   -.424E-21 0.186E-04 0.199E-06   -.116E-12 0.915E-05 -.264E-05
   0.146E+00 0.431E-11 0.776E-07   -.146E+00 0.960E-14 -.704E-14   -.111E-02 -.678E-20 0.847E-21   0.100E-03 0.475E-13 -.170E-12
 -----------------------------------------------------------------------------------------------
   -.804E-12 -.464E-12 -.341E-11   -.444E-14 -.138E-14 -.140E-14   0.000E+00 0.339E-20 0.529E-22   0.886E-14 -.363E-14 0.280E-13
 
 
 POSITION                                       TOTAL-FORCE (eV/Angst)
 -----------------------------------------------------------------------------------
      5.87796      2.94652      3.13536         0.000000     -0.000119     -0.000003
      2.93588     -0.00000      0.00000         0.001205     -0.000000      0.000000
      8.81384     -0.00000      6.27070         0.001205     -0.000000      0.000000
      5.87796     -2.94652      9.40605         0.000000      0.000119      0.000003
      5.87796      2.94546      9.40606         0.000000      0.000119     -0.000003
      8.82004      0.00000      0.00000        -0.001205     -0.000000      0.000000
      5.87796     -2.94546      3.13534         0.000000     -0.000119      0.000003
      2.94208     -0.00000      6.27070        -0.001205     -0.000000      0.000000
 -----------------------------------------------------------------------------------
    total drift:                               -0.000000     -0.000000     -0.000000


--------------------------------------------------------------------------------------------------------



  FREE ENERGIE OF THE ION-ELECTRON SYSTEM (eV)
  ---------------------------------------------------
  free  energy   TOTEN  =        -7.64417200 eV

  energy  without entropy=       -7.60559099  energy(sigma->0) =       -7.62488149
 d Force = 0.6898039E-05[ 0.592E-05, 0.788E-05]  d Energy = 0.7747023E-04-0.706E-04
 d Force = 0.8547486E-03[ 0.715E-03, 0.994E-03]  d Ewald  =-0.3181940E+01 0.318E+01
 


--------------------------------------------------------------------------------------------------------


    POTLOK:  cpu time      0.1820: real time      0.1824


--------------------------------------------------------------------------------------------------------


 Conjugate gradient step on ions:
 trial-energy change:   -0.000077  1 .order   -0.000082   -0.000182    0.000018
  (g-gl).g = 0.315E-04      g.g   = 0.308E-04  gl.gl    = 0.379E-04
 g(Force)  = 0.502E-06   g(Stress)= 0.303E-04 ortho     =-0.598E-06
 gamma     =   0.83096
 trial     =   5.99997
 opt step  =   5.38642  (harmonic =   5.45754) maximal distance =0.00109358
 next E    =    -7.644173   (d E  =  -0.00008)


--------------------------------------------------------------------------------------------------------


  
 reached required accuracy - stopping structural energy minimisation
     LOOP+:  cpu time      5.8332: real time      6.0066
    4ORBIT:  cpu time      0.0000: real time      0.0000



 total charge

# of ion       s       p       d       tot
------------------------------------------
    1        1.977   4.675   0.010   6.662
    2        1.977   4.675   0.010   6.662
    3        1.977   4.675   0.010   6.662
    4        1.977   4.675   0.010   6.662
    5        1.977   4.675   0.010   6.662
    6        1.977   4.675   0.010   6.662
    7        1.977   4.675   0.010   6.662
    8        1.977   4.675   0.010   6.662
--------------------------------------------------
tot         15.820  37.398   0.082  53.299
 

 total amount of memory used by VASP MPI-rank0   300767. kBytes
=======================================================================

   base                                    :      30000. kBytes
   nonl-proj                               :      24620. kBytes
   fftplans                                :      38260. kBytes
   grid                                    :      59240. kBytes
   one-center                              :         64. kBytes
   wavefun                                 :     148583. kBytes
 
  
  
 General timing and accounting informations for this job:
 ========================================================
  
                  Total CPU time used (sec):      174.492
                            User time (sec):      172.393
                          System time (sec):        2.099
                         Elapsed time (sec):      176.070
  
                   Maximum memory used (kb):     2340528.
                   Average memory used (kb):          N/A
  
                          Minor page faults:       311872
                          Major page faults:           89
                 Voluntary context switches:        11745
