<?xml version="1.0" encoding="ISO-8859-1"?>
<modeling>
 <generator>
  <i name="program" type="string">vasp </i>
  <i name="version" type="string">6.5.1  </i>
  <i name="subversion" type="string">10Mar25 (build May 13 2025 11:33:44) complex                          parallel </i>
  <i name="platform" type="string">LinuxNV </i>
  <i name="date" type="string">2026 05 13 </i>
  <i name="time" type="string">11:35:03 </i>
 </generator>
 <incar>
  <i type="string" name="PREC">Normal</i>
  <i type="string" name="ALGO">Normal</i>
  <i type="int" name="NELM">   100</i>
  <i type="int" name="IBRION">     2</i>
  <i name="EDIFF">      0.00000010</i>
  <i name="EDIFFG">     -0.00500000</i>
  <i type="int" name="NSW">   300</i>
  <i type="int" name="ISIF">     3</i>
  <i name="ENCUT">    400.00000000</i>
  <i type="logical" name="LREAL"> F  </i>
  <i type="int" name="ISMEAR">     0</i>
  <i name="SIGMA">      0.10000000</i>
  <i type="logical" name="LWAVE"> F  </i>
  <i type="logical" name="LCHARG"> F  </i>
  <i type="int" name="LORBIT">    10</i>
  <i type="logical" name="LASPH"> T  </i>
  <i type="string" name="GGA">Ps</i>
 </incar>
 <primitive_cell>
  <structure name="primitive_cell" >
   <crystal>
    <varray name="basis" >
     <v>       7.07359990      -5.92291967       0.00000000 </v>
     <v>       7.07359990       5.92291967       0.00000000 </v>
     <v>       0.00000000       0.00000000      11.73257214 </v>
    </varray>
    <i name="volume">    983.10422547 </i>
    <varray name="rec_basis" >
     <v>       0.07068537      -0.08441783       0.00000000 </v>
     <v>       0.07068537       0.08441783      -0.00000000 </v>
     <v>      -0.00000000       0.00000000       0.08523280 </v>
    </varray>
   </crystal>
   <varray name="positions" >
    <v>       0.25043269       0.74956731       0.24869720 </v>
    <v>       0.25264593       0.25264593       0.00000000 </v>
    <v>       0.75264593       0.75264593       0.50000000 </v>
    <v>       0.74956731       0.25043269       0.75130280 </v>
    <v>       0.24956731       0.75043269       0.74869720 </v>
    <v>       0.74735407       0.74735407       0.00000000 </v>
    <v>       0.75043269       0.24956731       0.25130280 </v>
    <v>       0.24735407       0.24735407       0.50000000 </v>
   </varray>
  </structure>
  <varray name="primitive_index" >
   <v type="int" >        1 </v>
   <v type="int" >        2 </v>
   <v type="int" >        3 </v>
   <v type="int" >        4 </v>
   <v type="int" >        5 </v>
   <v type="int" >        6 </v>
   <v type="int" >        7 </v>
   <v type="int" >        8 </v>
  </varray>
 </primitive_cell>
 <kpoints>
  <generation param="Gamma">
   <v type="int" name="divisions">       4        4        3 </v>
   <v name="usershift">      0.50000000       0.50000000       0.00000000 </v>
   <v name="genvec1">      0.25000000      -0.00000000       0.00000000 </v>
   <v name="genvec2">     -0.00000000       0.25000000       0.00000000 </v>
   <v name="genvec3">      0.00000000       0.00000000       0.33333333 </v>
   <v name="shift">      0.50000000       0.50000000       0.00000000 </v>
  </generation>
  <varray name="kpointlist" >
   <v>       0.12500000       0.12500000       0.00000000 </v>
   <v>       0.37500000       0.12500000       0.00000000 </v>
   <v>      -0.37500000       0.12500000       0.00000000 </v>
   <v>      -0.12500000       0.12500000       0.00000000 </v>
   <v>       0.37500000       0.37500000       0.00000000 </v>
   <v>      -0.37500000       0.37500000       0.00000000 </v>
   <v>       0.12500000       0.12500000       0.33333333 </v>
   <v>       0.37500000       0.12500000       0.33333333 </v>
   <v>      -0.37500000       0.12500000       0.33333333 </v>
   <v>      -0.12500000       0.12500000       0.33333333 </v>
   <v>       0.37500000       0.37500000       0.33333333 </v>
   <v>      -0.37500000       0.37500000       0.33333333 </v>
  </varray>
  <varray name="weights" >
   <v>       0.04166667 </v>
   <v>       0.08333333 </v>
   <v>       0.08333333 </v>
   <v>       0.04166667 </v>
   <v>       0.04166667 </v>
   <v>       0.04166667 </v>
   <v>       0.08333333 </v>
   <v>       0.16666667 </v>
   <v>       0.16666667 </v>
   <v>       0.08333333 </v>
   <v>       0.08333333 </v>
   <v>       0.08333333 </v>
  </varray>
 </kpoints>
 <parameters>
  <separator name="general" >
   <i type="string" name="SYSTEM">unknown system</i>
   <i type="logical" name="LCOMPAT"> F  </i>
  </separator>
  <separator name="electronic" >
   <i type="string" name="PREC">normal</i>
   <i name="ENMAX">    400.00000000</i>
   <i name="ENAUG">    407.93300000</i>
   <i name="EDIFF">      0.00000010</i>
   <i type="int" name="IALGO">    38</i>
   <i type="int" name="IWAVPR">    11</i>
   <i type="int" name="NBANDS">    43</i>
   <i type="int" name="NBANDSLOW">    -1</i>
   <i type="int" name="NBANDSHIGH">    -1</i>
   <i name="NELECT">     72.00000000</i>
   <i type="int" name="TURBO">     0</i>
   <i type="int" name="IRESTART">     0</i>
   <i type="int" name="NREBOOT">     0</i>
   <i type="int" name="NMIN">     0</i>
   <i name="EREF">      0.00000000</i>
   <separator name="electronic smearing" >
    <i type="int" name="ISMEAR">     0</i>
    <i name="SIGMA">      0.10000000</i>
    <i name="KSPACING">      0.50000000</i>
    <i type="logical" name="KGAMMA"> T  </i>
    <i type="logical" name="KBLOWUP"> T  </i>
   </separator>
   <separator name="electronic projectors" >
    <i type="logical" name="LREAL"> F  </i>
    <v name="ROPT">      0.00000000</v>
    <i type="int" name="LMAXPAW">  -100</i>
    <i type="int" name="LMAXMIX">     2</i>
    <i type="logical" name="NLSPLINE"> F  </i>
   </separator>
   <separator name="electronic startup" >
    <i type="int" name="ISTART">     0</i>
    <i type="int" name="ICHARG">     2</i>
    <i type="int" name="INIWAV">     1</i>
   </separator>
   <separator name="electronic spin" >
    <i type="int" name="ISPIN">     1</i>
    <i type="logical" name="LNONCOLLINEAR"> F  </i>
    <v name="MAGMOM">      1.00000000      1.00000000      1.00000000      1.00000000      1.00000000      1.00000000      1.00000000      1.00000000</v>
    <i name="NUPDOWN">     -1.00000000</i>
    <i type="logical" name="LSORBIT"> F  </i>
    <v name="SAXIS">      0.00000000      0.00000000      1.00000000</v>
    <i type="logical" name="LSPIRAL"> F  </i>
    <v name="QSPIRAL">      0.00000000      0.00000000      0.00000000</v>
    <i type="logical" name="LZEROZ"> F  </i>
   </separator>
   <separator name="electronic exchange-correlation" >
    <i type="logical" name="LASPH"> T  </i>
   </separator>
   <separator name="electronic convergence" >
    <i type="int" name="NELM">   100</i>
    <i type="int" name="NELMDL">    -5</i>
    <i type="int" name="NELMIN">     2</i>
    <i name="ENINI">    400.00000000</i>
    <separator name="electronic convergence detail" >
     <i type="logical" name="LDIAG"> T  </i>
     <i type="logical" name="LSUBROT"> F  </i>
     <i type="logical" name="LROBUST"> F  </i>
     <i type="int" name="ISEARCH">     0</i>
     <i name="WEIMIN">      0.00100000</i>
     <i name="EBREAK">      0.00000000</i>
     <i name="DEPER">      0.30000000</i>
     <i type="int" name="NRMM">     4</i>
     <i name="TIME">      0.40000000</i>
    </separator>
   </separator>
   <separator name="electronic mixer" >
    <i name="AMIX">      0.40000000</i>
    <i name="BMIX">      1.00000000</i>
    <i name="AMIN">      0.10000000</i>
    <i name="AMIX_MAG">      1.60000000</i>
    <i name="BMIX_MAG">      1.00000000</i>
    <separator name="electronic mixer details" >
     <i type="int" name="IMIX">     4</i>
     <i type="logical" name="MIXFIRST"> F  </i>
     <i type="int" name="MAXMIX">   -45</i>
     <i name="WC">    100.00000000</i>
     <i type="int" name="INIMIX">     1</i>
     <i type="int" name="MIXPRE">     1</i>
     <i type="int" name="MREMOVE">     5</i>
    </separator>
   </separator>
   <separator name="electronic dipolcorrection" >
    <i type="logical" name="LDIPOL"> F  </i>
    <i type="logical" name="LMONO"> F  </i>
    <i type="int" name="IDIPOL">     0</i>
    <i name="EPSILON">      1.00000000</i>
    <v name="DIPOL">   -100.00000000   -100.00000000   -100.00000000</v>
    <i name="EFIELD">      0.00000000</i>
    <i type="logical" name="LVACPOTAV"> F  </i>
   </separator>
  </separator>
  <separator name="grids" >
   <i type="int" name="NGX">    48</i>
   <i type="int" name="NGY">    48</i>
   <i type="int" name="NGZ">    60</i>
   <i type="int" name="NGXF">    96</i>
   <i type="int" name="NGYF">    96</i>
   <i type="int" name="NGZF">   120</i>
   <i type="logical" name="ADDGRID"> F  </i>
  </separator>
  <separator name="ionic" >
   <i type="int" name="NSW">   300</i>
   <i type="int" name="IBRION">     2</i>
   <i type="int" name="MDALGO">     0</i>
   <i type="int" name="ISIF">     3</i>
   <i name="PSTRESS">      0.00000000</i>
   <i name="EDIFFG">     -0.00500000</i>
   <i type="int" name="NFREE">     1</i>
   <i name="POTIM">      0.50000000</i>
   <i name="SMASS">     -3.00000000</i>
   <i name="SCALEE">      1.00000000</i>
  </separator>
  <separator name="ionic md" >
   <i name="TEBEG">      0.00010000</i>
   <i name="TEEND">      0.00010000</i>
   <i type="int" name="NBLOCK">     1</i>
   <i type="int" name="KBLOCK">   300</i>
   <i type="int" name="NPACO">   256</i>
   <i name="APACO">     10.00000000</i>
  </separator>
  <separator name="symmetry" >
   <i type="int" name="ISYM">     2</i>
   <i name="SYMPREC">      0.00001000</i>
  </separator>
  <separator name="dos" >
   <i type="int" name="LORBIT">    10</i>
   <v name="RWIGS">     -1.00000000</v>
   <i type="int" name="NEDOS">   301</i>
   <i name="EMIN">     10.00000000</i>
   <i name="EMAX">    -10.00000000</i>
   <i name="EFERMI">      0.00000000</i>
  </separator>
  <separator name="writing" >
   <i type="int" name="NWRITE">     2</i>
   <i type="logical" name="LWAVE"> F  </i>
   <i type="logical" name="LDOWNSAMPLE"> F  </i>
   <i type="logical" name="LCHARG"> F  </i>
   <i type="logical" name="LPARD"> F  </i>
   <i type="logical" name="LVTOT"> F  </i>
   <i type="logical" name="LVHAR"> F  </i>
   <i type="logical" name="LELF"> F  </i>
   <i type="logical" name="LOPTICS"> F  </i>
   <v name="STM">      0.00000000      0.00000000      0.00000000      0.00000000      0.00000000      0.00000000      0.00000000</v>
  </separator>
  <separator name="performance" >
   <i type="int" name="NPAR">     1</i>
   <i type="int" name="NSIM">     4</i>
   <i type="int" name="NBLK">    -1</i>
   <i type="logical" name="LPLANE"> T  </i>
   <i type="logical" name="LSCALAPACK"> T  </i>
   <i type="logical" name="LSCAAWARE"> F  </i>
   <i type="logical" name="LSCALU"> F  </i>
   <i type="logical" name="LASYNC"> F  </i>
   <i type="logical" name="LORBITALREAL"> F  </i>
  </separator>
  <separator name="miscellaneous" >
   <i type="int" name="IDIOT">     3</i>
   <i type="int" name="PHON_NSTRUCT">    -1</i>
   <i type="logical" name="LMUSIC"> F  </i>
   <v name="POMASS">    132.90000000</v>
   <v name="DARWINR">      0.00000000</v>
   <v name="DARWINV">      1.00000000</v>
   <i type="logical" name="LCORR"> T  </i>
  </separator>
  <i type="logical" name="GGA_COMPAT"> T  </i>
  <i type="logical" name="LBERRY"> F  </i>
  <i type="int" name="ICORELEVEL">     0</i>
  <i type="logical" name="LDAU"> F  </i>
  <i type="int" name="I_CONSTRAINED_M">     0</i>
  <separator name="electronic exchange-correlation" >
   <i type="string" name="GGA    ">PS</i>
   <i type="string" name="XC_C">1</i>
   <i type="int" name="VOSKOWN">     0</i>
   <i type="logical" name="LHFCALC"> F  </i>
   <i type="string" name="PRECFOCK"></i>
   <i type="logical" name="LSYMGRAD"> F  </i>
   <i type="logical" name="LHFONE"> F  </i>
   <i type="logical" name="LRHFCALC"> F  </i>
   <i type="logical" name="LTHOMAS"> F  </i>
   <i type="logical" name="LMODELHF"> F  </i>
   <i type="logical" name="LFOCKACE"> F  </i>
   <i name="ENCUT4O">     -1.00000000</i>
   <i type="int" name="EXXOEP">     0</i>
   <i type="int" name="FOURORBIT">     0</i>
   <i name="AEXX">      0.00000000</i>
   <i name="HFALPHA">      0.00000000</i>
   <i name="MCALPHA">      0.00000000</i>
   <i name="ALDAX">      1.00000000</i>
   <i name="AGGAX">      1.00000000</i>
   <i name="AMGGAX">      1.00000000</i>
   <i name="ALDAC">      1.00000000</i>
   <i name="AGGAC">      1.00000000</i>
   <i name="AMGGAC">      1.00000000</i>
   <i type="int" name="NKREDX">     1</i>
   <i type="int" name="NKREDY">     1</i>
   <i type="int" name="NKREDZ">     1</i>
   <i type="logical" name="SHIFTRED"> F  </i>
   <i type="logical" name="ODDONLY"> F  </i>
   <i type="logical" name="EVENONLY"> F  </i>
   <i type="int" name="LMAXFOCK">     0</i>
   <i type="int" name="NMAXFOCKAE">     0</i>
   <i type="logical" name="LFOCKAEDFT"> F  </i>
   <i name="HFSCREEN">      0.00000000</i>
   <i name="HFSCREENC">      0.00000000</i>
   <i type="int" name="NBANDSGWLOW">     0</i>
  </separator>
  <separator name="vdW DFT" >
   <i type="logical" name="LUSE_VDW"> F  </i>
   <i type="int" name="IVDW_NL">    -1</i>
   <i type="logical" name="LSPIN_VDW"> F  </i>
   <i name="ZAB_VDW">     -0.84910000</i>
   <i name="GAMMA_VDW">      1.39626340</i>
   <i name="ALPHA_VDW">      0.00000000</i>
   <i name="PARAM1">      0.12340000</i>
   <i name="PARAM2">      1.00000000</i>
   <i name="BPARAM">      6.30000000</i>
   <i name="CPARAM">      0.00930000</i>
  </separator>
  <separator name="model GW" >
   <i type="int" name="MODEL_GW">     0</i>
   <i name="MODEL_EPS0">     73.73281691</i>
   <i name="MODEL_ALPHA">      1.00000000</i>
  </separator>
  <separator name="linear response parameters" >
   <i type="logical" name="LEPSILON"> F  </i>
   <i type="logical" name="LRPA"> F  </i>
   <i type="logical" name="LNABLA"> F  </i>
   <i type="logical" name="LVEL"> F  </i>
   <i name="CSHIFT">      0.10000000</i>
   <i name="OMEGAMAX">     -1.00000000</i>
   <i name="DEG_THRESHOLD">      0.00200000</i>
   <i name="RTIME">     -0.10000000</i>
   <i name="WPLASMAI">      0.00000000</i>
   <v name="DFIELD">      0.00000000      0.00000000      0.00000000</v>
   <v name="WPLASMA">      0.00000000      0.00000000      0.00000000      0.00000000      0.00000000      0.00000000      0.00000000      0.00000000      0.00000000</v>
  </separator>
  <separator name="orbital magnetization" >
   <i type="logical" name="NUCIND"> F  </i>
   <v name="MAGPOS">      0.00000000      0.00000000      0.00000000</v>
   <i type="logical" name="LNICSALL"> T  </i>
   <i type="logical" name="ORBITALMAG"> F  </i>
   <i type="logical" name="LMAGBLOCH"> F  </i>
   <i type="logical" name="LCHIMAG"> F  </i>
   <i type="logical" name="LGAUGE"> T  </i>
   <i type="int" name="MAGATOM">     0</i>
   <v name="MAGDIPOL">      0.00000000      0.00000000      0.00000000</v>
   <v name="AVECCONST">      0.00000000      0.00000000      0.00000000</v>
  </separator>
  <separator name="response functions" >
   <i type="logical" name="LALL_IN_ONE"> F  </i>
   <i type="int" name="IALL_IN_ONE">    -1</i>
   <i type="int" name="NBANDS_WAVE">    -1</i>
   <i type="logical" name="LFINITE_TEMPERATURE"> F  </i>
   <i type="logical" name="LADDER"> F  </i>
   <i type="logical" name="LRPAFORCE"> F  </i>
   <i type="logical" name="LFXC"> F  </i>
   <i type="logical" name="LHARTREE"> T  </i>
   <i type="int" name="IBSE">     2</i>
   <v type="int" name="KPOINT">    -1     0     0     0</v>
   <i type="logical" name="LTCTC"> F  </i>
   <i type="logical" name="LTCTE"> F  </i>
   <i type="logical" name="LTETE"> F  </i>
   <i type="logical" name="LTRIPLET"> F  </i>
   <i type="logical" name="LFXCEPS"> F  </i>
   <i type="logical" name="LFXHEG"> F  </i>
   <i type="int" name="NATURALO">     2</i>
   <i type="logical" name="LHOLEGF"> F  </i>
   <i type="logical" name="L2ORDER"> F  </i>
   <i type="logical" name="LDMP1"> F  </i>
   <i type="logical" name="LMP2LT"> F  </i>
   <i type="logical" name="LSMP2LT"> F  </i>
   <i type="logical" name="LGWLF"> F  </i>
   <i name="ENCUTGW">     -1.60000002</i>
   <i name="ENCUTGWSOFT">     -1.60000002</i>
   <i name="ENCUTLF">     -1.00000000</i>
   <i type="logical" name="ESF_SPLINES"> F  </i>
   <i name="ESF_CONV">      0.01000000</i>
   <i type="int" name="ESF_NINTER">    15</i>
   <i type="int" name="LMAXMP2">    -1</i>
   <i name="SCISSOR">      0.00000000</i>
   <i type="int" name="NOMEGA">     0</i>
   <i type="int" name="NOMEGAR">     0</i>
   <i type="int" name="NBANDSGW">    -1</i>
   <i type="int" name="NBANDSO">    -1</i>
   <i type="int" name="NBANDSV">    -1</i>
   <i type="int" name="NELMGW">     1</i>
   <i type="int" name="NELMHF">     1</i>
   <i type="int" name="DIM">     3</i>
   <i type="int" name="IESPILON">     4</i>
   <i type="int" name="ANTIRES">     0</i>
   <i name="OMEGAMAX">    -30.00000000</i>
   <i name="OMEGAMIN">    -30.00000000</i>
   <i name="OMEGATL">   -200.00000000</i>
   <i type="int" name="OMEGAGRID">     0</i>
   <i name="CSHIFT">     -0.10000000</i>
   <i type="logical" name="LSELFENERGY"> F  </i>
   <i type="logical" name="LSPECTRAL"> F  </i>
   <i type="logical" name="LSPECTRALGW"> F  </i>
   <i type="logical" name="LSINGLES"> F  </i>
   <i type="logical" name="LFERMIGW"> F  </i>
   <i type="logical" name="ODDONLYGW"> F  </i>
   <i type="logical" name="EVENONLYGW"> F  </i>
   <i type="int" name="NKREDLFX">     1</i>
   <i type="int" name="NKREDLFY">     1</i>
   <i type="int" name="NKREDLFZ">     1</i>
   <i type="int" name="MAXMEM">  2800</i>
   <i type="int" name="TELESCOPE">     0</i>
   <i type="int" name="NTAUPAR">    -1</i>
   <i type="int" name="NOMEGAPAR">    -1</i>
   <i name="DAMP_NEWTON">      0.80000001</i>
   <i name="LAMBDA">      1.00000000</i>
  </separator>
  <separator name="External order field" >
   <i name="OFIELD_KAPPA">      0.00000000</i>
   <v name="OFIELD_K">      0.00000000      0.00000000      0.00000000</v>
   <i name="OFIELD_Q6_NEAR">      0.00000000</i>
   <i name="OFIELD_Q6_FAR">      0.00000000</i>
   <i name="OFIELD_A">      0.00000000</i>
  </separator>
  <separator name="optional k-points parameters" >
   <i type="int" name="KPOINTS_OPT_MODE">     1</i>
   <i type="logical" name="LKPOINTS_OPT"> F  </i>
  </separator>
 </parameters>
 <atominfo>
  <atoms>       8 </atoms>
  <types>       1 </types>
  <array name="atoms" >
   <dimension dim="1">ion</dimension>
   <field type="string">element</field>
   <field type="int">atomtype</field>
   <set>
    <rc><c>Cs</c><c>   1</c></rc>
    <rc><c>Cs</c><c>   1</c></rc>
    <rc><c>Cs</c><c>   1</c></rc>
    <rc><c>Cs</c><c>   1</c></rc>
    <rc><c>Cs</c><c>   1</c></rc>
    <rc><c>Cs</c><c>   1</c></rc>
    <rc><c>Cs</c><c>   1</c></rc>
    <rc><c>Cs</c><c>   1</c></rc>
   </set>
  </array>
  <array name="atomtypes" >
   <dimension dim="1">type</dimension>
   <field type="int">atomspertype</field>
   <field type="string">element</field>
   <field>mass</field>
   <field>valence</field>
   <field type="string">pseudopotential</field>
   <set>
    <rc><c>   8</c><c>Cs</c><c>    132.90000000</c><c>      9.00000000</c><c>  PAW_PBE Cs_sv 08Apr2002               </c></rc>
   </set>
  </array>
 </atominfo>
 <structure name="initialpos" >
  <crystal>
   <varray name="basis" >
    <v>       7.07359990      -5.92291967       0.00000000 </v>
    <v>       7.07359990       5.92291967       0.00000000 </v>
    <v>       0.00000000       0.00000000      11.73257214 </v>
   </varray>
   <i name="volume">    983.10422547 </i>
   <varray name="rec_basis" >
    <v>       0.07068537      -0.08441783       0.00000000 </v>
    <v>       0.07068537       0.08441783      -0.00000000 </v>
    <v>      -0.00000000       0.00000000       0.08523280 </v>
   </varray>
  </crystal>
  <varray name="positions" >
   <v>       0.25043269       0.74956731       0.24869720 </v>
   <v>       0.25264593       0.25264593       0.00000000 </v>
   <v>       0.75264593       0.75264593       0.50000000 </v>
   <v>       0.74956731       0.25043269       0.75130280 </v>
   <v>       0.24956731       0.75043269       0.74869720 </v>
   <v>       0.74735407       0.74735407       0.00000000 </v>
   <v>       0.75043269       0.24956731       0.25130280 </v>
   <v>       0.24735407       0.24735407       0.50000000 </v>
  </varray>
 </structure>
 <calculation>
  <scstep>
   <time name="dav">    0.43    0.48</time>
   <time name="total">    0.66    0.72</time>
   <energy>
    <i name="alphaZ">    117.02586991 </i>
    <i name="ewald">  -2710.05221124 </i>
    <i name="hartreedc">  -1128.89805453 </i>
    <i name="XCdc">     82.21916462 </i>
    <i name="pawpsdc">   3395.06172738 </i>
    <i name="pawaedc">  -3338.40379319 </i>
    <i name="eentropy">     -0.01808469 </i>
    <i name="bandstr">   -306.68813855 </i>
    <i name="atom">   4445.72066967 </i>
    <i name="e_fr_energy">    555.96714938 </i>
    <i name="e_wo_entrp">    555.98523407 </i>
    <i name="e_0_energy">    555.97619172 </i>
   </energy>
  </scstep>
  <scstep>
   <time name="dav">    0.30    0.30</time>
   <time name="total">    0.30    0.30</time>
   <energy>
    <i name="e_fr_energy">     81.42195573 </i>
    <i name="e_wo_entrp">     81.46217176 </i>
    <i name="e_0_energy">     81.44206375 </i>
   </energy>
  </scstep>
  <scstep>
   <time name="dav">    0.27    0.27</time>
   <time name="total">    0.27    0.27</time>
   <energy>
    <i name="e_fr_energy">     -5.17888806 </i>
    <i name="e_wo_entrp">     -5.13790711 </i>
    <i name="e_0_energy">     -5.15839759 </i>
   </energy>
  </scstep>
  <scstep>
   <time name="dav">    0.27    0.27</time>
   <time name="total">    0.27    0.27</time>
   <energy>
    <i name="e_fr_energy">     -7.48797169 </i>
    <i name="e_wo_entrp">     -7.43621348 </i>
    <i name="e_0_energy">     -7.46209258 </i>
   </energy>
  </scstep>
  <scstep>
   <time name="dav">    0.27    0.27</time>
   <time name="total">    0.52    0.54</time>
   <energy>
    <i name="e_fr_energy">     -7.51062265 </i>
    <i name="e_wo_entrp">     -7.45844229 </i>
    <i name="e_0_energy">     -7.48453247 </i>
   </energy>
  </scstep>
  <scstep>
   <time name="dav">    0.27    0.27</time>
   <time name="total">    0.53    0.53</time>
   <energy>
    <i name="e_fr_energy">     -7.51596171 </i>
    <i name="e_wo_entrp">     -7.46378705 </i>
    <i name="e_0_energy">     -7.48987438 </i>
   </energy>
  </scstep>
  <scstep>
   <time name="dav">    0.27    0.27</time>
   <time name="total">    0.51    0.51</time>
   <energy>
    <i name="e_fr_energy">     -7.52254792 </i>
    <i name="e_wo_entrp">     -7.47041091 </i>
    <i name="e_0_energy">     -7.49647942 </i>
   </energy>
  </scstep>
  <scstep>
   <time name="dav">    0.27    0.27</time>
   <time name="total">    0.52    0.52</time>
   <energy>
    <i name="e_fr_energy">     -7.52325411 </i>
    <i name="e_wo_entrp">     -7.47114859 </i>
    <i name="e_0_energy">     -7.49720135 </i>
   </energy>
  </scstep>
  <scstep>
   <time name="dav">    0.27    0.27</time>
   <time name="total">    0.52    0.52</time>
   <energy>
    <i name="e_fr_energy">     -7.52327843 </i>
    <i name="e_wo_entrp">     -7.47118716 </i>
    <i name="e_0_energy">     -7.49723279 </i>
   </energy>
  </scstep>
  <scstep>
   <time name="dav">    0.27    0.27</time>
   <time name="total">    0.52    0.52</time>
   <energy>
    <i name="e_fr_energy">     -7.52328106 </i>
    <i name="e_wo_entrp">     -7.47119188 </i>
    <i name="e_0_energy">     -7.49723647 </i>
   </energy>
  </scstep>
  <scstep>
   <time name="dav">    0.27    0.27</time>
   <time name="total">    0.54    0.54</time>
   <energy>
    <i name="e_fr_energy">     -7.52328063 </i>
    <i name="e_wo_entrp">     -7.47119118 </i>
    <i name="e_0_energy">     -7.49723591 </i>
   </energy>
  </scstep>
  <scstep>
   <time name="dav">    0.21    0.21</time>
   <time name="total">    0.48    0.48</time>
   <energy>
    <i name="e_fr_energy">     -7.52328095 </i>
    <i name="e_wo_entrp">     -7.47119152 </i>
    <i name="e_0_energy">     -7.49723623 </i>
   </energy>
  </scstep>
  <scstep>
   <time name="dav">    0.20    0.20</time>
   <time name="total">    0.47    0.47</time>
   <energy>
    <i name="e_fr_energy">     -7.52328083 </i>
    <i name="e_wo_entrp">     -7.47119126 </i>
    <i name="e_0_energy">     -7.49723604 </i>
   </energy>
  </scstep>
  <scstep>
   <time name="dav">    0.19    0.19</time>
   <time name="total">    0.38    0.38</time>
   <energy>
    <i name="alphaZ">    117.02586991 </i>
    <i name="ewald">  -2710.05221124 </i>
    <i name="hartreedc">  -1120.88003484 </i>
    <i name="XCdc">     82.06873988 </i>
    <i name="pawpsdc">   3520.00271657 </i>
    <i name="pawaedc">  -3463.83122246 </i>
    <i name="eentropy">     -0.05208961 </i>
    <i name="bandstr">   -877.52571877 </i>
    <i name="atom">   4445.72066967 </i>
    <i name="e_fr_energy">     -7.52328089 </i>
    <i name="e_wo_entrp">     -7.47119128 </i>
    <i name="e_0_energy">     -7.49723609 </i>
   </energy>
  </scstep>
  <structure>
   <crystal>
    <varray name="basis" >
     <v>       7.07359990      -5.92291967       0.00000000 </v>
     <v>       7.07359990       5.92291967       0.00000000 </v>
     <v>       0.00000000       0.00000000      11.73257214 </v>
    </varray>
    <i name="volume">    983.10422547 </i>
    <varray name="rec_basis" >
     <v>       0.07068537      -0.08441783       0.00000000 </v>
     <v>       0.07068537       0.08441783      -0.00000000 </v>
     <v>      -0.00000000       0.00000000       0.08523280 </v>
    </varray>
   </crystal>
   <varray name="positions" >
    <v>       0.25043269       0.74956731       0.24869720 </v>
    <v>       0.25264593       0.25264593       0.00000000 </v>
    <v>       0.75264593       0.75264593       0.50000000 </v>
    <v>       0.74956731       0.25043269       0.75130280 </v>
    <v>       0.24956731       0.75043269       0.74869720 </v>
    <v>       0.74735407       0.74735407       0.00000000 </v>
    <v>       0.75043269       0.24956731       0.25130280 </v>
    <v>       0.24735407       0.24735407       0.50000000 </v>
   </varray>
  </structure>
  <varray name="forces" >
   <v>       0.00000000       0.00144063       0.00367138 </v>
   <v>      -0.01144250      -0.00000000       0.00000000 </v>
   <v>      -0.01144250      -0.00000000       0.00000000 </v>
   <v>       0.00000000      -0.00144063      -0.00367138 </v>
   <v>       0.00000000      -0.00144063       0.00367138 </v>
   <v>       0.01144250      -0.00000000       0.00000000 </v>
   <v>       0.00000000       0.00144063      -0.00367138 </v>
   <v>       0.01144250      -0.00000000       0.00000000 </v>
  </varray>
  <varray name="stress" >
   <v>      -2.12804032       0.00000000       0.00000000 </v>
   <v>       0.00000000      -2.29878151       0.00000000 </v>
   <v>       0.00000000       0.00000000      -1.60300681 </v>
  </varray>
  <energy>
   <i name="e_fr_energy">     -7.52328089 </i>
   <i name="e_wo_entrp">     -7.47119128 </i>
   <i name="e_0_energy">     -7.49723609 </i>
  </energy>
  <time name="totalsc">    8.69    8.80</time>
 </calculation>
 <calculation>
  <scstep>
   <time name="dav">    0.23    0.23</time>
   <time name="total">    0.48    0.48</time>
   <energy>
    <i name="alphaZ">    119.67647483 </i>
    <i name="ewald">  -2730.37006814 </i>
    <i name="hartreedc">  -1129.27105576 </i>
    <i name="XCdc">     83.03940235 </i>
    <i name="pawpsdc">   3519.99297632 </i>
    <i name="pawaedc">  -3463.82148816 </i>
    <i name="eentropy">     -0.05159125 </i>
    <i name="bandstr">   -852.66508181 </i>
    <i name="atom">   4445.72066967 </i>
    <i name="e_fr_energy">     -7.74976196 </i>
    <i name="e_wo_entrp">     -7.69817071 </i>
    <i name="e_0_energy">     -7.72396633 </i>
   </energy>
  </scstep>
  <scstep>
   <time name="dav">    0.24    0.24</time>
   <time name="total">    0.49    0.49</time>
   <energy>
    <i name="e_fr_energy">     -7.60471154 </i>
    <i name="e_wo_entrp">     -7.55301751 </i>
    <i name="e_0_energy">     -7.57886453 </i>
   </energy>
  </scstep>
  <scstep>
   <time name="dav">    0.24    0.24</time>
   <time name="total">    0.51    0.51</time>
   <energy>
    <i name="e_fr_energy">     -7.54921379 </i>
    <i name="e_wo_entrp">     -7.49734834 </i>
    <i name="e_0_energy">     -7.52328107 </i>
   </energy>
  </scstep>
  <scstep>
   <time name="dav">    0.24    0.25</time>
   <time name="total">    0.51    0.51</time>
   <energy>
    <i name="e_fr_energy">     -7.54927112 </i>
    <i name="e_wo_entrp">     -7.49741407 </i>
    <i name="e_0_energy">     -7.52334259 </i>
   </energy>
  </scstep>
  <scstep>
   <time name="dav">    0.28    0.28</time>
   <time name="total">    0.54    0.54</time>
   <energy>
    <i name="e_fr_energy">     -7.54910233 </i>
    <i name="e_wo_entrp">     -7.49723552 </i>
    <i name="e_0_energy">     -7.52316893 </i>
   </energy>
  </scstep>
  <scstep>
   <time name="dav">    0.25    0.25</time>
   <time name="total">    0.52    0.52</time>
   <energy>
    <i name="e_fr_energy">     -7.54909350 </i>
    <i name="e_wo_entrp">     -7.49722878 </i>
    <i name="e_0_energy">     -7.52316114 </i>
   </energy>
  </scstep>
  <scstep>
   <time name="dav">    0.26    0.26</time>
   <time name="total">    0.51    0.51</time>
   <energy>
    <i name="e_fr_energy">     -7.54908723 </i>
    <i name="e_wo_entrp">     -7.49722325 </i>
    <i name="e_0_energy">     -7.52315524 </i>
   </energy>
  </scstep>
  <scstep>
   <time name="dav">    0.19    0.20</time>
   <time name="total">    0.37    0.37</time>
   <energy>
    <i name="alphaZ">    119.67647483 </i>
    <i name="ewald">  -2730.37006814 </i>
    <i name="hartreedc">  -1107.97801026 </i>
    <i name="XCdc">     82.15820837 </i>
    <i name="pawpsdc">   3522.71678116 </i>
    <i name="pawaedc">  -3466.53983255 </i>
    <i name="eentropy">     -0.05186368 </i>
    <i name="bandstr">   -872.88144661 </i>
    <i name="atom">   4445.72066967 </i>
    <i name="e_fr_energy">     -7.54908720 </i>
    <i name="e_wo_entrp">     -7.49722352 </i>
    <i name="e_0_energy">     -7.52315536 </i>
   </energy>
  </scstep>
  <structure>
   <crystal>
    <varray name="basis" >
     <v>       7.01790050      -5.87253902       0.00000000 </v>
     <v>       7.01790050       5.87253902       0.00000000 </v>
     <v>       0.00000000       0.00000000      11.66298023 </v>
    </varray>
    <i name="volume">    961.33034805 </i>
    <varray name="rec_basis" >
     <v>       0.07124638      -0.08514205       0.00000000 </v>
     <v>       0.07124638       0.08514205      -0.00000000 </v>
     <v>      -0.00000000       0.00000000       0.08574138 </v>
    </varray>
   </crystal>
   <varray name="positions" >
    <v>       0.25042682       0.74957318       0.24871230 </v>
    <v>       0.25260691       0.25260691       0.00000000 </v>
    <v>       0.75260691       0.75260691       0.50000000 </v>
    <v>       0.74957318       0.25042682       0.75128770 </v>
    <v>       0.24957318       0.75042682       0.74871230 </v>
    <v>       0.74739309       0.74739309       0.00000000 </v>
    <v>       0.75042682       0.24957318       0.25128770 </v>
    <v>       0.24739309       0.24739309       0.50000000 </v>
   </varray>
  </structure>
  <varray name="forces" >
   <v>       0.00000000       0.00124162       0.00412269 </v>
   <v>      -0.01090083      -0.00000000       0.00000000 </v>
   <v>      -0.01090083      -0.00000000       0.00000000 </v>
   <v>       0.00000000      -0.00124162      -0.00412269 </v>
   <v>       0.00000000      -0.00124162       0.00412269 </v>
   <v>       0.01090083      -0.00000000      -0.00000000 </v>
   <v>       0.00000000       0.00124162      -0.00412269 </v>
   <v>       0.01090083      -0.00000000      -0.00000000 </v>
  </varray>
  <varray name="stress" >
   <v>      -1.83792323       0.00000000       0.00000000 </v>
   <v>       0.00000000      -1.97308041       0.00000000 </v>
   <v>       0.00000000      -0.00000000      -1.28334122 </v>
  </varray>
  <energy>
   <i name="e_fr_energy">     -7.54908720 </i>
   <i name="e_wo_entrp">     -7.49722352 </i>
   <i name="e_0_energy">     -7.52315536 </i>
  </energy>
  <time name="totalsc">    6.11    6.13</time>
 </calculation>
 <calculation>
  <scstep>
   <time name="dav">    0.23    0.23</time>
   <time name="total">    0.48    0.48</time>
   <energy>
    <i name="alphaZ">    128.12768762 </i>
    <i name="ewald">  -2793.20089984 </i>
    <i name="hartreedc">  -1133.44067043 </i>
    <i name="XCdc">     85.25929790 </i>
    <i name="pawpsdc">   3522.69500039 </i>
    <i name="pawaedc">  -3466.51890613 </i>
    <i name="eentropy">     -0.05166955 </i>
    <i name="bandstr">   -798.08795628 </i>
    <i name="atom">   4445.72066967 </i>
    <i name="e_fr_energy">     -9.49744664 </i>
    <i name="e_wo_entrp">     -9.44577709 </i>
    <i name="e_0_energy">     -9.47161187 </i>
   </energy>
  </scstep>
  <scstep>
   <time name="dav">    0.24    0.24</time>
   <time name="total">    0.49    0.49</time>
   <energy>
    <i name="e_fr_energy">     -8.10371171 </i>
    <i name="e_wo_entrp">     -8.05213302 </i>
    <i name="e_0_energy">     -8.07792237 </i>
   </energy>
  </scstep>
  <scstep>
   <time name="dav">    0.23    0.23</time>
   <time name="total">    0.49    0.49</time>
   <energy>
    <i name="e_fr_energy">     -7.59831389 </i>
    <i name="e_wo_entrp">     -7.54636048 </i>
    <i name="e_0_energy">     -7.57233719 </i>
   </energy>
  </scstep>
  <scstep>
   <time name="dav">    0.24    0.24</time>
   <time name="total">    0.51    0.51</time>
   <energy>
    <i name="e_fr_energy">     -7.59834208 </i>
    <i name="e_wo_entrp">     -7.54644639 </i>
    <i name="e_0_energy">     -7.57239423 </i>
   </energy>
  </scstep>
  <scstep>
   <time name="dav">    0.28    0.28</time>
   <time name="total">    0.54    0.55</time>
   <energy>
    <i name="e_fr_energy">     -7.59686913 </i>
    <i name="e_wo_entrp">     -7.54495445 </i>
    <i name="e_0_energy">     -7.57091179 </i>
   </energy>
  </scstep>
  <scstep>
   <time name="dav">    0.25    0.25</time>
   <time name="total">    0.50    0.50</time>
   <energy>
    <i name="e_fr_energy">     -7.59676627 </i>
    <i name="e_wo_entrp">     -7.54485711 </i>
    <i name="e_0_energy">     -7.57081169 </i>
   </energy>
  </scstep>
  <scstep>
   <time name="dav">    0.27    0.27</time>
   <time name="total">    0.52    0.52</time>
   <energy>
    <i name="e_fr_energy">     -7.59674826 </i>
    <i name="e_wo_entrp">     -7.54484059 </i>
    <i name="e_0_energy">     -7.57079443 </i>
   </energy>
  </scstep>
  <scstep>
   <time name="dav">    0.24    0.24</time>
   <time name="total">    0.49    0.49</time>
   <energy>
    <i name="e_fr_energy">     -7.59674877 </i>
    <i name="e_wo_entrp">     -7.54484189 </i>
    <i name="e_0_energy">     -7.57079533 </i>
   </energy>
  </scstep>
  <scstep>
   <time name="dav">    0.20    0.20</time>
   <time name="total">    0.45    0.45</time>
   <energy>
    <i name="e_fr_energy">     -7.59674974 </i>
    <i name="e_wo_entrp">     -7.54484398 </i>
    <i name="e_0_energy">     -7.57079686 </i>
   </energy>
  </scstep>
  <scstep>
   <time name="dav">    0.18    0.18</time>
   <time name="total">    0.36    0.36</time>
   <energy>
    <i name="alphaZ">    128.12768762 </i>
    <i name="ewald">  -2793.20089984 </i>
    <i name="hartreedc">  -1068.50850162 </i>
    <i name="XCdc">     82.44278753 </i>
    <i name="pawpsdc">   3531.50379238 </i>
    <i name="pawaedc">  -3475.31164887 </i>
    <i name="eentropy">     -0.05190561 </i>
    <i name="bandstr">   -858.31873106 </i>
    <i name="atom">   4445.72066967 </i>
    <i name="e_fr_energy">     -7.59674978 </i>
    <i name="e_wo_entrp">     -7.54484418 </i>
    <i name="e_0_energy">     -7.57079698 </i>
   </energy>
  </scstep>
  <structure>
   <crystal>
    <varray name="basis" >
     <v>       6.85080230      -5.72139709       0.00000000 </v>
     <v>       6.85080230       5.72139709       0.00000000 </v>
     <v>       0.00000000       0.00000000      11.45420448 </v>
    </varray>
    <i name="volume">    897.92166968 </i>
    <varray name="rec_basis" >
     <v>       0.07298415      -0.08739124       0.00000000 </v>
     <v>       0.07298415       0.08739124      -0.00000000 </v>
     <v>      -0.00000000       0.00000000       0.08730419 </v>
    </varray>
   </crystal>
   <varray name="positions" >
    <v>       0.25040907       0.74959093       0.24875785 </v>
    <v>       0.25248892       0.25248892       0.00000000 </v>
    <v>       0.75248892       0.75248892       0.50000000 </v>
    <v>       0.74959093       0.25040907       0.75124215 </v>
    <v>       0.24959093       0.75040907       0.74875785 </v>
    <v>       0.74751108       0.74751108       0.00000000 </v>
    <v>       0.75040907       0.24959093       0.25124215 </v>
    <v>       0.24751108       0.24751108       0.50000000 </v>
   </varray>
  </structure>
  <varray name="forces" >
   <v>      -0.00000000       0.00087067       0.00372182 </v>
   <v>      -0.01022815       0.00000000       0.00000000 </v>
   <v>      -0.01022815       0.00000000       0.00000000 </v>
   <v>      -0.00000000      -0.00087067      -0.00372182 </v>
   <v>      -0.00000000      -0.00087067       0.00372182 </v>
   <v>       0.01022815       0.00000000      -0.00000000 </v>
   <v>      -0.00000000       0.00087067      -0.00372182 </v>
   <v>       0.01022815       0.00000000       0.00000000 </v>
  </varray>
  <varray name="stress" >
   <v>      -0.78806278       0.00000000       0.00000000 </v>
   <v>       0.00000000      -0.78359908      -0.00000000 </v>
   <v>       0.00000000       0.00000000      -0.13382376 </v>
  </varray>
  <energy>
   <i name="e_fr_energy">     -7.59674978 </i>
   <i name="e_wo_entrp">     -7.54484418 </i>
   <i name="e_0_energy">     -7.57079698 </i>
  </energy>
  <time name="totalsc">    7.02    7.04</time>
 </calculation>
 <calculation>
  <scstep>
   <time name="dav">    0.23    0.23</time>
   <time name="total">    0.48    0.48</time>
   <energy>
    <i name="alphaZ">    132.56669550 </i>
    <i name="ewald">  -2825.09285693 </i>
    <i name="hartreedc">  -1080.70192497 </i>
    <i name="XCdc">     83.95032428 </i>
    <i name="pawpsdc">   3531.53182623 </i>
    <i name="pawaedc">  -3475.33956571 </i>
    <i name="eentropy">     -0.05229119 </i>
    <i name="bandstr">   -820.65338118 </i>
    <i name="atom">   4445.72066967 </i>
    <i name="e_fr_energy">     -8.07050431 </i>
    <i name="e_wo_entrp">     -8.01821311 </i>
    <i name="e_0_energy">     -8.04435871 </i>
   </energy>
  </scstep>
  <scstep>
   <time name="dav">    0.23    0.23</time>
   <time name="total">    0.48    0.48</time>
   <energy>
    <i name="e_fr_energy">     -7.72875738 </i>
    <i name="e_wo_entrp">     -7.67641738 </i>
    <i name="e_0_energy">     -7.70258738 </i>
   </energy>
  </scstep>
  <scstep>
   <time name="dav">    0.23    0.23</time>
   <time name="total">    0.50    0.50</time>
   <energy>
    <i name="e_fr_energy">     -7.60232332 </i>
    <i name="e_wo_entrp">     -7.54980979 </i>
    <i name="e_0_energy">     -7.57606656 </i>
   </energy>
  </scstep>
  <scstep>
   <time name="dav">    0.24    0.24</time>
   <time name="total">    0.51    0.51</time>
   <energy>
    <i name="e_fr_energy">     -7.60237570 </i>
    <i name="e_wo_entrp">     -7.54988634 </i>
    <i name="e_0_energy">     -7.57613102 </i>
   </energy>
  </scstep>
  <scstep>
   <time name="dav">    0.28    0.28</time>
   <time name="total">    0.53    0.53</time>
   <energy>
    <i name="e_fr_energy">     -7.60201227 </i>
    <i name="e_wo_entrp">     -7.54951829 </i>
    <i name="e_0_energy">     -7.57576528 </i>
   </energy>
  </scstep>
  <scstep>
   <time name="dav">    0.25    0.25</time>
   <time name="total">    0.51    0.51</time>
   <energy>
    <i name="e_fr_energy">     -7.60198674 </i>
    <i name="e_wo_entrp">     -7.54949606 </i>
    <i name="e_0_energy">     -7.57574140 </i>
   </energy>
  </scstep>
  <scstep>
   <time name="dav">    0.27    0.27</time>
   <time name="total">    0.51    0.52</time>
   <energy>
    <i name="e_fr_energy">     -7.60197763 </i>
    <i name="e_wo_entrp">     -7.54948793 </i>
    <i name="e_0_energy">     -7.57573278 </i>
   </energy>
  </scstep>
  <scstep>
   <time name="dav">    0.20    0.20</time>
   <time name="total">    0.38    0.38</time>
   <energy>
    <i name="alphaZ">    132.56669550 </i>
    <i name="ewald">  -2825.09285693 </i>
    <i name="hartreedc">  -1048.72498392 </i>
    <i name="XCdc">     82.59099984 </i>
    <i name="pawpsdc">   3536.20797106 </i>
    <i name="pawaedc">  -3480.00621351 </i>
    <i name="eentropy">     -0.05248919 </i>
    <i name="bandstr">   -850.81177019 </i>
    <i name="atom">   4445.72066967 </i>
    <i name="e_fr_energy">     -7.60197765 </i>
    <i name="e_wo_entrp">     -7.54948846 </i>
    <i name="e_0_energy">     -7.57573306 </i>
   </energy>
  </scstep>
  <structure>
   <crystal>
    <varray name="basis" >
     <v>       6.76884097      -5.64726227       0.00000000 </v>
     <v>       6.76884097       5.64726227       0.00000000 </v>
     <v>       0.00000000       0.00000000      11.35180040 </v>
    </varray>
    <i name="volume">    867.85468077 </i>
    <varray name="rec_basis" >
     <v>       0.07386789      -0.08853848       0.00000000 </v>
     <v>       0.07386789       0.08853848      -0.00000000 </v>
     <v>      -0.00000000       0.00000000       0.08809175 </v>
    </varray>
   </crystal>
   <varray name="positions" >
    <v>       0.25040013       0.74959987       0.24878061 </v>
    <v>       0.25242964       0.25242964       0.00000000 </v>
    <v>       0.75242964       0.75242964       0.50000000 </v>
    <v>       0.74959987       0.25040013       0.75121939 </v>
    <v>       0.24959987       0.75040013       0.74878061 </v>
    <v>       0.74757036       0.74757036       0.00000000 </v>
    <v>       0.75040013       0.24959987       0.25121939 </v>
    <v>       0.24757036       0.24757036       0.50000000 </v>
   </varray>
  </structure>
  <varray name="forces" >
   <v>       0.00000000       0.00103079       0.00305476 </v>
   <v>      -0.01137252      -0.00000000      -0.00000000 </v>
   <v>      -0.01137252      -0.00000000      -0.00000000 </v>
   <v>       0.00000000      -0.00103079      -0.00305476 </v>
   <v>       0.00000000      -0.00103079       0.00305476 </v>
   <v>       0.01137252      -0.00000000      -0.00000000 </v>
   <v>       0.00000000       0.00103079      -0.00305476 </v>
   <v>       0.01137252      -0.00000000      -0.00000000 </v>
  </varray>
  <varray name="stress" >
   <v>      -0.15163978       0.00000000       0.00000000 </v>
   <v>       0.00000000      -0.06207579       0.00000000 </v>
   <v>       0.00000000       0.00000000       0.54056562 </v>
  </varray>
  <energy>
   <i name="e_fr_energy">     -7.60197765 </i>
   <i name="e_wo_entrp">     -7.54948846 </i>
   <i name="e_0_energy">     -7.57573306 </i>
  </energy>
  <time name="totalsc">    6.10    6.12</time>
 </calculation>
 <calculation>
  <scstep>
   <time name="dav">    0.24    0.24</time>
   <time name="total">    0.48    0.49</time>
   <energy>
    <i name="alphaZ">    132.15077732 </i>
    <i name="ewald">  -2822.13543509 </i>
    <i name="hartreedc">  -1047.62479181 </i>
    <i name="XCdc">     82.45905281 </i>
    <i name="pawpsdc">   3536.13197852 </i>
    <i name="pawaedc">  -3479.93136452 </i>
    <i name="eentropy">     -0.05245747 </i>
    <i name="bandstr">   -854.32441434 </i>
    <i name="atom">   4445.72066967 </i>
    <i name="e_fr_energy">     -7.60598491 </i>
    <i name="e_wo_entrp">     -7.55352744 </i>
    <i name="e_0_energy">     -7.57975618 </i>
   </energy>
  </scstep>
  <scstep>
   <time name="dav">    0.24    0.24</time>
   <time name="total">    0.48    0.49</time>
   <energy>
    <i name="e_fr_energy">     -7.60314319 </i>
    <i name="e_wo_entrp">     -7.55071045 </i>
    <i name="e_0_energy">     -7.57692682 </i>
   </energy>
  </scstep>
  <scstep>
   <time name="dav">    0.24    0.24</time>
   <time name="total">    0.48    0.49</time>
   <energy>
    <i name="e_fr_energy">     -7.60205924 </i>
    <i name="e_wo_entrp">     -7.54964533 </i>
    <i name="e_0_energy">     -7.57585229 </i>
   </energy>
  </scstep>
  <scstep>
   <time name="dav">    0.24    0.24</time>
   <time name="total">    0.49    0.49</time>
   <energy>
    <i name="e_fr_energy">     -7.60205105 </i>
    <i name="e_wo_entrp">     -7.54963603 </i>
    <i name="e_0_energy">     -7.57584354 </i>
   </energy>
  </scstep>
  <scstep>
   <time name="dav">    0.27    0.27</time>
   <time name="total">    0.52    0.52</time>
   <energy>
    <i name="e_fr_energy">     -7.60203999 </i>
    <i name="e_wo_entrp">     -7.54962528 </i>
    <i name="e_0_energy">     -7.57583263 </i>
   </energy>
  </scstep>
  <scstep>
   <time name="dav">    0.19    0.19</time>
   <time name="total">    0.44    0.44</time>
   <energy>
    <i name="e_fr_energy">     -7.60204041 </i>
    <i name="e_wo_entrp">     -7.54962538 </i>
    <i name="e_0_energy">     -7.57583290 </i>
   </energy>
  </scstep>
  <scstep>
   <time name="dav">    0.17    0.17</time>
   <time name="total">    0.42    0.42</time>
   <energy>
    <i name="e_fr_energy">     -7.60204126 </i>
    <i name="e_wo_entrp">     -7.54962604 </i>
    <i name="e_0_energy">     -7.57583365 </i>
   </energy>
  </scstep>
  <scstep>
   <time name="dav">    0.17    0.17</time>
   <time name="total">    0.35    0.35</time>
   <energy>
    <i name="alphaZ">    132.15077732 </i>
    <i name="ewald">  -2822.13543509 </i>
    <i name="hartreedc">  -1050.55043109 </i>
    <i name="XCdc">     82.57736078 </i>
    <i name="pawpsdc">   3535.76404141 </i>
    <i name="pawaedc">  -3479.56429141 </i>
    <i name="eentropy">     -0.05241529 </i>
    <i name="bandstr">   -851.51231765 </i>
    <i name="atom">   4445.72066967 </i>
    <i name="e_fr_energy">     -7.60204133 </i>
    <i name="e_wo_entrp">     -7.54962605 </i>
    <i name="e_0_energy">     -7.57583369 </i>
   </energy>
  </scstep>
  <structure>
   <crystal>
    <varray name="basis" >
     <v>       6.77636319      -5.65406620       0.00000000 </v>
     <v>       6.77636319       5.65406620       0.00000000 </v>
     <v>       0.00000000       0.00000000      11.36119881 </v>
    </varray>
    <i name="volume">    870.58608000 </i>
    <varray name="rec_basis" >
     <v>       0.07378589      -0.08843193       0.00000000 </v>
     <v>       0.07378589       0.08843193      -0.00000000 </v>
     <v>      -0.00000000       0.00000000       0.08801888 </v>
    </varray>
   </crystal>
   <varray name="positions" >
    <v>       0.25040096       0.74959904       0.24877850 </v>
    <v>       0.25243515       0.25243515       0.00000000 </v>
    <v>       0.75243515       0.75243515       0.50000000 </v>
    <v>       0.74959904       0.25040096       0.75122150 </v>
    <v>       0.24959904       0.75040096       0.74877850 </v>
    <v>       0.74756485       0.74756485       0.00000000 </v>
    <v>       0.75040096       0.24959904       0.25122150 </v>
    <v>       0.24756485       0.24756485       0.50000000 </v>
   </varray>
  </structure>
  <varray name="forces" >
   <v>       0.00000000       0.00100198       0.00311272 </v>
   <v>      -0.01129409       0.00000000      -0.00000000 </v>
   <v>      -0.01129409       0.00000000      -0.00000000 </v>
   <v>       0.00000000      -0.00100198      -0.00311272 </v>
   <v>       0.00000000      -0.00100198       0.00311272 </v>
   <v>       0.01129409       0.00000000      -0.00000000 </v>
   <v>       0.00000000       0.00100198      -0.00311272 </v>
   <v>       0.01129409       0.00000000      -0.00000000 </v>
  </varray>
  <varray name="stress" >
   <v>      -0.20992555       0.00000000       0.00000000 </v>
   <v>       0.00000000      -0.12783697       0.00000000 </v>
   <v>       0.00000000      -0.00000000       0.47752808 </v>
  </varray>
  <energy>
   <i name="e_fr_energy">     -7.60204133 </i>
   <i name="e_wo_entrp">     -7.54962605 </i>
   <i name="e_0_energy">     -7.57583369 </i>
  </energy>
  <time name="totalsc">    5.88    5.89</time>
 </calculation>
 <calculation>
  <scstep>
   <time name="dav">    0.24    0.24</time>
   <time name="total">    0.48    0.48</time>
   <energy>
    <i name="alphaZ">    132.14860716 </i>
    <i name="ewald">  -2822.11833469 </i>
    <i name="hartreedc">  -1050.53885001 </i>
    <i name="XCdc">     82.57601528 </i>
    <i name="pawpsdc">   3535.76118136 </i>
    <i name="pawaedc">  -3479.56138190 </i>
    <i name="eentropy">     -0.05176290 </i>
    <i name="bandstr">   -851.54207289 </i>
    <i name="atom">   4445.72066967 </i>
    <i name="e_fr_energy">     -7.60592891 </i>
    <i name="e_wo_entrp">     -7.55416601 </i>
    <i name="e_0_energy">     -7.58004746 </i>
   </energy>
  </scstep>
  <scstep>
   <time name="dav">    0.24    0.24</time>
   <time name="total">    0.48    0.49</time>
   <energy>
    <i name="e_fr_energy">     -7.60400584 </i>
    <i name="e_wo_entrp">     -7.55216443 </i>
    <i name="e_0_energy">     -7.57808514 </i>
   </energy>
  </scstep>
  <scstep>
   <time name="dav">    0.26    0.26</time>
   <time name="total">    0.51    0.51</time>
   <energy>
    <i name="e_fr_energy">     -7.60302682 </i>
    <i name="e_wo_entrp">     -7.55108782 </i>
    <i name="e_0_energy">     -7.57705732 </i>
   </energy>
  </scstep>
  <scstep>
   <time name="dav">    0.26    0.26</time>
   <time name="total">    0.51    0.51</time>
   <energy>
    <i name="e_fr_energy">     -7.60303886 </i>
    <i name="e_wo_entrp">     -7.55109544 </i>
    <i name="e_0_energy">     -7.57706715 </i>
   </energy>
  </scstep>
  <scstep>
   <time name="dav">    0.26    0.27</time>
   <time name="total">    0.51    0.51</time>
   <energy>
    <i name="e_fr_energy">     -7.60303928 </i>
    <i name="e_wo_entrp">     -7.55108862 </i>
    <i name="e_0_energy">     -7.57706395 </i>
   </energy>
  </scstep>
  <scstep>
   <time name="dav">    0.20    0.20</time>
   <time name="total">    0.45    0.45</time>
   <energy>
    <i name="e_fr_energy">     -7.60303915 </i>
    <i name="e_wo_entrp">     -7.55109081 </i>
    <i name="e_0_energy">     -7.57706498 </i>
   </energy>
  </scstep>
  <scstep>
   <time name="dav">    0.19    0.19</time>
   <time name="total">    0.44    0.44</time>
   <energy>
    <i name="e_fr_energy">     -7.60303927 </i>
    <i name="e_wo_entrp">     -7.55109228 </i>
    <i name="e_0_energy">     -7.57706578 </i>
   </energy>
  </scstep>
  <scstep>
   <time name="dav">    0.17    0.17</time>
   <time name="total">    0.35    0.35</time>
   <energy>
    <i name="alphaZ">    132.14860716 </i>
    <i name="ewald">  -2822.11833469 </i>
    <i name="hartreedc">  -1050.55503003 </i>
    <i name="XCdc">     82.57630653 </i>
    <i name="pawpsdc">   3535.67058458 </i>
    <i name="pawaedc">  -3479.47070202 </i>
    <i name="eentropy">     -0.05194687 </i>
    <i name="bandstr">   -851.52319361 </i>
    <i name="atom">   4445.72066967 </i>
    <i name="e_fr_energy">     -7.60303927 </i>
    <i name="e_wo_entrp">     -7.55109240 </i>
    <i name="e_0_energy">     -7.57706583 </i>
   </energy>
  </scstep>
  <structure>
   <crystal>
    <varray name="basis" >
     <v>       6.76566651      -5.64784755       0.00000000 </v>
     <v>       6.76566651       5.64784755       0.00000000 </v>
     <v>       0.00000000      -0.00000000      11.39187742 </v>
    </varray>
    <i name="volume">    870.60037689 </i>
    <varray name="rec_basis" >
     <v>       0.07390255      -0.08852930      -0.00000000 </v>
     <v>       0.07390255       0.08852930       0.00000000 </v>
     <v>      -0.00000000       0.00000000       0.08778184 </v>
    </varray>
   </crystal>
   <varray name="positions" >
    <v>       0.25039275       0.74960725       0.24880376 </v>
    <v>       0.25235855       0.25235855       0.00000000 </v>
    <v>       0.75235855       0.75235855       0.50000000 </v>
    <v>       0.74960725       0.25039275       0.75119624 </v>
    <v>       0.24960725       0.75039275       0.74880376 </v>
    <v>       0.74764145       0.74764145       0.00000000 </v>
    <v>       0.75039275       0.24960725       0.25119624 </v>
    <v>       0.24764145       0.24764145       0.50000000 </v>
   </varray>
  </structure>
  <varray name="forces" >
   <v>       0.00000000       0.00099124       0.00325602 </v>
   <v>      -0.01105115       0.00000000       0.00000000 </v>
   <v>      -0.01105115       0.00000000       0.00000000 </v>
   <v>       0.00000000      -0.00099124      -0.00325602 </v>
   <v>       0.00000000      -0.00099124       0.00325602 </v>
   <v>       0.01105115       0.00000000       0.00000000 </v>
   <v>       0.00000000       0.00099124      -0.00325602 </v>
   <v>       0.01105115       0.00000000       0.00000000 </v>
  </varray>
  <varray name="stress" >
   <v>      -0.22187277       0.00000000       0.00000000 </v>
   <v>       0.00000000      -0.09470210       0.00000000 </v>
   <v>       0.00000000       0.00000000       0.44961598 </v>
  </varray>
  <energy>
   <i name="e_fr_energy">     -7.60303927 </i>
   <i name="e_wo_entrp">     -7.55109240 </i>
   <i name="e_0_energy">     -7.57706583 </i>
  </energy>
  <time name="totalsc">    5.93    5.95</time>
 </calculation>
 <calculation>
  <scstep>
   <time name="dav">    0.24    0.24</time>
   <time name="total">    0.48    0.48</time>
   <energy>
    <i name="alphaZ">    132.15077540 </i>
    <i name="ewald">  -2822.10405216 </i>
    <i name="hartreedc">  -1050.53856193 </i>
    <i name="XCdc">     82.57566499 </i>
    <i name="pawpsdc">   3535.66712071 </i>
    <i name="pawaedc">  -3479.46721206 </i>
    <i name="eentropy">     -0.04989395 </i>
    <i name="bandstr">   -851.58598894 </i>
    <i name="atom">   4445.72066967 </i>
    <i name="e_fr_energy">     -7.63147827 </i>
    <i name="e_wo_entrp">     -7.58158432 </i>
    <i name="e_0_energy">     -7.60653129 </i>
   </energy>
  </scstep>
  <scstep>
   <time name="dav">    0.24    0.24</time>
   <time name="total">    0.48    0.48</time>
   <energy>
    <i name="e_fr_energy">     -7.61431912 </i>
    <i name="e_wo_entrp">     -7.56419483 </i>
    <i name="e_0_energy">     -7.58925698 </i>
   </energy>
  </scstep>
  <scstep>
   <time name="dav">    0.26    0.26</time>
   <time name="total">    0.51    0.51</time>
   <energy>
    <i name="e_fr_energy">     -7.60557417 </i>
    <i name="e_wo_entrp">     -7.55515398 </i>
    <i name="e_0_energy">     -7.58036407 </i>
   </energy>
  </scstep>
  <scstep>
   <time name="dav">    0.26    0.26</time>
   <time name="total">    0.51    0.51</time>
   <energy>
    <i name="e_fr_energy">     -7.60565802 </i>
    <i name="e_wo_entrp">     -7.55522179 </i>
    <i name="e_0_energy">     -7.58043991 </i>
   </energy>
  </scstep>
  <scstep>
   <time name="dav">    0.26    0.26</time>
   <time name="total">    0.51    0.51</time>
   <energy>
    <i name="e_fr_energy">     -7.60566371 </i>
    <i name="e_wo_entrp">     -7.55521068 </i>
    <i name="e_0_energy">     -7.58043719 </i>
   </energy>
  </scstep>
  <scstep>
   <time name="dav">    0.26    0.26</time>
   <time name="total">    0.51    0.51</time>
   <energy>
    <i name="e_fr_energy">     -7.60566277 </i>
    <i name="e_wo_entrp">     -7.55521464 </i>
    <i name="e_0_energy">     -7.58043871 </i>
   </energy>
  </scstep>
  <scstep>
   <time name="dav">    0.26    0.26</time>
   <time name="total">    0.51    0.51</time>
   <energy>
    <i name="e_fr_energy">     -7.60566364 </i>
    <i name="e_wo_entrp">     -7.55521880 </i>
    <i name="e_0_energy">     -7.58044122 </i>
   </energy>
  </scstep>
  <scstep>
   <time name="dav">    0.19    0.20</time>
   <time name="total">    0.37    0.37</time>
   <energy>
    <i name="alphaZ">    132.15077540 </i>
    <i name="ewald">  -2822.10405216 </i>
    <i name="hartreedc">  -1050.55452193 </i>
    <i name="XCdc">     82.57391520 </i>
    <i name="pawpsdc">   3535.46215305 </i>
    <i name="pawaedc">  -3479.26202314 </i>
    <i name="eentropy">     -0.05044380 </i>
    <i name="bandstr">   -851.54213600 </i>
    <i name="atom">   4445.72066967 </i>
    <i name="e_fr_energy">     -7.60566370 </i>
    <i name="e_wo_entrp">     -7.55521990 </i>
    <i name="e_0_energy">     -7.58044180 </i>
   </energy>
  </scstep>
  <structure>
   <crystal>
    <varray name="basis" >
     <v>       6.73357646      -5.62919161       0.00000000 </v>
     <v>       6.73357646       5.62919161       0.00000000 </v>
     <v>       0.00000000      -0.00000000      11.48391323 </v>
    </varray>
    <i name="volume">    870.58609267 </i>
    <varray name="rec_basis" >
     <v>       0.07425474      -0.08882270      -0.00000000 </v>
     <v>       0.07425474       0.08882270       0.00000000 </v>
     <v>      -0.00000000       0.00000000       0.08707833 </v>
    </varray>
   </crystal>
   <varray name="positions" >
    <v>       0.25036809       0.74963191       0.24887935 </v>
    <v>       0.25212842       0.25212842       1.00000000 </v>
    <v>       0.75212842       0.75212842       0.50000000 </v>
    <v>       0.74963191       0.25036809       0.75112065 </v>
    <v>       0.24963191       0.75036809       0.74887935 </v>
    <v>       0.74787158       0.74787158       1.00000000 </v>
    <v>       0.75036809       0.24963191       0.25112065 </v>
    <v>       0.24787158       0.24787158       0.50000000 </v>
   </varray>
  </structure>
  <varray name="forces" >
   <v>      -0.00000000       0.00098013       0.00351103 </v>
   <v>      -0.00979704       0.00000000       0.00000000 </v>
   <v>      -0.00979704       0.00000000       0.00000000 </v>
   <v>      -0.00000000      -0.00098013      -0.00351103 </v>
   <v>      -0.00000000      -0.00098013       0.00351103 </v>
   <v>       0.00979704       0.00000000       0.00000000 </v>
   <v>      -0.00000000       0.00098013      -0.00351103 </v>
   <v>       0.00979704       0.00000000       0.00000000 </v>
  </varray>
  <varray name="stress" >
   <v>      -0.25304555       0.00000000       0.00000000 </v>
   <v>       0.00000000       0.00997246       0.00000000 </v>
   <v>       0.00000000       0.00000000       0.36782161 </v>
  </varray>
  <energy>
   <i name="e_fr_energy">     -7.60566370 </i>
   <i name="e_wo_entrp">     -7.55521990 </i>
   <i name="e_0_energy">     -7.58044180 </i>
  </energy>
  <time name="totalsc">    6.08    6.10</time>
 </calculation>
 <calculation>
  <scstep>
   <time name="dav">    0.23    0.23</time>
   <time name="total">    0.48    0.48</time>
   <energy>
    <i name="alphaZ">    132.19384636 </i>
    <i name="ewald">  -2822.25458842 </i>
    <i name="hartreedc">  -1050.62574110 </i>
    <i name="XCdc">     82.58597288 </i>
    <i name="pawpsdc">   3535.45679613 </i>
    <i name="pawaedc">  -3479.25663936 </i>
    <i name="eentropy">     -0.04640461 </i>
    <i name="bandstr">   -851.48471083 </i>
    <i name="atom">   4445.72066967 </i>
    <i name="e_fr_energy">     -7.71079928 </i>
    <i name="e_wo_entrp">     -7.66439467 </i>
    <i name="e_0_energy">     -7.68759697 </i>
   </energy>
  </scstep>
  <scstep>
   <time name="dav">    0.24    0.24</time>
   <time name="total">    0.48    0.49</time>
   <energy>
    <i name="e_fr_energy">     -7.64342216 </i>
    <i name="e_wo_entrp">     -7.59664705 </i>
    <i name="e_0_energy">     -7.62003460 </i>
   </energy>
  </scstep>
  <scstep>
   <time name="dav">    0.26    0.26</time>
   <time name="total">    0.51    0.51</time>
   <energy>
    <i name="e_fr_energy">     -7.60913419 </i>
    <i name="e_wo_entrp">     -7.56185636 </i>
    <i name="e_0_energy">     -7.58549527 </i>
   </energy>
  </scstep>
  <scstep>
   <time name="dav">    0.26    0.26</time>
   <time name="total">    0.51    0.51</time>
   <energy>
    <i name="e_fr_energy">     -7.60933045 </i>
    <i name="e_wo_entrp">     -7.56202159 </i>
    <i name="e_0_energy">     -7.58567602 </i>
   </energy>
  </scstep>
  <scstep>
   <time name="dav">    0.27    0.27</time>
   <time name="total">    0.52    0.52</time>
   <energy>
    <i name="e_fr_energy">     -7.60935887 </i>
    <i name="e_wo_entrp">     -7.56202967 </i>
    <i name="e_0_energy">     -7.58569427 </i>
   </energy>
  </scstep>
  <scstep>
   <time name="dav">    0.25    0.25</time>
   <time name="total">    0.50    0.50</time>
   <energy>
    <i name="e_fr_energy">     -7.60935962 </i>
    <i name="e_wo_entrp">     -7.56203611 </i>
    <i name="e_0_energy">     -7.58569787 </i>
   </energy>
  </scstep>
  <scstep>
   <time name="dav">    0.26    0.26</time>
   <time name="total">    0.50    0.51</time>
   <energy>
    <i name="e_fr_energy">     -7.60936292 </i>
    <i name="e_wo_entrp">     -7.56204547 </i>
    <i name="e_0_energy">     -7.58570419 </i>
   </energy>
  </scstep>
  <scstep>
   <time name="dav">    0.27    0.27</time>
   <time name="total">    0.52    0.52</time>
   <energy>
    <i name="e_fr_energy">     -7.60936316 </i>
    <i name="e_wo_entrp">     -7.56204788 </i>
    <i name="e_0_energy">     -7.58570552 </i>
   </energy>
  </scstep>
  <scstep>
   <time name="dav">    0.18    0.18</time>
   <time name="total">    0.35    0.36</time>
   <energy>
    <i name="alphaZ">    132.19384636 </i>
    <i name="ewald">  -2822.25458842 </i>
    <i name="hartreedc">  -1050.47091490 </i>
    <i name="XCdc">     82.57114869 </i>
    <i name="pawpsdc">   3535.19305666 </i>
    <i name="pawaedc">  -3478.99208538 </i>
    <i name="eentropy">     -0.04731506 </i>
    <i name="bandstr">   -851.52318078 </i>
    <i name="atom">   4445.72066967 </i>
    <i name="e_fr_energy">     -7.60936315 </i>
    <i name="e_wo_entrp">     -7.56204809 </i>
    <i name="e_0_energy">     -7.58570562 </i>
   </energy>
  </scstep>
  <structure>
   <crystal>
    <varray name="basis" >
     <v>       6.66939636      -5.59187972       0.00000000 </v>
     <v>       6.66939636       5.59187972       0.00000000 </v>
     <v>       0.00000000      -0.00000000      11.66798484 </v>
    </varray>
    <i name="volume">    870.30244119 </i>
    <varray name="rec_basis" >
     <v>       0.07496930      -0.08941537      -0.00000000 </v>
     <v>       0.07496930       0.08941537       0.00000000 </v>
     <v>      -0.00000000       0.00000000       0.08570460 </v>
    </varray>
   </crystal>
   <varray name="positions" >
    <v>       0.25031860       0.74968140       0.24902931 </v>
    <v>       0.25166595       0.25166595       0.00000000 </v>
    <v>       0.75166595       0.75166595       0.50000000 </v>
    <v>       0.74968140       0.25031860       0.75097069 </v>
    <v>       0.24968140       0.75031860       0.74902931 </v>
    <v>       0.74833405       0.74833405       0.00000000 </v>
    <v>       0.75031860       0.24968140       0.25097069 </v>
    <v>       0.24833405       0.24833405       0.50000000 </v>
   </varray>
  </structure>
  <varray name="forces" >
   <v>       0.00000000       0.00096823       0.00265983 </v>
   <v>      -0.00766339       0.00000000       0.00000000 </v>
   <v>      -0.00766339       0.00000000       0.00000000 </v>
   <v>       0.00000000      -0.00096823      -0.00265983 </v>
   <v>       0.00000000      -0.00096823       0.00265983 </v>
   <v>       0.00766339       0.00000000       0.00000000 </v>
   <v>       0.00000000       0.00096823      -0.00265983 </v>
   <v>       0.00766339       0.00000000       0.00000000 </v>
  </varray>
  <varray name="stress" >
   <v>      -0.29659572       0.00000000       0.00000000 </v>
   <v>       0.00000000       0.23931899       0.00000000 </v>
   <v>       0.00000000       0.00000000       0.20715124 </v>
  </varray>
  <energy>
   <i name="e_fr_energy">     -7.60936315 </i>
   <i name="e_wo_entrp">     -7.56204809 </i>
   <i name="e_0_energy">     -7.58570562 </i>
  </energy>
  <time name="totalsc">    6.58    6.60</time>
 </calculation>
 <calculation>
  <scstep>
   <time name="dav">    0.23    0.23</time>
   <time name="total">    0.48    0.48</time>
   <energy>
    <i name="alphaZ">    132.43261727 </i>
    <i name="ewald">  -2823.36559668 </i>
    <i name="hartreedc">  -1050.97118728 </i>
    <i name="XCdc">     82.64761208 </i>
    <i name="pawpsdc">   3535.19154569 </i>
    <i name="pawaedc">  -3478.99057495 </i>
    <i name="eentropy">     -0.04210318 </i>
    <i name="bandstr">   -850.62662767 </i>
    <i name="atom">   4445.72066967 </i>
    <i name="e_fr_energy">     -8.00364505 </i>
    <i name="e_wo_entrp">     -7.96154187 </i>
    <i name="e_0_energy">     -7.98259346 </i>
   </energy>
  </scstep>
  <scstep>
   <time name="dav">    0.24    0.24</time>
   <time name="total">    0.48    0.48</time>
   <energy>
    <i name="e_fr_energy">     -7.74276076 </i>
    <i name="e_wo_entrp">     -7.70029710 </i>
    <i name="e_0_energy">     -7.72152893 </i>
   </energy>
  </scstep>
  <scstep>
   <time name="dav">    0.26    0.26</time>
   <time name="total">    0.51    0.51</time>
   <energy>
    <i name="e_fr_energy">     -7.61008083 </i>
    <i name="e_wo_entrp">     -7.56721028 </i>
    <i name="e_0_energy">     -7.58864555 </i>
   </energy>
  </scstep>
  <scstep>
   <time name="dav">    0.26    0.26</time>
   <time name="total">    0.51    0.51</time>
   <energy>
    <i name="e_fr_energy">     -7.61046744 </i>
    <i name="e_wo_entrp">     -7.56756728 </i>
    <i name="e_0_energy">     -7.58901736 </i>
   </energy>
  </scstep>
  <scstep>
   <time name="dav">    0.27    0.27</time>
   <time name="total">    0.52    0.52</time>
   <energy>
    <i name="e_fr_energy">     -7.61061346 </i>
    <i name="e_wo_entrp">     -7.56770190 </i>
    <i name="e_0_energy">     -7.58915768 </i>
   </energy>
  </scstep>
  <scstep>
   <time name="dav">    0.26    0.26</time>
   <time name="total">    0.50    0.50</time>
   <energy>
    <i name="e_fr_energy">     -7.61062874 </i>
    <i name="e_wo_entrp">     -7.56772102 </i>
    <i name="e_0_energy">     -7.58917488 </i>
   </energy>
  </scstep>
  <scstep>
   <time name="dav">    0.26    0.26</time>
   <time name="total">    0.50    0.50</time>
   <energy>
    <i name="e_fr_energy">     -7.61064090 </i>
    <i name="e_wo_entrp">     -7.56773918 </i>
    <i name="e_0_energy">     -7.58919004 </i>
   </energy>
  </scstep>
  <scstep>
   <time name="dav">    0.26    0.26</time>
   <time name="total">    0.51    0.51</time>
   <energy>
    <i name="e_fr_energy">     -7.61064193 </i>
    <i name="e_wo_entrp">     -7.56774247 </i>
    <i name="e_0_energy">     -7.58919220 </i>
   </energy>
  </scstep>
  <scstep>
   <time name="dav">    0.25    0.25</time>
   <time name="total">    0.43    0.43</time>
   <energy>
    <i name="alphaZ">    132.43261727 </i>
    <i name="ewald">  -2823.36559668 </i>
    <i name="hartreedc">  -1049.89673057 </i>
    <i name="XCdc">     82.57407107 </i>
    <i name="pawpsdc">   3535.23177813 </i>
    <i name="pawaedc">  -3479.02821262 </i>
    <i name="eentropy">     -0.04289915 </i>
    <i name="bandstr">   -851.23633898 </i>
    <i name="atom">   4445.72066967 </i>
    <i name="e_fr_energy">     -7.61064186 </i>
    <i name="e_wo_entrp">     -7.56774271 </i>
    <i name="e_0_energy">     -7.58919229 </i>
   </energy>
  </scstep>
  <structure>
   <crystal>
    <varray name="basis" >
     <v>       6.54103617      -5.51725596       0.00000000 </v>
     <v>       6.54103617       5.51725596       0.00000000 </v>
     <v>       0.00000000      -0.00000000      12.03612808 </v>
    </varray>
    <i name="volume">    868.73331943 </i>
    <varray name="rec_basis" >
     <v>       0.07644049      -0.09062476      -0.00000000 </v>
     <v>       0.07644049       0.09062476       0.00000000 </v>
     <v>      -0.00000000       0.00000000       0.08308320 </v>
    </varray>
   </crystal>
   <varray name="positions" >
    <v>       0.25021897       0.74978103       0.24932449 </v>
    <v>       0.25073211       0.25073211       1.00000000 </v>
    <v>       0.75073211       0.75073211       0.50000000 </v>
    <v>       0.74978103       0.25021897       0.75067551 </v>
    <v>       0.24978103       0.75021897       0.74932449 </v>
    <v>       0.74926789       0.74926789       1.00000000 </v>
    <v>       0.75021897       0.24978103       0.25067551 </v>
    <v>       0.24926789       0.24926789       0.50000000 </v>
   </varray>
  </structure>
  <varray name="forces" >
   <v>       0.00000000       0.00072607       0.00120553 </v>
   <v>      -0.00370256       0.00000000       0.00000000 </v>
   <v>      -0.00370256       0.00000000       0.00000000 </v>
   <v>       0.00000000      -0.00072607      -0.00120553 </v>
   <v>       0.00000000      -0.00072607       0.00120553 </v>
   <v>       0.00370256       0.00000000       0.00000000 </v>
   <v>       0.00000000       0.00072607      -0.00120553 </v>
   <v>       0.00370256       0.00000000       0.00000000 </v>
  </varray>
  <varray name="stress" >
   <v>      -0.32520277       0.00000000       0.00000000 </v>
   <v>       0.00000000       0.76697941       0.00000000 </v>
   <v>       0.00000000       0.00000000      -0.05718015 </v>
  </varray>
  <energy>
   <i name="e_fr_energy">     -7.61064186 </i>
   <i name="e_wo_entrp">     -7.56774271 </i>
   <i name="e_0_energy">     -7.58919229 </i>
  </energy>
  <time name="totalsc">    6.65    6.67</time>
 </calculation>
 <calculation>
  <scstep>
   <time name="dav">    0.23    0.23</time>
   <time name="total">    0.48    0.48</time>
   <energy>
    <i name="alphaZ">    132.32529422 </i>
    <i name="ewald">  -2822.84134444 </i>
    <i name="hartreedc">  -1049.40532273 </i>
    <i name="XCdc">     82.54184335 </i>
    <i name="pawpsdc">   3535.24465220 </i>
    <i name="pawaedc">  -3479.04120226 </i>
    <i name="eentropy">     -0.04453608 </i>
    <i name="bandstr">   -852.15872830 </i>
    <i name="atom">   4445.72066967 </i>
    <i name="e_fr_energy">     -7.65867436 </i>
    <i name="e_wo_entrp">     -7.61413828 </i>
    <i name="e_0_energy">     -7.63640632 </i>
   </energy>
  </scstep>
  <scstep>
   <time name="dav">    0.24    0.24</time>
   <time name="total">    0.48    0.49</time>
   <energy>
    <i name="e_fr_energy">     -7.62704425 </i>
    <i name="e_wo_entrp">     -7.58274990 </i>
    <i name="e_0_energy">     -7.60489707 </i>
   </energy>
  </scstep>
  <scstep>
   <time name="dav">    0.26    0.26</time>
   <time name="total">    0.51    0.51</time>
   <energy>
    <i name="e_fr_energy">     -7.61089662 </i>
    <i name="e_wo_entrp">     -7.56687357 </i>
    <i name="e_0_energy">     -7.58888510 </i>
   </energy>
  </scstep>
  <scstep>
   <time name="dav">    0.25    0.25</time>
   <time name="total">    0.50    0.50</time>
   <energy>
    <i name="e_fr_energy">     -7.61103963 </i>
    <i name="e_wo_entrp">     -7.56702827 </i>
    <i name="e_0_energy">     -7.58903395 </i>
   </energy>
  </scstep>
  <scstep>
   <time name="dav">    0.27    0.27</time>
   <time name="total">    0.51    0.52</time>
   <energy>
    <i name="e_fr_energy">     -7.61105218 </i>
    <i name="e_wo_entrp">     -7.56704923 </i>
    <i name="e_0_energy">     -7.58905071 </i>
   </energy>
  </scstep>
  <scstep>
   <time name="dav">    0.26    0.26</time>
   <time name="total">    0.51    0.51</time>
   <energy>
    <i name="e_fr_energy">     -7.61105099 </i>
    <i name="e_wo_entrp">     -7.56704497 </i>
    <i name="e_0_energy">     -7.58904798 </i>
   </energy>
  </scstep>
  <scstep>
   <time name="dav">    0.25    0.25</time>
   <time name="total">    0.50    0.50</time>
   <energy>
    <i name="e_fr_energy">     -7.61105333 </i>
    <i name="e_wo_entrp">     -7.56704421 </i>
    <i name="e_0_energy">     -7.58904877 </i>
   </energy>
  </scstep>
  <scstep>
   <time name="dav">    0.21    0.21</time>
   <time name="total">    0.46    0.46</time>
   <energy>
    <i name="e_fr_energy">     -7.61105343 </i>
    <i name="e_wo_entrp">     -7.56704350 </i>
    <i name="e_0_energy">     -7.58904847 </i>
   </energy>
  </scstep>
  <scstep>
   <time name="dav">    0.17    0.17</time>
   <time name="total">    0.35    0.35</time>
   <energy>
    <i name="alphaZ">    132.32529422 </i>
    <i name="ewald">  -2822.84134444 </i>
    <i name="hartreedc">  -1050.17096910 </i>
    <i name="XCdc">     82.57185162 </i>
    <i name="pawpsdc">   3535.16425676 </i>
    <i name="pawaedc">  -3478.96193522 </i>
    <i name="eentropy">     -0.04401044 </i>
    <i name="bandstr">   -851.37486643 </i>
    <i name="atom">   4445.72066967 </i>
    <i name="e_fr_energy">     -7.61105335 </i>
    <i name="e_wo_entrp">     -7.56704292 </i>
    <i name="e_0_energy">     -7.58904814 </i>
   </energy>
  </scstep>
  <structure>
   <crystal>
    <varray name="basis" >
     <v>       6.58634733      -5.54359815       0.00000000 </v>
     <v>       6.58634733       5.54359815       0.00000000 </v>
     <v>       0.00000000      -0.00000000      11.90617348 </v>
    </varray>
    <i name="volume">    869.43790965 </i>
    <varray name="rec_basis" >
     <v>       0.07591461      -0.09019413      -0.00000000 </v>
     <v>       0.07591461       0.09019413       0.00000000 </v>
     <v>      -0.00000000       0.00000000       0.08399004 </v>
    </varray>
   </crystal>
   <varray name="positions" >
    <v>       0.25025462       0.74974538       0.24922348 </v>
    <v>       0.25106823       0.25106823       0.00000000 </v>
    <v>       0.75106823       0.75106823       0.50000000 </v>
    <v>       0.74974538       0.25025462       0.75077652 </v>
    <v>       0.24974538       0.75025462       0.74922348 </v>
    <v>       0.74893177       0.74893177       0.00000000 </v>
    <v>       0.75025462       0.24974538       0.25077652 </v>
    <v>       0.24893177       0.24893177       0.50000000 </v>
   </varray>
  </structure>
  <varray name="forces" >
   <v>       0.00000000       0.00086735       0.00148625 </v>
   <v>      -0.00519257      -0.00000000       0.00000000 </v>
   <v>      -0.00519257      -0.00000000       0.00000000 </v>
   <v>       0.00000000      -0.00086735      -0.00148625 </v>
   <v>       0.00000000      -0.00086735       0.00148625 </v>
   <v>       0.00519257      -0.00000000       0.00000000 </v>
   <v>       0.00000000       0.00086735      -0.00148625 </v>
   <v>       0.00519257      -0.00000000       0.00000000 </v>
  </varray>
  <varray name="stress" >
   <v>      -0.33031687       0.00000000       0.00000000 </v>
   <v>       0.00000000       0.56525552       0.00000000 </v>
   <v>       0.00000000       0.00000000       0.02293038 </v>
  </varray>
  <energy>
   <i name="e_fr_energy">     -7.61105335 </i>
   <i name="e_wo_entrp">     -7.56704292 </i>
   <i name="e_0_energy">     -7.58904814 </i>
  </energy>
  <time name="totalsc">    6.50    6.52</time>
 </calculation>
 <calculation>
  <scstep>
   <time name="dav">    0.23    0.23</time>
   <time name="total">    0.48    0.48</time>
   <energy>
    <i name="alphaZ">    132.04815567 </i>
    <i name="ewald">  -2820.88758198 </i>
    <i name="hartreedc">  -1049.39707777 </i>
    <i name="XCdc">     82.48358385 </i>
    <i name="pawpsdc">   3535.13330864 </i>
    <i name="pawaedc">  -3478.93070608 </i>
    <i name="eentropy">     -0.04326313 </i>
    <i name="bandstr">   -853.75684922 </i>
    <i name="atom">   4445.72066967 </i>
    <i name="e_fr_energy">     -7.62976033 </i>
    <i name="e_wo_entrp">     -7.58649720 </i>
    <i name="e_0_energy">     -7.60812876 </i>
   </energy>
  </scstep>
  <scstep>
   <time name="dav">    0.24    0.24</time>
   <time name="total">    0.48    0.48</time>
   <energy>
    <i name="e_fr_energy">     -7.61854993 </i>
    <i name="e_wo_entrp">     -7.57528423 </i>
    <i name="e_0_energy">     -7.59691708 </i>
   </energy>
  </scstep>
  <scstep>
   <time name="dav">    0.26    0.26</time>
   <time name="total">    0.50    0.50</time>
   <energy>
    <i name="e_fr_energy">     -7.61289777 </i>
    <i name="e_wo_entrp">     -7.56963674 </i>
    <i name="e_0_energy">     -7.59126725 </i>
   </energy>
  </scstep>
  <scstep>
   <time name="dav">    0.26    0.26</time>
   <time name="total">    0.50    0.50</time>
   <energy>
    <i name="e_fr_energy">     -7.61295204 </i>
    <i name="e_wo_entrp">     -7.56968986 </i>
    <i name="e_0_energy">     -7.59132095 </i>
   </energy>
  </scstep>
  <scstep>
   <time name="dav">    0.27    0.27</time>
   <time name="total">    0.52    0.52</time>
   <energy>
    <i name="e_fr_energy">     -7.61294405 </i>
    <i name="e_wo_entrp">     -7.56967947 </i>
    <i name="e_0_energy">     -7.59131176 </i>
   </energy>
  </scstep>
  <scstep>
   <time name="dav">    0.26    0.26</time>
   <time name="total">    0.51    0.51</time>
   <energy>
    <i name="e_fr_energy">     -7.61294452 </i>
    <i name="e_wo_entrp">     -7.56968104 </i>
    <i name="e_0_energy">     -7.59131278 </i>
   </energy>
  </scstep>
  <scstep>
   <time name="dav">    0.26    0.26</time>
   <time name="total">    0.51    0.51</time>
   <energy>
    <i name="e_fr_energy">     -7.61294615 </i>
    <i name="e_wo_entrp">     -7.56968388 </i>
    <i name="e_0_energy">     -7.59131501 </i>
   </energy>
  </scstep>
  <scstep>
   <time name="dav">    0.20    0.20</time>
   <time name="total">    0.38    0.38</time>
   <energy>
    <i name="alphaZ">    132.04815567 </i>
    <i name="ewald">  -2820.88758198 </i>
    <i name="hartreedc">  -1051.36249792 </i>
    <i name="XCdc">     82.56133505 </i>
    <i name="pawpsdc">   3534.73921790 </i>
    <i name="pawaedc">  -3478.53727902 </i>
    <i name="eentropy">     -0.04326225 </i>
    <i name="bandstr">   -851.85170329 </i>
    <i name="atom">   4445.72066967 </i>
    <i name="e_fr_energy">     -7.61294617 </i>
    <i name="e_wo_entrp">     -7.56968392 </i>
    <i name="e_0_energy">     -7.59131504 </i>
   </energy>
  </scstep>
  <structure>
   <crystal>
    <varray name="basis" >
     <v>       6.54982304      -5.55788923      -0.00000000 </v>
     <v>       6.54982304       5.55788923       0.00000000 </v>
     <v>       0.00000000      -0.00000000      11.96684463 </v>
    </varray>
    <i name="volume">    871.26265880 </i>
    <varray name="rec_basis" >
     <v>       0.07633794      -0.08996221      -0.00000000 </v>
     <v>       0.07633794       0.08996221       0.00000000 </v>
     <v>       0.00000000      -0.00000000       0.08356422 </v>
    </varray>
   </crystal>
   <varray name="positions" >
    <v>       0.25023005       0.74976995       0.24928222 </v>
    <v>       0.25087787       0.25087787       1.00000000 </v>
    <v>       0.75087787       0.75087787       0.50000000 </v>
    <v>       0.74976995       0.25023005       0.75071778 </v>
    <v>       0.24976995       0.75023005       0.74928222 </v>
    <v>       0.74912213       0.74912213       1.00000000 </v>
    <v>       0.75023005       0.24976995       0.25071778 </v>
    <v>       0.24912213       0.24912213       0.50000000 </v>
   </varray>
  </structure>
  <varray name="forces" >
   <v>      -0.00000000       0.00077095       0.00128880 </v>
   <v>      -0.00415993      -0.00000000      -0.00000000 </v>
   <v>      -0.00415993      -0.00000000      -0.00000000 </v>
   <v>      -0.00000000      -0.00077095      -0.00128880 </v>
   <v>      -0.00000000      -0.00077095       0.00128880 </v>
   <v>       0.00415993      -0.00000000       0.00000000 </v>
   <v>      -0.00000000       0.00077095      -0.00128880 </v>
   <v>       0.00415993      -0.00000000       0.00000000 </v>
  </varray>
  <varray name="stress" >
   <v>      -0.38708285       0.00000000       0.00000000 </v>
   <v>       0.00000000       0.52252946       0.00000000 </v>
   <v>       0.00000000       0.00000000      -0.02327343 </v>
  </varray>
[...]
        <r>  0.0000  0.0075  0.0014 </r>
        <r>  0.0071  0.0009  0.0017 </r>
       </set>
       <set comment="band 37">
        <r>  0.0000  0.0040  0.0048 </r>
        <r>  0.0069  0.0015  0.0022 </r>
        <r>  0.0069  0.0015  0.0022 </r>
        <r>  0.0000  0.0040  0.0048 </r>
        <r>  0.0000  0.0040  0.0048 </r>
        <r>  0.0069  0.0015  0.0022 </r>
        <r>  0.0000  0.0040  0.0048 </r>
        <r>  0.0069  0.0015  0.0022 </r>
       </set>
       <set comment="band 38">
        <r>  0.0069  0.0015  0.0022 </r>
        <r>  0.0000  0.0040  0.0048 </r>
        <r>  0.0000  0.0040  0.0048 </r>
        <r>  0.0069  0.0015  0.0022 </r>
        <r>  0.0069  0.0015  0.0022 </r>
        <r>  0.0000  0.0040  0.0048 </r>
        <r>  0.0069  0.0015  0.0022 </r>
        <r>  0.0000  0.0040  0.0048 </r>
       </set>
       <set comment="band 39">
        <r>  0.0024  0.0045  0.0036 </r>
        <r>  0.0024  0.0045  0.0036 </r>
        <r>  0.0024  0.0045  0.0036 </r>
        <r>  0.0024  0.0045  0.0036 </r>
        <r>  0.0024  0.0045  0.0036 </r>
        <r>  0.0024  0.0045  0.0036 </r>
        <r>  0.0024  0.0045  0.0036 </r>
        <r>  0.0024  0.0045  0.0036 </r>
       </set>
       <set comment="band 40">
        <r>  0.0031  0.0010  0.0063 </r>
        <r>  0.0031  0.0010  0.0063 </r>
        <r>  0.0031  0.0010  0.0063 </r>
        <r>  0.0031  0.0010  0.0063 </r>
        <r>  0.0031  0.0010  0.0063 </r>
        <r>  0.0031  0.0010  0.0063 </r>
        <r>  0.0031  0.0010  0.0063 </r>
        <r>  0.0031  0.0010  0.0063 </r>
       </set>
       <set comment="band 41">
        <r>  0.0000  0.0088  0.0029 </r>
        <r>  0.0000  0.0088  0.0029 </r>
        <r>  0.0000  0.0088  0.0029 </r>
        <r>  0.0000  0.0088  0.0029 </r>
        <r>  0.0000  0.0088  0.0029 </r>
        <r>  0.0000  0.0088  0.0029 </r>
        <r>  0.0000  0.0088  0.0029 </r>
        <r>  0.0000  0.0088  0.0029 </r>
       </set>
       <set comment="band 42">
        <r>  0.0001  0.0026  0.0102 </r>
        <r>  0.0001  0.0026  0.0102 </r>
        <r>  0.0001  0.0026  0.0102 </r>
        <r>  0.0001  0.0026  0.0102 </r>
        <r>  0.0001  0.0026  0.0102 </r>
        <r>  0.0001  0.0026  0.0102 </r>
        <r>  0.0001  0.0026  0.0102 </r>
        <r>  0.0001  0.0026  0.0102 </r>
       </set>
       <set comment="band 43">
        <r>  0.0001  0.0072  0.0055 </r>
        <r>  0.0000  0.0064  0.0061 </r>
        <r>  0.0000  0.0064  0.0061 </r>
        <r>  0.0001  0.0072  0.0055 </r>
        <r>  0.0001  0.0072  0.0055 </r>
        <r>  0.0000  0.0064  0.0061 </r>
        <r>  0.0001  0.0072  0.0055 </r>
        <r>  0.0000  0.0064  0.0061 </r>
       </set>
      </set>
      <set comment="kpoint 12">
       <set comment="band 1">
        <r>  0.1229  0.0000  0.0000 </r>
        <r>  0.1215  0.0000  0.0000 </r>
        <r>  0.1215  0.0000  0.0000 </r>
        <r>  0.1229  0.0000  0.0000 </r>
        <r>  0.1201  0.0000  0.0000 </r>
        <r>  0.1215  0.0000  0.0000 </r>
        <r>  0.1201  0.0000  0.0000 </r>
        <r>  0.1215  0.0000  0.0000 </r>
       </set>
       <set comment="band 2">
        <r>  0.1170  0.0000  0.0000 </r>
        <r>  0.1215  0.0000  0.0000 </r>
        <r>  0.1215  0.0000  0.0000 </r>
        <r>  0.1170  0.0000  0.0000 </r>
        <r>  0.1260  0.0000  0.0000 </r>
        <r>  0.1215  0.0000  0.0000 </r>
        <r>  0.1260  0.0000  0.0000 </r>
        <r>  0.1215  0.0000  0.0000 </r>
       </set>
       <set comment="band 3">
        <r>  0.2526  0.0000  0.0000 </r>
        <r>  0.0000  0.0000  0.0000 </r>
        <r>  0.0000  0.0000  0.0000 </r>
        <r>  0.2526  0.0000  0.0000 </r>
        <r>  0.2335  0.0000  0.0000 </r>
        <r>  0.0000  0.0000  0.0000 </r>
        <r>  0.2335  0.0000  0.0000 </r>
        <r>  0.0000  0.0000  0.0000 </r>
       </set>
       <set comment="band 4">
        <r>  0.0000  0.0000  0.0000 </r>
        <r>  0.2430  0.0000  0.0000 </r>
        <r>  0.2430  0.0000  0.0000 </r>
        <r>  0.0000  0.0000  0.0000 </r>
        <r>  0.0000  0.0000  0.0000 </r>
        <r>  0.2430  0.0000  0.0000 </r>
        <r>  0.0000  0.0000  0.0000 </r>
        <r>  0.2430  0.0000  0.0000 </r>
       </set>
       <set comment="band 5">
        <r>  0.2398  0.0000  0.0000 </r>
        <r>  0.0000  0.0000  0.0000 </r>
        <r>  0.0000  0.0000  0.0000 </r>
        <r>  0.2398  0.0000  0.0000 </r>
        <r>  0.2463  0.0000  0.0000 </r>
        <r>  0.0000  0.0000  0.0000 </r>
        <r>  0.2463  0.0000  0.0000 </r>
        <r>  0.0000  0.0000  0.0000 </r>
       </set>
       <set comment="band 6">
        <r>  0.0000  0.0000  0.0000 </r>
        <r>  0.2431  0.0000  0.0000 </r>
        <r>  0.2431  0.0000  0.0000 </r>
        <r>  0.0000  0.0000  0.0000 </r>
        <r>  0.0000  0.0000  0.0000 </r>
        <r>  0.2431  0.0000  0.0000 </r>
        <r>  0.0000  0.0000  0.0000 </r>
        <r>  0.2431  0.0000  0.0000 </r>
       </set>
       <set comment="band 7">
        <r>  0.1165  0.0000  0.0000 </r>
        <r>  0.1216  0.0000  0.0000 </r>
        <r>  0.1215  0.0000  0.0000 </r>
        <r>  0.1165  0.0000  0.0000 </r>
        <r>  0.1266  0.0000  0.0000 </r>
        <r>  0.1216  0.0000  0.0000 </r>
        <r>  0.1266  0.0000  0.0000 </r>
        <r>  0.1215  0.0000  0.0000 </r>
       </set>
       <set comment="band 8">
        <r>  0.1234  0.0000  0.0000 </r>
        <r>  0.1215  0.0000  0.0000 </r>
        <r>  0.1216  0.0000  0.0000 </r>
        <r>  0.1234  0.0000  0.0000 </r>
        <r>  0.1197  0.0000  0.0000 </r>
        <r>  0.1215  0.0000  0.0000 </r>
        <r>  0.1197  0.0000  0.0000 </r>
        <r>  0.1216  0.0000  0.0000 </r>
       </set>
       <set comment="band 9">
        <r>  0.0000  0.0942  0.0000 </r>
        <r>  0.0000  0.0949  0.0000 </r>
        <r>  0.0000  0.0951  0.0000 </r>
        <r>  0.0000  0.0942  0.0000 </r>
        <r>  0.0000  0.0957  0.0000 </r>
        <r>  0.0000  0.0949  0.0000 </r>
        <r>  0.0000  0.0957  0.0000 </r>
        <r>  0.0000  0.0951  0.0000 </r>
       </set>
       <set comment="band 10">
        <r>  0.0000  0.0866  0.0000 </r>
        <r>  0.0000  0.1040  0.0000 </r>
        <r>  0.0000  0.1040  0.0000 </r>
        <r>  0.0000  0.0866  0.0000 </r>
        <r>  0.0000  0.0858  0.0000 </r>
        <r>  0.0000  0.1040  0.0000 </r>
        <r>  0.0000  0.0858  0.0000 </r>
        <r>  0.0000  0.1040  0.0000 </r>
       </set>
       <set comment="band 11">
        <r>  0.0000  0.1038  0.0000 </r>
        <r>  0.0000  0.0862  0.0000 </r>
        <r>  0.0000  0.0862  0.0000 </r>
        <r>  0.0000  0.1038  0.0000 </r>
        <r>  0.0000  0.1041  0.0000 </r>
        <r>  0.0000  0.0862  0.0000 </r>
        <r>  0.0000  0.1041  0.0000 </r>
        <r>  0.0000  0.0862  0.0000 </r>
       </set>
       <set comment="band 12">
        <r>  0.0000  0.0979  0.0000 </r>
        <r>  0.0000  0.1006  0.0000 </r>
        <r>  0.0000  0.0902  0.0000 </r>
        <r>  0.0000  0.0979  0.0000 </r>
        <r>  0.0000  0.0929  0.0000 </r>
        <r>  0.0000  0.1006  0.0000 </r>
        <r>  0.0000  0.0929  0.0000 </r>
        <r>  0.0000  0.0902  0.0000 </r>
       </set>
       <set comment="band 13">
        <r>  0.0000  0.0951  0.0000 </r>
        <r>  0.0000  0.0903  0.0000 </r>
        <r>  0.0000  0.1007  0.0000 </r>
        <r>  0.0000  0.0951  0.0000 </r>
        <r>  0.0000  0.0958  0.0000 </r>
        <r>  0.0000  0.0903  0.0000 </r>
        <r>  0.0000  0.0958  0.0000 </r>
        <r>  0.0000  0.1007  0.0000 </r>
       </set>
       <set comment="band 14">
        <r>  0.0000  0.0692  0.0000 </r>
        <r>  0.0000  0.1199  0.0000 </r>
        <r>  0.0000  0.1199  0.0000 </r>
        <r>  0.0000  0.0692  0.0000 </r>
        <r>  0.0000  0.0735  0.0000 </r>
        <r>  0.0000  0.1199  0.0000 </r>
        <r>  0.0000  0.0735  0.0000 </r>
        <r>  0.0000  0.1199  0.0000 </r>
       </set>
       <set comment="band 15">
        <r>  0.0000  0.1202  0.0000 </r>
        <r>  0.0000  0.0714  0.0000 </r>
        <r>  0.0000  0.0714  0.0000 </r>
        <r>  0.0000  0.1202  0.0000 </r>
        <r>  0.0000  0.1196  0.0000 </r>
        <r>  0.0000  0.0714  0.0000 </r>
        <r>  0.0000  0.1196  0.0000 </r>
        <r>  0.0000  0.0714  0.0000 </r>
       </set>
       <set comment="band 16">
        <r>  0.0000  0.0964  0.0000 </r>
        <r>  0.0000  0.0963  0.0000 </r>
        <r>  0.0000  0.0961  0.0000 </r>
        <r>  0.0000  0.0964  0.0000 </r>
        <r>  0.0000  0.0960  0.0000 </r>
        <r>  0.0000  0.0963  0.0000 </r>
        <r>  0.0000  0.0960  0.0000 </r>
        <r>  0.0000  0.0961  0.0000 </r>
       </set>
       <set comment="band 17">
        <r>  0.0000  0.0971  0.0000 </r>
        <r>  0.0000  0.0970  0.0000 </r>
        <r>  0.0000  0.0970  0.0000 </r>
        <r>  0.0000  0.0971  0.0000 </r>
        <r>  0.0000  0.0969  0.0000 </r>
        <r>  0.0000  0.0970  0.0000 </r>
        <r>  0.0000  0.0969  0.0000 </r>
        <r>  0.0000  0.0970  0.0000 </r>
       </set>
       <set comment="band 18">
        <r>  0.0000  0.0971  0.0000 </r>
        <r>  0.0000  0.0972  0.0000 </r>
        <r>  0.0000  0.0972  0.0000 </r>
        <r>  0.0000  0.0971  0.0000 </r>
        <r>  0.0000  0.0971  0.0000 </r>
        <r>  0.0000  0.0972  0.0000 </r>
        <r>  0.0000  0.0971  0.0000 </r>
        <r>  0.0000  0.0972  0.0000 </r>
       </set>
       <set comment="band 19">
        <r>  0.0000  0.0018  0.0000 </r>
        <r>  0.0000  0.1916  0.0000 </r>
        <r>  0.0000  0.1924  0.0000 </r>
        <r>  0.0000  0.0018  0.0000 </r>
        <r>  0.0000  0.0028  0.0000 </r>
        <r>  0.0000  0.1916  0.0000 </r>
        <r>  0.0000  0.0028  0.0000 </r>
        <r>  0.0000  0.1924  0.0000 </r>
       </set>
       <set comment="band 20">
        <r>  0.0000  0.1933  0.0000 </r>
        <r>  0.0000  0.0023  0.0000 </r>
        <r>  0.0000  0.0023  0.0000 </r>
        <r>  0.0000  0.1933  0.0000 </r>
        <r>  0.0000  0.1908  0.0000 </r>
        <r>  0.0000  0.0023  0.0000 </r>
        <r>  0.0000  0.1908  0.0000 </r>
        <r>  0.0000  0.0023  0.0000 </r>
       </set>
       <set comment="band 21">
        <r>  0.0000  0.1644  0.0000 </r>
        <r>  0.0000  0.0051  0.0000 </r>
        <r>  0.0000  0.0051  0.0000 </r>
        <r>  0.0000  0.1644  0.0000 </r>
        <r>  0.0000  0.2143  0.0000 </r>
        <r>  0.0000  0.0051  0.0000 </r>
        <r>  0.0000  0.2143  0.0000 </r>
        <r>  0.0000  0.0051  0.0000 </r>
       </set>
       <set comment="band 22">
        <r>  0.0000  0.0010  0.0000 </r>
        <r>  0.0000  0.1939  0.0000 </r>
        <r>  0.0000  0.1931  0.0000 </r>
        <r>  0.0000  0.0010  0.0000 </r>
        <r>  0.0000  0.0009  0.0000 </r>
        <r>  0.0000  0.1939  0.0000 </r>
        <r>  0.0000  0.0009  0.0000 </r>
        <r>  0.0000  0.1931  0.0000 </r>
       </set>
       <set comment="band 23">
        <r>  0.0000  0.1259  0.0000 </r>
        <r>  0.0000  0.0931  0.0000 </r>
        <r>  0.0000  0.0930  0.0000 </r>
        <r>  0.0000  0.1259  0.0000 </r>
        <r>  0.0000  0.0768  0.0000 </r>
        <r>  0.0000  0.0931  0.0000 </r>
        <r>  0.0000  0.0768  0.0000 </r>
        <r>  0.0000  0.0930  0.0000 </r>
       </set>
       <set comment="band 24">
        <r>  0.0000  0.0968  0.0000 </r>
        <r>  0.0000  0.0976  0.0000 </r>
        <r>  0.0000  0.0975  0.0000 </r>
        <r>  0.0000  0.0968  0.0000 </r>
        <r>  0.0000  0.0984  0.0000 </r>
        <r>  0.0000  0.0976  0.0000 </r>
        <r>  0.0000  0.0984  0.0000 </r>
        <r>  0.0000  0.0975  0.0000 </r>
       </set>
       <set comment="band 25">
        <r>  0.0000  0.0982  0.0000 </r>
        <r>  0.0000  0.0977  0.0000 </r>
        <r>  0.0000  0.0977  0.0000 </r>
        <r>  0.0000  0.0982  0.0000 </r>
        <r>  0.0000  0.0973  0.0000 </r>
        <r>  0.0000  0.0977  0.0000 </r>
        <r>  0.0000  0.0973  0.0000 </r>
        <r>  0.0000  0.0977  0.0000 </r>
       </set>
       <set comment="band 26">
        <r>  0.0000  0.1188  0.0000 </r>
        <r>  0.0000  0.0705  0.0000 </r>
        <r>  0.0000  0.0705  0.0000 </r>
        <r>  0.0000  0.1188  0.0000 </r>
        <r>  0.0000  0.1314  0.0000 </r>
        <r>  0.0000  0.0705  0.0000 </r>
        <r>  0.0000  0.1314  0.0000 </r>
        <r>  0.0000  0.0705  0.0000 </r>
       </set>
       <set comment="band 27">
        <r>  0.0000  0.0716  0.0000 </r>
        <r>  0.0000  0.1251  0.0000 </r>
        <r>  0.0000  0.1252  0.0000 </r>
        <r>  0.0000  0.0716  0.0000 </r>
        <r>  0.0000  0.0695  0.0000 </r>
        <r>  0.0000  0.1251  0.0000 </r>
        <r>  0.0000  0.0695  0.0000 </r>
        <r>  0.0000  0.1252  0.0000 </r>
       </set>
       <set comment="band 28">
        <r>  0.0000  0.1039  0.0000 </r>
        <r>  0.0000  0.0975  0.0000 </r>
        <r>  0.0000  0.0982  0.0000 </r>
        <r>  0.0000  0.1039  0.0000 </r>
        <r>  0.0000  0.0918  0.0000 </r>
        <r>  0.0000  0.0975  0.0000 </r>
        <r>  0.0000  0.0918  0.0000 </r>
        <r>  0.0000  0.0982  0.0000 </r>
       </set>
       <set comment="band 29">
        <r>  0.0000  0.0963  0.0000 </r>
        <r>  0.0000  0.0984  0.0000 </r>
        <r>  0.0000  0.0977  0.0000 </r>
        <r>  0.0000  0.0963  0.0000 </r>
        <r>  0.0000  0.0999  0.0000 </r>
        <r>  0.0000  0.0984  0.0000 </r>
        <r>  0.0000  0.0999  0.0000 </r>
        <r>  0.0000  0.0977  0.0000 </r>
       </set>
       <set comment="band 30">
        <r>  0.0000  0.0874  0.0000 </r>
        <r>  0.0000  0.1084  0.0000 </r>
        <r>  0.0000  0.1083  0.0000 </r>
        <r>  0.0000  0.0874  0.0000 </r>
        <r>  0.0000  0.0884  0.0000 </r>
        <r>  0.0000  0.1084  0.0000 </r>
        <r>  0.0000  0.0884  0.0000 </r>
        <r>  0.0000  0.1083  0.0000 </r>
       </set>
       <set comment="band 31">
        <r>  0.0000  0.1103  0.0000 </r>
        <r>  0.0000  0.0879  0.0000 </r>
        <r>  0.0000  0.0879  0.0000 </r>
        <r>  0.0000  0.1103  0.0000 </r>
        <r>  0.0000  0.1065  0.0000 </r>
        <r>  0.0000  0.0879  0.0000 </r>
        <r>  0.0000  0.1065  0.0000 </r>
        <r>  0.0000  0.0879  0.0000 </r>
       </set>
       <set comment="band 32">
        <r>  0.0000  0.0978  0.0000 </r>
        <r>  0.0000  0.0983  0.0000 </r>
        <r>  0.0000  0.0984  0.0000 </r>
        <r>  0.0000  0.0978  0.0000 </r>
        <r>  0.0000  0.0990  0.0000 </r>
        <r>  0.0000  0.0983  0.0000 </r>
        <r>  0.0000  0.0990  0.0000 </r>
        <r>  0.0000  0.0984  0.0000 </r>
       </set>
       <set comment="band 33">
        <r>  0.0045  0.0031  0.0005 </r>
        <r>  0.0045  0.0031  0.0005 </r>
        <r>  0.0045  0.0031  0.0005 </r>
        <r>  0.0045  0.0031  0.0005 </r>
        <r>  0.0045  0.0031  0.0005 </r>
        <r>  0.0045  0.0031  0.0005 </r>
        <r>  0.0045  0.0031  0.0005 </r>
        <r>  0.0045  0.0031  0.0005 </r>
       </set>
       <set comment="band 34">
        <r>  0.0041  0.0029  0.0015 </r>
        <r>  0.0041  0.0029  0.0015 </r>
        <r>  0.0041  0.0029  0.0015 </r>
        <r>  0.0041  0.0029  0.0015 </r>
        <r>  0.0041  0.0029  0.0015 </r>
        <r>  0.0041  0.0029  0.0015 </r>
        <r>  0.0041  0.0029  0.0015 </r>
        <r>  0.0041  0.0029  0.0015 </r>
       </set>
       <set comment="band 35">
        <r>  0.0071  0.0009  0.0017 </r>
        <r>  0.0000  0.0075  0.0014 </r>
        <r>  0.0000  0.0075  0.0014 </r>
        <r>  0.0071  0.0009  0.0017 </r>
        <r>  0.0071  0.0009  0.0017 </r>
        <r>  0.0000  0.0075  0.0014 </r>
        <r>  0.0071  0.0009  0.0017 </r>
        <r>  0.0000  0.0075  0.0014 </r>
       </set>
       <set comment="band 36">
        <r>  0.0000  0.0075  0.0014 </r>
        <r>  0.0071  0.0009  0.0017 </r>
        <r>  0.0071  0.0009  0.0017 </r>
        <r>  0.0000  0.0075  0.0014 </r>
        <r>  0.0000  0.0075  0.0014 </r>
        <r>  0.0071  0.0009  0.0017 </r>
        <r>  0.0000  0.0075  0.0014 </r>
        <r>  0.0071  0.0009  0.0017 </r>
       </set>
       <set comment="band 37">
        <r>  0.0068  0.0015  0.0022 </r>
        <r>  0.0000  0.0040  0.0048 </r>
        <r>  0.0000  0.0040  0.0048 </r>
        <r>  0.0068  0.0015  0.0022 </r>
        <r>  0.0069  0.0015  0.0022 </r>
        <r>  0.0000  0.0040  0.0048 </r>
        <r>  0.0069  0.0015  0.0022 </r>
        <r>  0.0000  0.0040  0.0048 </r>
       </set>
       <set comment="band 38">
        <r>  0.0000  0.0040  0.0048 </r>
        <r>  0.0069  0.0015  0.0022 </r>
        <r>  0.0069  0.0015  0.0022 </r>
        <r>  0.0000  0.0040  0.0048 </r>
        <r>  0.0000  0.0040  0.0048 </r>
        <r>  0.0069  0.0015  0.0022 </r>
        <r>  0.0000  0.0040  0.0048 </r>
        <r>  0.0069  0.0015  0.0022 </r>
       </set>
       <set comment="band 39">
        <r>  0.0024  0.0045  0.0035 </r>
        <r>  0.0024  0.0045  0.0035 </r>
        <r>  0.0024  0.0045  0.0035 </r>
        <r>  0.0024  0.0045  0.0035 </r>
        <r>  0.0024  0.0045  0.0035 </r>
        <r>  0.0024  0.0045  0.0035 </r>
        <r>  0.0024  0.0045  0.0035 </r>
        <r>  0.0024  0.0045  0.0035 </r>
       </set>
       <set comment="band 40">
        <r>  0.0031  0.0010  0.0063 </r>
        <r>  0.0031  0.0010  0.0062 </r>
        <r>  0.0031  0.0010  0.0062 </r>
        <r>  0.0031  0.0010  0.0063 </r>
        <r>  0.0031  0.0010  0.0062 </r>
        <r>  0.0031  0.0010  0.0062 </r>
        <r>  0.0031  0.0010  0.0062 </r>
        <r>  0.0031  0.0010  0.0062 </r>
       </set>
       <set comment="band 41">
        <r>  0.0000  0.0088  0.0029 </r>
        <r>  0.0000  0.0088  0.0029 </r>
        <r>  0.0000  0.0088  0.0029 </r>
        <r>  0.0000  0.0088  0.0029 </r>
        <r>  0.0000  0.0088  0.0029 </r>
        <r>  0.0000  0.0088  0.0029 </r>
        <r>  0.0000  0.0088  0.0029 </r>
        <r>  0.0000  0.0088  0.0029 </r>
       </set>
       <set comment="band 42">
        <r>  0.0003  0.0008  0.0125 </r>
        <r>  0.0001  0.0042  0.0085 </r>
        <r>  0.0001  0.0042  0.0085 </r>
        <r>  0.0003  0.0008  0.0125 </r>
        <r>  0.0000  0.0093  0.0028 </r>
        <r>  0.0001  0.0042  0.0085 </r>
        <r>  0.0000  0.0093  0.0028 </r>
        <r>  0.0001  0.0042  0.0085 </r>
       </set>
       <set comment="band 43">
        <r>  0.0000  0.0059  0.0065 </r>
        <r>  0.0001  0.0077  0.0052 </r>
        <r>  0.0001  0.0077  0.0052 </r>
        <r>  0.0000  0.0059  0.0065 </r>
        <r>  0.0000  0.0059  0.0065 </r>
        <r>  0.0001  0.0077  0.0052 </r>
        <r>  0.0000  0.0059  0.0065 </r>
        <r>  0.0001  0.0077  0.0052 </r>
       </set>
      </set>
     </set>
    </set>
   </array>
  </projected>
 </calculation>
 <structure name="finalpos" >
  <crystal>
   <varray name="basis" >
    <v>       5.87795769      -5.89197832      -0.00000000 </v>
    <v>       5.87795769       5.89197832       0.00000000 </v>
    <v>       0.00000000      -0.00000000      12.54140360 </v>
   </varray>
   <i name="volume">    868.68782700 </i>
   <varray name="rec_basis" >
    <v>       0.08506356      -0.08486114      -0.00000000 </v>
    <v>       0.08506356       0.08486114       0.00000000 </v>
    <v>       0.00000000      -0.00000000       0.07973589 </v>
   </varray>
  </crystal>
  <varray name="positions" >
   <v>       0.24995521       0.75004479       0.25000057 </v>
   <v>       0.24973627       0.24973627       0.00000000 </v>
   <v>       0.74973627       0.74973627       0.50000000 </v>
   <v>       0.75004479       0.24995521       0.74999943 </v>
   <v>       0.25004479       0.74995521       0.75000057 </v>
   <v>       0.75026373       0.75026373       0.00000000 </v>
   <v>       0.74995521       0.25004479       0.24999943 </v>
   <v>       0.25026373       0.25026373       0.50000000 </v>
  </varray>
 </structure>
</modeling>
