 running    2 mpi-ranks, on    1 nodes
 distrk:  each k-point on    1 cores,    2 groups
 distr:  one band on    1 cores,    1 groups
 Offloading initialized ...    2 GPUs detected
 vasp.6.5.1 10Mar25 (build May 13 2025 11:33:44) complex                         
 POSCAR found type information on POSCAR Cs
 POSCAR found :  1 types and       8 ions
 scaLAPACK will be used selectively (only on CPU)
 -----------------------------------------------------------------------------
|                                                                             |
|               ----> ADVICE to this user running VASP <----                  |
|                                                                             |
|     You enforced a specific xc type in the INCAR file but a different       |
|     type was found in the POTCAR file.                                      |
|     I HOPE YOU KNOW WHAT YOU ARE DOING!                                     |
|                                                                             |
 -----------------------------------------------------------------------------

 LDA part: xc-table for (Slater+PW92), standard interpolation
 POSCAR, INCAR and KPOINTS ok, starting setup
 FFT: planning ... GRIDC
 FFT: planning ... GRID_SOFT
 FFT: planning ... GRID
 WAVECAR not read
 entering main loop
       N       E                     dE             d eps       ncg     rms          rms(c)
DAV:   1     0.555967149380E+03    0.55597E+03   -0.21390E+04  1112   0.989E+02
DAV:   2     0.814219557276E+02   -0.47455E+03   -0.46968E+03  1461   0.204E+02
DAV:   3    -0.517888806173E+01   -0.86601E+02   -0.86367E+02  1240   0.861E+01
DAV:   4    -0.748797168971E+01   -0.23091E+01   -0.23015E+01  1232   0.182E+01
DAV:   5    -0.751062265480E+01   -0.22651E-01   -0.22634E-01  1248   0.182E+00    0.925E-01
DAV:   6    -0.751596171260E+01   -0.53391E-02   -0.11818E-02  1240   0.387E-01    0.590E-01
DAV:   7    -0.752254791885E+01   -0.65862E-02   -0.20999E-02  1216   0.568E-01    0.956E-02
DAV:   8    -0.752325410843E+01   -0.70619E-03   -0.10476E-03  1248   0.116E-01    0.412E-02
DAV:   9    -0.752327842541E+01   -0.24317E-04   -0.71189E-05  1224   0.292E-02    0.761E-03
DAV:  10    -0.752328105730E+01   -0.26319E-05   -0.10305E-05  1232   0.104E-02    0.248E-03
DAV:  11    -0.752328063039E+01    0.42691E-06   -0.18601E-06  1248   0.428E-03    0.953E-04
DAV:  12    -0.752328094794E+01   -0.31755E-06   -0.16801E-07   824   0.138E-03    0.286E-04
DAV:  13    -0.752328082635E+01    0.12159E-06   -0.16911E-08   720   0.510E-04    0.146E-04
DAV:  14    -0.752328088948E+01   -0.63131E-07   -0.28872E-09   672   0.232E-04
   1 F= -.75232809E+01 E0= -.74972361E+01  d E =-.752328E+01
 curvature:   0.00 expect dE= 0.000E+00 dE for cont linesearch  0.000E+00
 trial: gam= 0.00000 g(F)=  0.283E-04 g(S)=  0.281E-01 ort = 0.000E+00 (trialstep = 0.100E+01)
 search vector abs. value=  0.281E-01
 bond charge predicted
       N       E                     dE             d eps       ncg     rms          rms(c)
DAV:   1    -0.774976196071E+01   -0.22648E+00   -0.45750E+00  1032   0.751E+00    0.192E+00
DAV:   2    -0.760471154219E+01    0.14505E+00   -0.25554E-01  1056   0.174E+00    0.919E-01
DAV:   3    -0.754921379202E+01    0.55498E-01   -0.19212E-01  1059   0.143E+00    0.194E-01
DAV:   4    -0.754927112157E+01   -0.57330E-04   -0.56561E-03  1080   0.214E-01    0.945E-02
DAV:   5    -0.754910233289E+01    0.16879E-03   -0.56439E-04  1259   0.836E-02    0.175E-02
DAV:   6    -0.754909350282E+01    0.88301E-05   -0.26183E-05  1127   0.175E-02    0.551E-03
DAV:   7    -0.754908723080E+01    0.62720E-05   -0.14531E-06  1184   0.489E-03    0.106E-03
DAV:   8    -0.754908720374E+01    0.27060E-07   -0.17337E-07   728   0.150E-03
   2 F= -.75490872E+01 E0= -.75231554E+01  d E =-.258063E-01
 ZBRENT: can't locate minimum, use default step
 trial-energy change:   -0.025806  1 .order   -0.025746   -0.028143   -0.023348
 step:   4.0000(harm=  5.8700)  dis= 0.00221  next Energy=    -7.594051 (dE=-0.708E-01)
 bond charge predicted
       N       E                     dE             d eps       ncg     rms          rms(c)
DAV:   1    -0.949744664474E+01   -0.19484E+01   -0.43345E+01  1032   0.235E+01    0.592E+00
DAV:   2    -0.810371170927E+01    0.13937E+01   -0.22502E+00  1041   0.546E+00    0.282E+00
DAV:   3    -0.759831389164E+01    0.50540E+00   -0.18296E+00  1032   0.439E+00    0.627E-01
DAV:   4    -0.759834208162E+01   -0.28190E-04   -0.50836E-02  1068   0.688E-01    0.286E-01
DAV:   5    -0.759686912937E+01    0.14730E-02   -0.57412E-03  1259   0.265E-01    0.557E-02
DAV:   6    -0.759676626775E+01    0.10286E-03   -0.25996E-04  1112   0.557E-02    0.198E-02
DAV:   7    -0.759674826349E+01    0.18004E-04   -0.13511E-05  1217   0.162E-02    0.342E-03
DAV:   8    -0.759674877217E+01   -0.50868E-06   -0.50666E-07  1042   0.253E-03    0.143E-03
DAV:   9    -0.759674973796E+01   -0.96579E-06   -0.13575E-07   736   0.189E-03    0.435E-04
DAV:  10    -0.759674978289E+01   -0.44930E-07   -0.10958E-08   634   0.437E-04
   3 F= -.75967498E+01 E0= -.75707970E+01  d E =-.734689E-01
 curvature:  -2.50 expect dE=-0.600E-02 dE for cont linesearch -0.525E-02
 ZBRENT: extrapolating
 opt :   5.4715  next Energy=    -7.602403 (dE=-0.791E-01)
 bond charge predicted
       N       E                     dE             d eps       ncg     rms          rms(c)
DAV:   1    -0.807050430608E+01   -0.47375E+00   -0.10632E+01  1032   0.115E+01    0.293E+00
DAV:   2    -0.772875737761E+01    0.34175E+00   -0.58041E-01  1032   0.270E+00    0.140E+00
DAV:   3    -0.760232331686E+01    0.12643E+00   -0.45212E-01  1032   0.219E+00    0.299E-01
DAV:   4    -0.760237570047E+01   -0.52384E-04   -0.12538E-02  1050   0.333E-01    0.142E-01
DAV:   5    -0.760201227164E+01    0.36343E-03   -0.13134E-03  1265   0.128E-01    0.273E-02
DAV:   6    -0.760198673529E+01    0.25536E-04   -0.61454E-05  1109   0.279E-02    0.848E-03
DAV:   7    -0.760197762946E+01    0.91058E-05   -0.30256E-06  1199   0.742E-03    0.147E-03
DAV:   8    -0.760197765420E+01   -0.24736E-07   -0.17924E-07   753   0.152E-03
   4 F= -.76019777E+01 E0= -.75757331E+01  d E =-.786968E-01
 curvature:  -2.69 expect dE=-0.159E-02 dE for cont linesearch -0.577E-04
 ZBRENT: bracketing found
 ZBRENT: interpolating
 opt :   5.3364  next Energy=    -7.602030 (dE=-0.787E-01)
 bond charge predicted
       N       E                     dE             d eps       ncg     rms          rms(c)
DAV:   1    -0.760598490819E+01   -0.40073E-02   -0.89173E-02  1044   0.104E+00    0.267E-01
DAV:   2    -0.760314318665E+01    0.28417E-02   -0.51299E-03  1050   0.246E-01    0.128E-01
DAV:   3    -0.760205924241E+01    0.10839E-02   -0.37929E-03  1050   0.201E-01    0.263E-02
DAV:   4    -0.760205104829E+01    0.81941E-05   -0.10492E-04  1074   0.292E-02    0.138E-02
DAV:   5    -0.760203999007E+01    0.11058E-04   -0.88453E-06  1241   0.108E-02    0.256E-03
DAV:   6    -0.760204041345E+01   -0.42339E-06   -0.38659E-07   728   0.220E-03    0.829E-04
DAV:   7    -0.760204126389E+01   -0.85044E-06   -0.43637E-08   582   0.105E-03    0.169E-04
DAV:   8    -0.760204133182E+01   -0.67926E-07   -0.12191E-08   588   0.456E-04
   5 F= -.76020413E+01 E0= -.75758337E+01  d E =-.787604E-01
 curvature:  -2.45 expect dE=-0.132E-02 dE for cont linesearch -0.444E-07
 trial: gam= 0.02000 g(F)=  0.267E-04 g(S)=  0.514E-03 ort =-0.226E-04 (trialstep = 0.187E+01)
 search vector abs. value=  0.551E-03
 bond charge predicted
       N       E                     dE             d eps       ncg     rms          rms(c)
DAV:   1    -0.760592890772E+01   -0.38876E-02   -0.23568E-01  1038   0.176E+00    0.247E-01
DAV:   2    -0.760400584258E+01    0.19231E-02   -0.28421E-03  1056   0.207E-01    0.139E-01
DAV:   3    -0.760302682493E+01    0.97902E-03   -0.23497E-03  1199   0.196E-01    0.221E-02
DAV:   4    -0.760303886404E+01   -0.12039E-04   -0.12249E-04  1172   0.364E-02    0.177E-02
DAV:   5    -0.760303928066E+01   -0.41663E-06   -0.76989E-06  1206   0.143E-02    0.728E-03
DAV:   6    -0.760303914776E+01    0.13290E-06   -0.32045E-07   750   0.275E-03    0.197E-03
DAV:   7    -0.760303927036E+01   -0.12260E-06   -0.18976E-07   712   0.197E-03    0.218E-04
DAV:   8    -0.760303927108E+01   -0.71827E-09   -0.14976E-08   588   0.563E-04
   6 F= -.76030393E+01 E0= -.75770658E+01  d E =-.997939E-03
 ZBRENT: can't locate minimum, use default step
 trial-energy change:   -0.000998  1 .order   -0.000982   -0.001008   -0.000957
 step:   7.4692(harm= 36.6586)  dis= 0.00415  next Energy=    -7.611936 (dE=-0.989E-02)
 bond charge predicted
       N       E                     dE             d eps       ncg     rms          rms(c)
DAV:   1    -0.763147826925E+01   -0.28439E-01   -0.21083E+00  1038   0.526E+00    0.739E-01
DAV:   2    -0.761431911833E+01    0.17159E-01   -0.25723E-02  1044   0.606E-01    0.414E-01
DAV:   3    -0.760557417011E+01    0.87449E-02   -0.20006E-02  1193   0.567E-01    0.654E-02
DAV:   4    -0.760565802400E+01   -0.83854E-04   -0.88369E-04  1158   0.984E-02    0.497E-02
DAV:   5    -0.760566370997E+01   -0.56860E-05   -0.62167E-05  1203   0.400E-02    0.162E-02
DAV:   6    -0.760566277321E+01    0.93676E-06   -0.27807E-06  1148   0.797E-03    0.456E-03
DAV:   7    -0.760566364050E+01   -0.86730E-06   -0.15412E-06  1148   0.495E-03    0.124E-03
DAV:   8    -0.760566369857E+01   -0.58067E-07   -0.15715E-07   728   0.157E-03
   7 F= -.76056637E+01 E0= -.75804418E+01  d E =-.362237E-02
 curvature:  -5.54 expect dE=-0.208E-02 dE for cont linesearch -0.183E-02
 ZBRENT: increasing intervall
 opt :  18.6729  next Energy=    -7.609474 (dE=-0.743E-02)
 bond charge predicted
       N       E                     dE             d eps       ncg     rms          rms(c)
DAV:   1    -0.771079927818E+01   -0.10514E+00   -0.83240E+00  1032   0.105E+01    0.147E+00
DAV:   2    -0.764342215918E+01    0.67377E-01   -0.10288E-01  1044   0.119E+00    0.823E-01
DAV:   3    -0.760913418610E+01    0.34288E-01   -0.76250E-02  1194   0.108E+00    0.134E-01
DAV:   4    -0.760933044657E+01   -0.19626E-03   -0.22473E-03  1174   0.161E-01    0.934E-02
DAV:   5    -0.760935886651E+01   -0.28420E-04   -0.18861E-04  1222   0.679E-02    0.165E-02
DAV:   6    -0.760935961917E+01   -0.75265E-06   -0.74245E-06  1137   0.116E-02    0.700E-03
DAV:   7    -0.760936291843E+01   -0.32993E-05   -0.63139E-06  1122   0.101E-02    0.256E-03
DAV:   8    -0.760936316318E+01   -0.24475E-06   -0.76594E-07  1208   0.324E-03    0.136E-03
DAV:   9    -0.760936314511E+01    0.18073E-07   -0.15703E-07   625   0.169E-03
   8 F= -.76093631E+01 E0= -.75857056E+01  d E =-.732181E-02
 curvature: -11.55 expect dE=-0.402E-02 dE for cont linesearch -0.122E-02
 ZBRENT: increasing intervall
 opt :  41.0804  next Energy=    -7.610623 (dE=-0.858E-02)
 bond charge predicted
       N       E                     dE             d eps       ncg     rms          rms(c)
DAV:   1    -0.800364505209E+01   -0.39428E+00   -0.32513E+01  1032   0.207E+01    0.291E+00
DAV:   2    -0.774276076452E+01    0.26088E+00   -0.41161E-01  1038   0.236E+00    0.163E+00
DAV:   3    -0.761008083281E+01    0.13268E+00   -0.28607E-01  1191   0.206E+00    0.274E-01
DAV:   4    -0.761046744310E+01   -0.38661E-03   -0.55781E-03  1171   0.263E-01    0.179E-01
DAV:   5    -0.761061346322E+01   -0.14602E-03   -0.64298E-04  1211   0.121E-01    0.192E-02
DAV:   6    -0.761062874101E+01   -0.15278E-04   -0.33649E-05  1153   0.229E-02    0.130E-02
DAV:   7    -0.761064089803E+01   -0.12157E-04   -0.25721E-05  1145   0.203E-02    0.419E-03
DAV:   8    -0.761064192720E+01   -0.10292E-05   -0.33922E-06  1172   0.685E-03    0.272E-03
DAV:   9    -0.761064186313E+01    0.64075E-07   -0.57010E-07  1114   0.302E-03
   9 F= -.76106419E+01 E0= -.75891923E+01  d E =-.860053E-02
 curvature: -11.92 expect dE=-0.148E-01 dE for cont linesearch -0.375E-03
 ZBRENT: bracketing found
 ZBRENT: interpolating
 opt :  33.1705  next Energy=    -7.611162 (dE=-0.912E-02)
 bond charge predicted
       N       E                     dE             d eps       ncg     rms          rms(c)
DAV:   1    -0.765867436071E+01   -0.48032E-01   -0.40171E+00  1032   0.727E+00    0.102E+00
DAV:   2    -0.762704425157E+01    0.31630E-01   -0.48777E-02  1044   0.832E-01    0.572E-01
DAV:   3    -0.761089662459E+01    0.16148E-01   -0.36580E-02  1194   0.769E-01    0.913E-02
DAV:   4    -0.761103963001E+01   -0.14301E-03   -0.15183E-03  1144   0.130E-01    0.684E-02
DAV:   5    -0.761105217764E+01   -0.12548E-04   -0.12947E-04  1220   0.549E-02    0.209E-02
DAV:   6    -0.761105098796E+01    0.11897E-05   -0.58124E-06  1156   0.113E-02    0.598E-03
DAV:   7    -0.761105332760E+01   -0.23396E-05   -0.36499E-06  1129   0.708E-03    0.178E-03
DAV:   8    -0.761105343328E+01   -0.10568E-06   -0.22114E-07   813   0.184E-03    0.824E-04
DAV:   9    -0.761105335306E+01    0.80223E-07   -0.10727E-07   591   0.139E-03
  10 F= -.76110534E+01 E0= -.75890481E+01  d E =-.901202E-02
 curvature: -16.55 expect dE=-0.127E-01 dE for cont linesearch -0.661E-07
 trial: gam= 1.37195 g(F)=  0.577E-05 g(S)=  0.762E-03 ort = 0.148E-05 (trialstep = 0.247E+01)
 search vector abs. value=  0.181E-02
 bond charge predicted
       N       E                     dE             d eps       ncg     rms          rms(c)
DAV:   1    -0.762976032758E+01   -0.18707E-01   -0.13488E+00  1032   0.421E+00    0.606E-01
DAV:   2    -0.761854993214E+01    0.11210E-01   -0.16983E-02  1044   0.507E-01    0.339E-01
DAV:   3    -0.761289776884E+01    0.56522E-02   -0.14626E-02  1164   0.481E-01    0.596E-02
DAV:   4    -0.761295203911E+01   -0.54270E-04   -0.65209E-04  1136   0.869E-02    0.456E-02
DAV:   5    -0.761294404614E+01    0.79930E-05   -0.85796E-05  1220   0.377E-02    0.116E-02
DAV:   6    -0.761294452347E+01   -0.47733E-06   -0.45262E-06  1164   0.821E-03    0.394E-03
DAV:   7    -0.761294614897E+01   -0.16255E-05   -0.27314E-06  1148   0.569E-03    0.123E-03
DAV:   8    -0.761294616608E+01   -0.17115E-07   -0.84224E-08   769   0.916E-04
  11 F= -.76129462E+01 E0= -.75913150E+01  d E =-.189281E-02
 ZBRENT: can't locate minimum, use default step
 trial-energy change:   -0.001893  1 .order   -0.001893   -0.001905   -0.001881
 step:   9.8994(harm=197.4461)  dis= 0.01003  next Energy=    -7.687060 (dE=-0.760E-01)
 bond charge predicted
       N       E                     dE             d eps       ncg     rms          rms(c)
DAV:   1    -0.776882640396E+01   -0.15588E+00   -0.12138E+01  1032   0.126E+01    0.181E+00
DAV:   2    -0.766912269026E+01    0.99704E-01   -0.15413E-01  1038   0.149E+00    0.102E+00
DAV:   3    -0.761831240547E+01    0.50810E-01   -0.12717E-01  1158   0.138E+00    0.178E-01
DAV:   4    -0.761861820732E+01   -0.30580E-03   -0.37890E-03  1146   0.210E-01    0.128E-01
DAV:   5    -0.761859821338E+01    0.19994E-04   -0.66012E-04  1231   0.102E-01    0.216E-02
DAV:   6    -0.761860169455E+01   -0.34812E-05   -0.27854E-05  1175   0.196E-02    0.112E-02
DAV:   7    -0.761860764276E+01   -0.59482E-05   -0.20164E-05  1159   0.158E-02    0.384E-03
DAV:   8    -0.761860896907E+01   -0.13263E-05   -0.13721E-06  1210   0.385E-03    0.164E-03
DAV:   9    -0.761860885939E+01    0.10968E-06   -0.32747E-07   780   0.233E-03    0.498E-04
DAV:  10    -0.761860871691E+01    0.14248E-06   -0.12420E-07   606   0.126E-03    0.288E-04
DAV:  11    -0.761860878264E+01   -0.65737E-07   -0.27814E-08   597   0.753E-04
  12 F= -.76186088E+01 E0= -.75977163E+01  d E =-.755543E-02
 curvature: -17.32 expect dE=-0.148E-01 dE for cont linesearch -0.492E-02
 ZBRENT: increasing intervall
 opt :  24.7484  next Energy=    -7.628597 (dE=-0.175E-01)
 bond charge predicted
       N       E                     dE             d eps       ncg     rms          rms(c)
DAV:   1    -0.822309540533E+01   -0.60449E+00   -0.48793E+01  1032   0.252E+01    0.360E+00
DAV:   2    -0.783148013005E+01    0.39162E+00   -0.62483E-01  1038   0.297E+00    0.203E+00
DAV:   3    -0.762831258920E+01    0.20317E+00   -0.50239E-01  1149   0.268E+00    0.357E-01
DAV:   4    -0.762905470068E+01   -0.74211E-03   -0.99610E-03  1161   0.340E-01    0.247E-01
DAV:   5    -0.762902561001E+01    0.29091E-04   -0.21125E-03  1234   0.181E-01    0.359E-02
DAV:   6    -0.762907371415E+01   -0.48104E-04   -0.10653E-04  1154   0.397E-02    0.222E-02
DAV:   7    -0.762908332706E+01   -0.96129E-05   -0.65493E-05  1186   0.291E-02    0.712E-03
DAV:   8    -0.762909037838E+01   -0.70513E-05   -0.11417E-05  1137   0.112E-02    0.509E-03
DAV:   9    -0.762908846013E+01    0.19182E-05   -0.17631E-06  1218   0.492E-03    0.120E-03
DAV:  10    -0.762908832403E+01    0.13610E-06   -0.26594E-07   864   0.192E-03    0.344E-04
DAV:  11    -0.762908836206E+01   -0.38028E-07   -0.17309E-08   615   0.608E-04
  13 F= -.76290884E+01 E0= -.76091294E+01  d E =-.180350E-01
 curvature: -35.19 expect dE=-0.545E-01 dE for cont linesearch -0.610E-02
 ZBRENT: increasing intervall
 opt :  54.4466  next Energy=    -7.641076 (dE=-0.300E-01)
 bond charge predicted
       N       E                     dE             d eps       ncg     rms          rms(c)
DAV:   1    -0.998945490176E+01   -0.23604E+01   -0.19967E+02  1032   0.510E+01    0.722E+00
DAV:   2    -0.846320157095E+01    0.15263E+01   -0.27513E+00  1044   0.614E+00    0.409E+00
DAV:   3    -0.762928626063E+01    0.83392E+00   -0.19954E+00  1166   0.525E+00    0.706E-01
DAV:   4    -0.763089918291E+01   -0.16129E-02   -0.34206E-02  1180   0.623E-01    0.472E-01
DAV:   5    -0.763082903843E+01    0.70144E-04   -0.73337E-03  1206   0.333E-01    0.764E-02
DAV:   6    -0.763107736197E+01   -0.24832E-03   -0.56986E-04  1167   0.937E-02    0.442E-02
DAV:   7    -0.763107689464E+01    0.46732E-06   -0.19673E-04  1212   0.530E-02    0.146E-02
DAV:   8    -0.763110276235E+01   -0.25868E-04   -0.64645E-05  1119   0.275E-02    0.101E-02
DAV:   9    -0.763109838410E+01    0.43783E-05   -0.69238E-06  1244   0.104E-02    0.396E-03
DAV:  10    -0.763109778268E+01    0.60142E-06   -0.24829E-06  1170   0.569E-03    0.860E-04
DAV:  11    -0.763109785308E+01   -0.70407E-07   -0.11954E-07   645   0.161E-03
  14 F= -.76310979E+01 E0= -.76108049E+01  d E =-.200445E-01
 curvature: -69.11 expect dE=-0.159E+00 dE for cont linesearch -0.299E-01
 ZBRENT: bracketing found
 ZBRENT: interpolating
 opt :  36.2616  next Energy=    -7.632312 (dE=-0.213E-01)
 bond charge predicted
       N       E                     dE             d eps       ncg     rms          rms(c)
DAV:   1    -0.856165315072E+01   -0.93056E+00   -0.76060E+01  1032   0.316E+01    0.447E+00
DAV:   2    -0.794581744846E+01    0.61584E+00   -0.97006E-01  1032   0.360E+00    0.249E+00
DAV:   3    -0.763380521549E+01    0.31201E+00   -0.66869E-01  1175   0.311E+00    0.432E-01
DAV:   4    -0.763413686364E+01   -0.33165E-03   -0.99289E-03  1188   0.357E-01    0.267E-01
DAV:   5    -0.763449420697E+01   -0.35734E-03   -0.13001E-03  1177   0.175E-01    0.310E-02
DAV:   6    -0.763452036729E+01   -0.26160E-04   -0.35290E-05  1170   0.219E-02    0.192E-02
DAV:   7    -0.763455167726E+01   -0.31310E-04   -0.51836E-05  1108   0.278E-02    0.411E-03
DAV:   8    -0.763455318758E+01   -0.15103E-05   -0.31713E-06  1237   0.615E-03    0.264E-03
DAV:   9    -0.763455382743E+01   -0.63985E-06   -0.10055E-06  1151   0.396E-03    0.755E-04
DAV:  10    -0.763455405644E+01   -0.22900E-06   -0.21348E-07   738   0.178E-03    0.466E-04
DAV:  11    -0.763455410106E+01   -0.44625E-07   -0.20878E-08   600   0.648E-04
  15 F= -.76345541E+01 E0= -.76154138E+01  d E =-.235007E-01
 curvature:  -7.45 expect dE=-0.152E-01 dE for cont linesearch -0.687E-04
 trial: gam= 2.17334 g(F)=  0.144E-04 g(S)=  0.202E-02 ort = 0.129E-03 (trialstep = 0.150E+01)
 search vector abs. value=  0.111E-01
 bond charge predicted
       N       E                     dE             d eps       ncg     rms          rms(c)
DAV:   1    -0.768267705983E+01   -0.48123E-01   -0.31613E+00  1032   0.643E+00    0.968E-01
DAV:   2    -0.765238634582E+01    0.30291E-01   -0.40917E-02  1038   0.771E-01    0.540E-01
DAV:   3    -0.763744571223E+01    0.14941E-01   -0.44140E-02  1147   0.794E-01    0.103E-01
DAV:   4    -0.763757179656E+01   -0.12608E-03   -0.17054E-03  1129   0.140E-01    0.757E-02
DAV:   5    -0.763756918013E+01    0.26164E-05   -0.31711E-04  1234   0.666E-02    0.165E-02
DAV:   6    -0.763756211826E+01    0.70619E-05   -0.15170E-05  1125   0.142E-02    0.646E-03
DAV:   7    -0.763756028815E+01    0.18301E-05   -0.94067E-06  1199   0.103E-02    0.191E-03
DAV:   8    -0.763756038849E+01   -0.10034E-06   -0.25351E-07   763   0.154E-03    0.132E-03
DAV:   9    -0.763756044409E+01   -0.55596E-07   -0.15133E-07   718   0.147E-03
  16 F= -.76375604E+01 E0= -.76184463E+01  d E =-.300634E-02
 trial-energy change:   -0.003006  1 .order   -0.002978   -0.003472   -0.002483
 step:   4.0544(harm=  5.2631)  dis= 0.00725  next Energy=    -7.639820 (dE=-0.527E-02)
 bond charge predicted
       N       E                     dE             d eps       ncg     rms          rms(c)
DAV:   1    -0.777558858487E+01   -0.13803E+00   -0.94538E+00  1032   0.111E+01    0.168E+00
DAV:   2    -0.768467099840E+01    0.90918E-01   -0.12448E-01  1044   0.132E+00    0.934E-01
DAV:   3    -0.763992338409E+01    0.44748E-01   -0.13098E-01  1153   0.134E+00    0.179E-01
DAV:   4    -0.764019602871E+01   -0.27264E-03   -0.42140E-03  1141   0.218E-01    0.125E-01
DAV:   5    -0.764015912766E+01    0.36901E-04   -0.85454E-04  1236   0.108E-01    0.222E-02
DAV:   6    -0.764014924851E+01    0.98792E-05   -0.33618E-05  1150   0.207E-02    0.106E-02
DAV:   7    -0.764014622634E+01    0.30222E-05   -0.23104E-05  1173   0.164E-02    0.320E-03
DAV:   8    -0.764014634643E+01   -0.12010E-06   -0.67726E-07   794   0.247E-03    0.224E-03
DAV:   9    -0.764014643267E+01   -0.86237E-07   -0.40802E-07   762   0.247E-03
  17 F= -.76401464E+01 E0= -.76207050E+01  d E =-.559233E-02
 curvature: -11.35 expect dE=-0.520E-02 dE for cont linesearch -0.605E-04
 ZBRENT: extrapolating
 opt :   4.4952  next Energy=    -7.640200 (dE=-0.565E-02)
 bond charge predicted
       N       E                     dE             d eps       ncg     rms          rms(c)
DAV:   1    -0.764441974930E+01   -0.42734E-02   -0.28633E-01  1038   0.193E+00    0.293E-01
DAV:   2    -0.764158261336E+01    0.28371E-02   -0.37620E-03  1044   0.240E-01    0.164E-01
DAV:   3    -0.764018559794E+01    0.13970E-02   -0.43776E-03  1162   0.251E-01    0.323E-02
DAV:   4    -0.764020077330E+01   -0.15175E-04   -0.18955E-04  1132   0.471E-02    0.249E-02
DAV:   5    -0.764020399375E+01   -0.32204E-05   -0.33686E-05  1236   0.216E-02    0.583E-03
DAV:   6    -0.764020272403E+01    0.12697E-05   -0.19392E-06  1151   0.525E-03    0.233E-03
DAV:   7    -0.764020202213E+01    0.70190E-06   -0.11368E-06  1170   0.355E-03    0.591E-04
DAV:   8    -0.764020207361E+01   -0.51486E-07   -0.33537E-08   623   0.584E-04
  18 F= -.76402021E+01 E0= -.76206702E+01  d E =-.564797E-02
 curvature: -10.07 expect dE=-0.382E-02 dE for cont linesearch -0.700E-06
 trial: gam=-0.18152 g(F)=  0.282E-04 g(S)=  0.351E-03 ort =-0.278E-04 (trialstep = 0.210E+01)
 search vector abs. value=  0.757E-03
 bond charge predicted
       N       E                     dE             d eps       ncg     rms          rms(c)
DAV:   1    -0.764782772639E+01   -0.76257E-02   -0.41769E-01  1044   0.233E+00    0.372E-01
DAV:   2    -0.764318029879E+01    0.46474E-02   -0.78019E-03  1044   0.340E-01    0.205E-01
DAV:   3    -0.764091754893E+01    0.22627E-02   -0.74598E-03  1115   0.313E-01    0.434E-02
DAV:   4    -0.764093711890E+01   -0.19570E-04   -0.30034E-04  1161   0.585E-02    0.300E-02
DAV:   5    -0.764093871765E+01   -0.15987E-05   -0.45084E-05  1235   0.264E-02    0.488E-03
DAV:   6    -0.764093754057E+01    0.11771E-05   -0.22211E-06  1138   0.576E-03    0.234E-03
DAV:   7    -0.764093677710E+01    0.76346E-06   -0.10008E-06  1194   0.361E-03    0.710E-04
DAV:   8    -0.764093681204E+01   -0.34942E-07   -0.30908E-08   615   0.599E-04
  19 F= -.76409368E+01 E0= -.76215304E+01  d E =-.734738E-03
 ZBRENT: can't locate minimum, use default step
 trial-energy change:   -0.000735  1 .order   -0.000735   -0.000807   -0.000664
 step:   8.3924(harm= 11.8298)  dis= 0.00758  next Energy=    -7.642476 (dE=-0.227E-02)
 bond charge predicted
       N       E                     dE             d eps       ncg     rms          rms(c)
DAV:   1    -0.770484515036E+01   -0.63908E-01   -0.38036E+00  1032   0.706E+00    0.113E+00
DAV:   2    -0.766257873642E+01    0.42266E-01   -0.71436E-02  1032   0.101E+00    0.618E-01
DAV:   3    -0.764208503271E+01    0.20494E-01   -0.65692E-02  1109   0.923E-01    0.129E-01
DAV:   4    -0.764220964640E+01   -0.12461E-03   -0.25004E-03  1158   0.167E-01    0.875E-02
DAV:   5    -0.764217140577E+01    0.38241E-04   -0.39310E-04  1243   0.779E-02    0.138E-02
DAV:   6    -0.764216681081E+01    0.45950E-05   -0.17359E-05  1138   0.159E-02    0.692E-03
DAV:   7    -0.764216509313E+01    0.17177E-05   -0.85830E-06  1188   0.105E-02    0.216E-03
DAV:   8    -0.764216517227E+01   -0.79142E-07   -0.26604E-07   804   0.168E-03
  20 F= -.76421652E+01 E0= -.76229953E+01  d E =-.196310E-02
 curvature: -10.19 expect dE=-0.174E-02 dE for cont linesearch -0.735E-04
 ZBRENT: extrapolating
 opt :  10.3104  next Energy=    -7.642236 (dE=-0.203E-02)
 bond charge predicted
       N       E                     dE             d eps       ncg     rms          rms(c)
DAV:   1    -0.764816636491E+01   -0.60013E-02   -0.35573E-01  1032   0.215E+00    0.345E-01
DAV:   2    -0.764415271998E+01    0.40136E-02   -0.66972E-03  1032   0.315E-01    0.190E-01
DAV:   3    -0.764220647604E+01    0.19462E-02   -0.64809E-03  1112   0.291E-01    0.404E-02
DAV:   4    -0.764222339289E+01   -0.16917E-04   -0.26042E-04  1158   0.545E-02    0.279E-02
DAV:   5    -0.764222543609E+01   -0.20432E-05   -0.39111E-05  1232   0.247E-02    0.455E-03
DAV:   6    -0.764222432344E+01    0.11127E-05   -0.19240E-06  1146   0.538E-03    0.217E-03
DAV:   7    -0.764222361005E+01    0.71339E-06   -0.86007E-07  1169   0.333E-03    0.644E-04
DAV:   8    -0.764222364582E+01   -0.35777E-07   -0.25779E-08   594   0.546E-04
  21 F= -.76422236E+01 E0= -.76230742E+01  d E =-.202157E-02
 curvature:  -9.82 expect dE=-0.202E-02 dE for cont linesearch -0.439E-06
 trial: gam= 0.43988 g(F)=  0.994E-05 g(S)=  0.196E-03 ort =-0.582E-05 (trialstep = 0.374E+01)
 search vector abs. value=  0.347E-03
 bond charge predicted
       N       E                     dE             d eps       ncg     rms          rms(c)
DAV:   1    -0.764942336165E+01   -0.71998E-02   -0.57874E-01  1032   0.276E+00    0.384E-01
DAV:   2    -0.764514342982E+01    0.42799E-02   -0.92204E-03  1044   0.368E-01    0.214E-01
DAV:   3    -0.764287640120E+01    0.22670E-02   -0.51404E-03  1202   0.286E-01    0.388E-02
DAV:   4    -0.764288810786E+01   -0.11707E-04   -0.28152E-04  1170   0.573E-02    0.275E-02
DAV:   5    -0.764288358724E+01    0.45206E-05   -0.29091E-05  1242   0.216E-02    0.538E-03
DAV:   6    -0.764288432973E+01   -0.74249E-06   -0.15473E-06  1150   0.476E-03    0.194E-03
DAV:   7    -0.764288497101E+01   -0.64127E-06   -0.64967E-07  1034   0.308E-03    0.967E-04
DAV:   8    -0.764288504560E+01   -0.74594E-07   -0.33389E-08   612   0.759E-04
  22 F= -.76428850E+01 E0= -.76237512E+01  d E =-.661400E-03
 ZBRENT: can't locate minimum, use default step
 trial-energy change:   -0.000661  1 .order   -0.000665   -0.000759   -0.000571
 step:  14.9622(harm= 15.1016)  dis= 0.01108  next Energy=    -7.643757 (dE=-0.153E-02)
 bond charge predicted
       N       E                     dE             d eps       ncg     rms          rms(c)
DAV:   1    -0.770235421496E+01   -0.59469E-01   -0.52090E+00  1032   0.827E+00    0.115E+00
DAV:   2    -0.766409062029E+01    0.38264E-01   -0.83476E-02  1044   0.108E+00    0.641E-01
DAV:   3    -0.764367534827E+01    0.20415E-01   -0.44650E-02  1210   0.831E-01    0.116E-01
DAV:   4    -0.764373299320E+01   -0.57645E-04   -0.21014E-03  1170   0.159E-01    0.786E-02
DAV:   5    -0.764372018023E+01    0.12813E-04   -0.26741E-04  1228   0.639E-02    0.127E-02
DAV:   6    -0.764372103831E+01   -0.85808E-06   -0.14838E-05  1169   0.145E-02    0.579E-03
DAV:   7    -0.764372382956E+01   -0.27913E-05   -0.51650E-06  1136   0.870E-03    0.279E-03
DAV:   8    -0.764372441466E+01   -0.58509E-06   -0.45592E-07  1037   0.245E-03    0.921E-04
DAV:   9    -0.764372439396E+01    0.20694E-07   -0.10462E-07   656   0.137E-03
  23 F= -.76437244E+01 E0= -.76243218E+01  d E =-.150075E-02
 curvature: -12.90 expect dE=-0.489E-03 dE for cont linesearch -0.149E-05
 trial: gam= 0.03056 g(F)=  0.138E-05 g(S)=  0.365E-04 ort =-0.632E-05 (trialstep = 0.598E+01)
 search vector abs. value=  0.378E-04
 bond charge predicted
       N       E                     dE             d eps       ncg     rms          rms(c)
DAV:   1    -0.764629181412E+01   -0.25674E-02   -0.16853E-01  1032   0.148E+00    0.221E-01
DAV:   2    -0.764469651202E+01    0.15953E-02   -0.23580E-03  1058   0.189E-01    0.124E-01
DAV:   3    -0.764390199363E+01    0.79452E-03   -0.23441E-03  1148   0.184E-01    0.236E-02
DAV:   4    -0.764391176401E+01   -0.97704E-05   -0.10393E-04  1139   0.344E-02    0.175E-02
DAV:   5    -0.764391482215E+01   -0.30581E-05   -0.16613E-05  1207   0.152E-02    0.386E-03
DAV:   6    -0.764391384723E+01    0.97493E-06   -0.85687E-07  1148   0.343E-03    0.139E-03
DAV:   7    -0.764391338815E+01    0.45908E-06   -0.43368E-07  1063   0.227E-03    0.432E-04
DAV:   8    -0.764391342114E+01   -0.32996E-07   -0.13746E-08   615   0.441E-04
  24 F= -.76439134E+01 E0= -.76245314E+01  d E =-.189027E-03
 trial-energy change:   -0.000189  1 .order   -0.000192   -0.000226   -0.000159
 step:  20.3870(harm= 20.3870)  dis= 0.00308  next Energy=    -7.644109 (dE=-0.384E-03)
 bond charge predicted
       N       E                     dE             d eps       ncg     rms          rms(c)
DAV:   1    -0.765797075352E+01   -0.14057E-01   -0.98294E-01  1032   0.358E+00    0.535E-01
DAV:   2    -0.764867279517E+01    0.92980E-02   -0.13818E-02  1052   0.454E-01    0.298E-01
DAV:   3    -0.764404722819E+01    0.46256E-02   -0.13508E-02  1143   0.441E-01    0.567E-02
DAV:   4    -0.764409512958E+01   -0.47901E-04   -0.58924E-04  1147   0.815E-02    0.416E-02
DAV:   5    -0.764409834148E+01   -0.32119E-05   -0.93012E-05  1203   0.358E-02    0.880E-03
DAV:   6    -0.764409541824E+01    0.29232E-05   -0.46205E-06  1159   0.786E-03    0.322E-03
DAV:   7    -0.764409446677E+01    0.95147E-06   -0.23920E-06  1188   0.532E-03    0.107E-03
DAV:   8    -0.764409452503E+01   -0.58259E-07   -0.61164E-08   693   0.795E-04
  25 F= -.76440945E+01 E0= -.76247538E+01  d E =-.370131E-03
 curvature: -10.23 expect dE=-0.315E-03 dE for cont linesearch -0.968E-07
 trial: gam= 0.83096 g(F)=  0.502E-06 g(S)=  0.303E-04 ort =-0.598E-06 (trialstep = 0.600E+01)
 search vector abs. value=  0.559E-04
 bond charge predicted
       N       E                     dE             d eps       ncg     rms          rms(c)
DAV:   1    -0.765054279458E+01   -0.64483E-02   -0.26656E-01  1038   0.185E+00    0.344E-01
DAV:   2    -0.764617074584E+01    0.43720E-02   -0.69733E-03  1041   0.312E-01    0.184E-01
DAV:   3    -0.764419407497E+01    0.19767E-02   -0.77247E-03  1093   0.300E-01    0.433E-02
DAV:   4    -0.764419081273E+01    0.32622E-05   -0.27614E-04  1091   0.541E-02    0.274E-02
DAV:   5    -0.764417086483E+01    0.19948E-04   -0.36439E-05  1255   0.236E-02    0.435E-03
DAV:   6    -0.764417120422E+01   -0.33940E-06   -0.19194E-06  1178   0.524E-03    0.214E-03
DAV:   7    -0.764417201419E+01   -0.80996E-06   -0.86075E-07  1126   0.324E-03    0.541E-04
DAV:   8    -0.764417199526E+01    0.18933E-07   -0.27281E-08   609   0.568E-04
  26 F= -.76441720E+01 E0= -.76248815E+01  d E =-.774702E-04
 trial-energy change:   -0.000077  1 .order   -0.000082   -0.000182    0.000018
 step:   5.3864(harm=  5.4575)  dis= 0.00109  next Energy=    -7.644173 (dE=-0.784E-04)
 reached required accuracy - stopping structural energy minimisation
