 vasp.6.5.1 10Mar25 (build May 05 2025 13:45:00) complex                        
  
 executed on             LinuxIFC date 2026.04.28  09:13:56
 running  112 mpi-ranks, on    1 nodes
 distrk:  each k-point on   28 cores,    4 groups
 distr:  one band on NCORE=   1 cores,   28 groups


--------------------------------------------------------------------------------------------------------


 INCAR:
   ALGO = Damped
   PREC = Normal
   LREAL = False
   EDIFF = 1e-07
   ENCUT = 400.0
   LASPH = True
   NELM = 100
   ISIF = 3
   IBRION = 2
   EDIFFG = -0.005
   NSW = 300
   ISMEAR = 0
   SIGMA = 0.1
   LWAVE = True
   LCHARG = False
   LORBIT = 10
   LHFCALC = True
   PRECFOCK = Fast
   AEXX = 0.36
   HFSCREEN = 0.2
   TIME = 0.4
   KPAR = 4

 POTCAR:    PAW_PBE Nd_3 06Sep2000                
 POTCAR:    PAW_PBE Zn 06Sep2000                  
 -----------------------------------------------------------------------------
|                                                                             |
|           W    W    AA    RRRRR   N    N  II  N    N   GGGG   !!!           |
|           W    W   A  A   R    R  NN   N  II  NN   N  G    G  !!!           |
|           W    W  A    A  R    R  N N  N  II  N N  N  G       !!!           |
|           W WW W  AAAAAA  RRRRR   N  N N  II  N  N N  G  GGG   !            |
|           WW  WW  A    A  R   R   N   NN  II  N   NN  G    G                |
|           W    W  A    A  R    R  N    N  II  N    N   GGGG   !!!           |
|                                                                             |
|     For optimal performance we recommend to set                             |
|       NCORE = 2 up to number-of-cores-per-socket                            |
|     NCORE specifies how many cores store one orbital (NPAR=cpu/NCORE).      |
|     This setting can greatly improve the performance of VASP for DFT.       |
|     The default, NCORE=1 might be grossly inefficient on modern             |
|     multi-core architectures or massively parallel machines. Do your        |
|     own testing! More info at https://www.vasp.at/wiki/index.php/NCORE      |
|     Unfortunately you need to use the default for GW and RPA                |
|     calculations (for HF NCORE is supported but not extensively tested      |
|     yet).                                                                   |
|                                                                             |
 -----------------------------------------------------------------------------

 POTCAR:    PAW_PBE Nd_3 06Sep2000                
   SHA256 =  90782177844a5d17e05a83442c3981b109958f4399d5595472847236a982ac31 Nd_3/POTCAR           
   COPYR  = (c) Copyright 06Sep2000 Georg Kresse                                                    
   COPYR  = This file is part of the software VASP. Any use, copying, and all other rights are regul
   COPYR  = If you do not have a valid VASP license, you may not use, copy or distribute this file. 
   VRHFIN =Nd : [core=Xe4]                                                                          
   LEXCH  = PE                                                                                      
   EATOM  =   934.1494 eV,   68.6580 Ry                                                             
                                                                                                    
   TITEL  = PAW_PBE Nd_3 06Sep2000                                                                  
   LULTRA =        F    use ultrasoft PP ?                                                          
   IUNSCR =        1    unscreen: 0-lin 1-nonlin 2-no                                               
   RPACOR =    2.400    partial core radius                                                         
   POMASS =  144.240; ZVAL   =   11.000    mass and valenz                                          
   RCORE  =    2.800    outmost cutoff radius                                                       
   RWIGS  =    3.000; RWIGS  =    1.588    wigner-seitz radius (au A)                               
   ENMAX  =  182.619; ENMIN  =  136.964 eV                                                          
   RCLOC  =    2.418    cutoff for local pot                                                        
   LCOR   =        T    correct aug charges                                                         
   LPAW   =        T    paw PP                                                                      
   EAUG   =  299.021                                                                                
   DEXC   =    0.000                                                                                
   RMAX   =    2.866    core radius for proj-oper                                                   
   RAUG   =    1.300    factor for augmentation sphere                                              
   RDEP   =    2.838    radius for radial grids                                                     
   RDEPT  =    2.433    core radius for aug-charge                                                  
                                                                                                    
   Atomic configuration                                                                             
   14 entries                                                                                       
     n  l   j            E        occ.                                                              
     1  0  0.50    -43395.8286   2.0000                                                             
     2  0  0.50     -7023.8781   2.0000                                                             
     2  1  1.50     -6278.5294   6.0000                                                             
     3  0  0.50     -1529.8925   2.0000                                                             
     3  1  1.50     -1294.9660   6.0000                                                             
     3  2  2.50      -969.3626  10.0000                                                             
     4  0  0.50      -309.7145   2.0000                                                             
     4  1  1.50      -232.6371   6.0000                                                             
     4  2  2.50      -123.0912  10.0000                                                             
     4  3  2.50        -6.9199   3.0000                                                             
     5  0  0.50       -43.6910   2.0000                                                             
     6  0  0.50        -3.8688   2.0000                                                             
     5  1  1.50       -24.6661   6.0000                                                             
     5  2  2.50        -2.9249   1.0000                                                             
   Description                                                                                      
     l       E           TYP  RCUT    TYP  RCUT                                                     
     0    -43.6910211     23  2.800                                                                 
     0     -3.8687565     23  2.800                                                                 
     1    -24.6660554     23  2.800                                                                 
     1     13.6058260     23  2.800                                                                 
     2     -2.9249058     23  2.800                                                                 
     2      0.2001824     23  2.800                                                                 
  local pseudopotential read in
  partial core-charges read in
  partial kinetic energy density read in
  atomic valenz-charges read in
  non local Contribution for L=           0  read in
    real space projection operators read in
  non local Contribution for L=           0  read in
    real space projection operators read in
  non local Contribution for L=           1  read in
    real space projection operators read in
  non local Contribution for L=           1  read in
    real space projection operators read in
  non local Contribution for L=           2  read in
    real space projection operators read in
  non local Contribution for L=           2  read in
    real space projection operators read in
    PAW grid and wavefunctions read in
 
   number of l-projection  operators is LMAX  =           6
   number of lm-projection operators is LMMAX =          18
 
 POTCAR:    PAW_PBE Zn 06Sep2000                  
   SHA256 =  501fddbd8274dd8e9725d4f3de27861d7f1e553a7e18441bc79fed8f346e7f23 Zn/POTCAR             
   COPYR  = (c) Copyright 06Sep2000 Georg Kresse                                                    
   COPYR  = This file is part of the software VASP. Any use, copying, and all other rights are regul
   COPYR  = If you do not have a valid VASP license, you may not use, copy or distribute this file. 
   VRHFIN =Zn: d10 p2                                                                               
   LEXCH  = PE                                                                                      
   EATOM  =  1748.8345 eV,  128.5357 Ry                                                             
                                                                                                    
   TITEL  = PAW_PBE Zn 06Sep2000                                                                    
   LULTRA =        F    use ultrasoft PP ?                                                          
   IUNSCR =        1    unscreen: 0-lin 1-nonlin 2-no                                               
   RPACOR =    2.000    partial core radius                                                         
   POMASS =   65.390; ZVAL   =   12.000    mass and valenz                                          
   RCORE  =    2.300    outmost cutoff radius                                                       
   RWIGS  =    2.400; RWIGS  =    1.270    wigner-seitz radius (au A)                               
   ENMAX  =  276.723; ENMIN  =  207.542 eV                                                          
   RCLOC  =    1.828    cutoff for local pot                                                        
   LCOR   =        T    correct aug charges                                                         
   LPAW   =        T    paw PP                                                                      
   EAUG   =  575.892                                                                                
   DEXC   =    0.000                                                                                
   RMAX   =    2.347    core radius for proj-oper                                                   
   RAUG   =    1.300    factor for augmentation sphere                                              
   RDEP   =    2.324    radius for radial grids                                                     
   RDEPT  =    1.788    core radius for aug-charge                                                  
                                                                                                    
   Atomic configuration                                                                             
    9 entries                                                                                       
     n  l   j            E        occ.                                                              
     1  0  0.50     -9524.6913   2.0000                                                             
     2  0  0.50     -1158.1882   2.0000                                                             
     2  1  1.50     -1003.8506   6.0000                                                             
     3  0  0.50      -129.2194   2.0000                                                             
     3  1  1.50       -83.3890   6.0000                                                             
     3  2  2.50       -10.1410  10.0000                                                             
     4  0  0.50        -5.9785   2.0000                                                             
     4  1  0.50        -4.0817   0.0000                                                             
     4  3  2.50        -1.3606   0.0000                                                             
   Description                                                                                      
     l       E           TYP  RCUT    TYP  RCUT                                                     
     2    -10.1410010     23  2.300                                                                 
     2    -11.5015836     23  2.300                                                                 
     0     -5.9785163     23  2.300                                                                 
     0      1.1858015     23  2.300                                                                 
     1     -2.7211652     23  2.300                                                                 
     1     13.2444212     23  2.300                                                                 
  local pseudopotential read in
  partial core-charges read in
  partial kinetic energy density read in
  atomic valenz-charges read in
  non local Contribution for L=           2  read in
    real space projection operators read in
  non local Contribution for L=           2  read in
    real space projection operators read in
  non local Contribution for L=           0  read in
    real space projection operators read in
  non local Contribution for L=           0  read in
    real space projection operators read in
  non local Contribution for L=           1  read in
    real space projection operators read in
  non local Contribution for L=           1  read in
    real space projection operators read in
    PAW grid and wavefunctions read in
 
   number of l-projection  operators is LMAX  =           6
   number of lm-projection operators is LMMAX =          18
 
  PAW_PBE Nd_3 06Sep2000                :
 energy of atom  1       EATOM= -934.1494
 kinetic energy error for atom=    0.0015 (will be added to EATOM!!)
  PAW_PBE Zn 06Sep2000                  :
 energy of atom  2       EATOM=-1748.8345
 kinetic energy error for atom=    0.0107 (will be added to EATOM!!)
 
 
 POSCAR: Nd3 Zn11
  positions in direct lattice
  No initial velocities read in


 exchange-correlation table for PE
   RHO(1)=    0.500       N(1)  =     2000
   RHO(2)=  100.500       N(2)  =     4000
 


--------------------------------------------------------------------------------------------------------


 ion  position               nearest neighbor table
   1  0.301  0.301  0.000-  11 3.11  13 3.11  11 3.11  13 3.11   7 3.14   7 3.14   5 3.14   5 3.14
                             8 3.17   9 3.17  12 3.31  10 3.31   6 3.32   4 3.32
   2  0.699  0.699  0.000-  12 3.11  12 3.11  10 3.11  10 3.11   6 3.14   6 3.14   4 3.14   4 3.14
                             8 3.17   9 3.17  13 3.31  11 3.31   7 3.32   5 3.32
   3  0.000  0.000  0.000-  10 3.10  11 3.10  12 3.10  13 3.10   4 3.32   5 3.32   5 3.32   4 3.32
                             6 3.32   7 3.32   6 3.32   7 3.32
   4  0.700  0.338  0.362-   6 2.50  11 2.59  11 2.59   8 2.60  10 2.74   2 3.14   2 3.14   1 3.32
                             3 3.32   3 3.32
   5  0.300  0.662  0.638-   7 2.50  10 2.59  10 2.59   9 2.60  11 2.74   1 3.14   1 3.14   2 3.32
                             3 3.32   3 3.32
   6  0.976  0.338  0.638-   4 2.50  13 2.59  13 2.59   9 2.60  12 2.74   2 3.14   2 3.14   1 3.32
                             3 3.32   3 3.32
   7  0.024  0.662  0.362-   5 2.50  12 2.59  12 2.59   8 2.60  13 2.74   1 3.14   1 3.14   2 3.32
                             3 3.32   3 3.32
   8  0.698  0.500  0.198-   4 2.60   7 2.60  14 2.87  14 2.87  12 2.88  12 2.88  11 2.88  11 2.88
                             1 3.17   2 3.17
   9  0.302  0.500  0.802-   5 2.60   6 2.60  14 2.87  14 2.87  10 2.88  10 2.88  13 2.88  13 2.88
                             1 3.17   2 3.17
  10  0.416  0.138  0.278-   5 2.59   5 2.59  14 2.71   4 2.74   9 2.88   9 2.88   3 3.10   2 3.11
                             2 3.11   1 3.31
  11  0.584  0.862  0.722-   4 2.59   4 2.59  14 2.71   5 2.74   8 2.88   8 2.88   3 3.10   1 3.11
                             1 3.11   2 3.31
  12  0.860  0.138  0.722-   7 2.59   7 2.59  14 2.71   6 2.74   8 2.88   8 2.88   3 3.10   2 3.11
                             2 3.11   1 3.31
  13  0.140  0.862  0.278-   6 2.59   6 2.59  14 2.71   7 2.74   9 2.88   9 2.88   3 3.10   1 3.11
                             1 3.11   2 3.31
  14  0.500  0.000  0.500-  10 2.71  11 2.71  12 2.71  13 2.71   8 2.87   9 2.87   8 2.87   9 2.87

 
  LATTYP: Found a body centered orthorhombic cell.
 ALAT       =     4.4584290000
 B/A-ratio  =     2.0346610880
 C/A-ratio  =     2.9458071442
  
  Lattice vectors:
  
 A1 = (  -2.2292145000,   4.5356960000,   6.5668360000)
 A2 = (   2.2292145000,  -4.5356960000,   6.5668360000)
 A3 = (   2.2292145000,   4.5356960000,  -6.5668360000)


Analysis of symmetry for initial positions (statically):
=====================================================================
 Subroutine PRICEL returns:
 Original cell was already a primitive cell.
 

 Routine SETGRP: Setting up the symmetry group for a 
 body centered orthorhombic supercell.


 Subroutine GETGRP returns: Found  8 space group operations
 (whereof  8 operations were pure point group operations)
 out of a pool of  8 trial point group operations.


The static configuration has the point symmetry D_2h.


Analysis of symmetry for dynamics (positions and initial velocities):
=====================================================================
 Subroutine PRICEL returns:
 Original cell was already a primitive cell.
 

 Routine SETGRP: Setting up the symmetry group for a 
 body centered orthorhombic supercell.


 Subroutine GETGRP returns: Found  8 space group operations
 (whereof  8 operations were pure point group operations)
 out of a pool of  8 trial point group operations.


The dynamic configuration has the point symmetry D_2h.


 Subroutine INISYM returns: Found  8 space group operations
 (whereof  8 operations are pure point group operations),
 and found     1 'primitive' translations


----------------------------------------------------------------------------------------

                                     Primitive cell                                     

  volume of cell :     265.5901

  direct lattice vectors                    reciprocal lattice vectors
    -2.229214500  4.535696000  6.566836000    -0.000000000  0.110236665  0.076140169
     2.229214500 -4.535696000  6.566836000     0.224294253 -0.000000000  0.076140169
     2.229214500  4.535696000 -6.566836000     0.224294253  0.110236665  0.000000000

  length of vectors
     8.286451022  8.286451022  8.286451022     0.133975548  0.236865441  0.249920055

  position of ions in fractional coordinates (direct lattice)
     0.301388000  0.301388000  0.000000000
     0.698612000  0.698612000  0.000000000
     0.000000000  0.000000000  0.000000000
     0.700405000  0.337973500  0.362431500
     0.299595000  0.662026500  0.637568500
     0.975542000  0.337973500  0.637568500
     0.024458000  0.662026500  0.362431500
     0.698409000  0.500000000  0.198409000
     0.301591000  0.500000000  0.801591000
     0.415896000  0.137981000  0.277915000
     0.584104000  0.862019000  0.722085000
     0.860066000  0.137981000  0.722085000
     0.139934000  0.862019000  0.277915000
     0.500000000  0.000000000  0.500000000

  ion indices of the primitive-cell ions
   primitive index   ion index
                 1           1
                 2           2
                 3           3
                 4           4
                 5           5
                 6           6
                 7           7
                 8           8
                 9           9
                10          10
                11          11
                12          12
                13          13
                14          14

----------------------------------------------------------------------------------------

 
 
 KPOINTS: Num irrep kpoints: 64                   

Automatic generation of k-mesh.
 Grid dimensions read from file:
 generate k-points for:    7    7    7

 Generating k-lattice:

  Cartesian coordinates                     Fractional coordinates (reciprocal lattice)
    -0.000000000  0.015748095  0.010877167     0.142857143 -0.000000000  0.000000000
     0.032042036 -0.000000000  0.010877167    -0.000000000  0.142857143 -0.000000000
     0.032042036  0.015748095  0.000000000     0.000000000 -0.000000000  0.142857143

  Length of vectors
     0.019139364  0.033837920  0.035702865

  Shift w.r.t. Gamma in fractional coordinates (k-lattice)
     0.000000000  0.000000000  0.000000000

 
 Subroutine IBZKPT returns following result:
 ===========================================
 
 Found     64 irreducible k-points:
 
 Following reciprocal coordinates:
            Coordinates               Weight
  0.000000  0.000000  0.000000      1.000000
  0.142857 -0.000000  0.000000      4.000000
  0.285714 -0.000000  0.000000      4.000000
  0.428571 -0.000000 -0.000000      4.000000
  0.000000  0.142857 -0.000000      4.000000
  0.142857  0.142857 -0.000000      8.000000
  0.285714  0.142857 -0.000000      8.000000
  0.428571  0.142857 -0.000000      8.000000
 -0.428571  0.142857 -0.000000      8.000000
 -0.285714  0.142857 -0.000000      8.000000
 -0.142857  0.142857 -0.000000      4.000000
 -0.000000  0.285714  0.000000      4.000000
  0.142857  0.285714 -0.000000      8.000000
  0.285714  0.285714  0.000000      8.000000
  0.428571  0.285714 -0.000000      8.000000
 -0.428571  0.285714 -0.000000      8.000000
 -0.285714  0.285714 -0.000000      4.000000
 -0.142857  0.285714 -0.000000      8.000000
  0.000000  0.428571 -0.000000      4.000000
  0.142857  0.428571  0.000000      8.000000
  0.285714  0.428571  0.000000      8.000000
  0.428571  0.428571 -0.000000      8.000000
 -0.428571  0.428571  0.000000      4.000000
 -0.285714  0.428571 -0.000000      8.000000
 -0.142857  0.428571 -0.000000      8.000000
  0.142857  0.142857  0.142857      8.000000
  0.285714  0.142857  0.142857      8.000000
 -0.142857  0.142857  0.142857      2.000000
  0.142857  0.285714  0.142857      8.000000
  0.285714  0.285714  0.142857      8.000000
  0.428571  0.285714  0.142857      8.000000
 -0.285714  0.285714  0.142857      4.000000
 -0.142857  0.285714  0.142857      4.000000
 -0.428571  0.428571  0.142857      4.000000
 -0.285714  0.428571  0.142857      8.000000
 -0.142857  0.428571  0.142857      4.000000
  0.428571 -0.428571  0.142857      4.000000
 -0.428571 -0.428571  0.142857      8.000000
 -0.285714 -0.428571  0.142857      8.000000
 -0.142857 -0.428571  0.142857      4.000000
  0.285714 -0.285714  0.142857      4.000000
  0.428571 -0.285714  0.142857      8.000000
 -0.428571 -0.285714  0.142857      8.000000
 -0.285714 -0.285714  0.142857      8.000000
 -0.142857 -0.285714  0.142857      4.000000
  0.142857 -0.142857  0.142857      2.000000
  0.285714 -0.142857  0.142857      4.000000
  0.428571 -0.142857  0.142857      4.000000
 -0.428571 -0.142857  0.142857      4.000000
 -0.285714 -0.142857  0.142857      4.000000
 -0.142857 -0.142857  0.142857      2.000000
 -0.285714  0.285714  0.285714      2.000000
 -0.428571  0.428571  0.285714      4.000000
 -0.285714  0.428571  0.285714      4.000000
  0.428571 -0.428571  0.285714      4.000000
 -0.428571 -0.428571  0.285714      8.000000
 -0.285714 -0.428571  0.285714      4.000000
  0.285714 -0.285714  0.285714      2.000000
  0.428571 -0.285714  0.285714      4.000000
 -0.428571 -0.285714  0.285714      4.000000
 -0.285714 -0.285714  0.285714      2.000000
 -0.428571  0.428571  0.428571      2.000000
  0.428571 -0.428571  0.428571      2.000000
 -0.428571 -0.428571  0.428571      2.000000
 
 Following cartesian coordinates:
            Coordinates               Weight
  0.000000  0.000000  0.000000      1.000000
  0.000000  0.015748  0.010877      4.000000
  0.000000  0.031496  0.021754      4.000000
 -0.000000  0.047244  0.032632      4.000000
  0.032042 -0.000000  0.010877      4.000000
  0.032042  0.015748  0.021754      8.000000
  0.032042  0.031496  0.032632      8.000000
  0.032042  0.047244  0.043509      8.000000
  0.032042 -0.047244 -0.021754      8.000000
  0.032042 -0.031496 -0.010877      8.000000
  0.032042 -0.015748 -0.000000      4.000000
  0.064084  0.000000  0.021754      4.000000
  0.064084  0.015748  0.032632      8.000000
  0.064084  0.031496  0.043509      8.000000
  0.064084  0.047244  0.054386      8.000000
  0.064084 -0.047244 -0.010877      8.000000
  0.064084 -0.031496  0.000000      4.000000
  0.064084 -0.015748  0.010877      8.000000
  0.096126 -0.000000  0.032632      4.000000
  0.096126  0.015748  0.043509      8.000000
  0.096126  0.031496  0.054386      8.000000
  0.096126  0.047244  0.065263      8.000000
  0.096126 -0.047244  0.000000      4.000000
  0.096126 -0.031496  0.010877      8.000000
  0.096126 -0.015748  0.021754      8.000000
  0.064084  0.031496  0.021754      8.000000
  0.064084  0.047244  0.032632      8.000000
  0.064084 -0.000000 -0.000000      2.000000
  0.096126  0.031496  0.032632      8.000000
  0.096126  0.047244  0.043509      8.000000
  0.096126  0.062992  0.054386      8.000000
  0.096126 -0.015748  0.000000      4.000000
  0.096126  0.000000  0.010877      4.000000
  0.128168 -0.031496  0.000000      4.000000
  0.128168 -0.015748  0.010877      8.000000
  0.128168  0.000000  0.021754      4.000000
 -0.064084  0.062992 -0.000000      4.000000
 -0.064084 -0.031496 -0.065263      8.000000
 -0.064084 -0.015748 -0.054386      8.000000
 -0.064084  0.000000 -0.043509      4.000000
 -0.032042  0.047244 -0.000000      4.000000
 -0.032042  0.062992  0.010877      8.000000
 -0.032042 -0.031496 -0.054386      8.000000
 -0.032042 -0.015748 -0.043509      8.000000
 -0.032042  0.000000 -0.032632      4.000000
 -0.000000  0.031496 -0.000000      2.000000
  0.000000  0.047244  0.010877      4.000000
  0.000000  0.062992  0.021754      4.000000
 -0.000000 -0.031496 -0.043509      4.000000
  0.000000 -0.015748 -0.032632      4.000000
  0.000000  0.000000 -0.021754      2.000000
  0.128168 -0.000000  0.000000      2.000000
  0.160210 -0.015748  0.000000      4.000000
  0.160210 -0.000000  0.010877      4.000000
 -0.032042  0.078740 -0.000000      4.000000
 -0.032042 -0.015748 -0.065263      8.000000
 -0.032042 -0.000000 -0.054386      4.000000
  0.000000  0.062992 -0.000000      2.000000
  0.000000  0.078740  0.010877      4.000000
 -0.000000 -0.015748 -0.054386      4.000000
  0.000000 -0.000000 -0.043509      2.000000
  0.192252 -0.000000 -0.000000      2.000000
 -0.000000  0.094489 -0.000000      2.000000
  0.000000  0.000000 -0.065263      2.000000
 
 
 Subroutine IBZKPT_HF returns following result:
 ==============================================
 
 Found    343 k-points in 1st BZ
 the following    343 k-points will be used (e.g. in the exchange kernel)
 Following reciprocal coordinates:   # in IRBZ
  0.000000  0.000000  0.000000    0.00291545   1 t-inv F
  0.142857 -0.000000  0.000000    0.00291545   2 t-inv F
  0.285714 -0.000000  0.000000    0.00291545   3 t-inv F
  0.428571 -0.000000 -0.000000    0.00291545   4 t-inv F
  0.000000  0.142857 -0.000000    0.00291545   5 t-inv F
  0.142857  0.142857 -0.000000    0.00291545   6 t-inv F
  0.285714  0.142857 -0.000000    0.00291545   7 t-inv F
  0.428571  0.142857 -0.000000    0.00291545   8 t-inv F
 -0.428571  0.142857 -0.000000    0.00291545   9 t-inv F
 -0.285714  0.142857 -0.000000    0.00291545  10 t-inv F
 -0.142857  0.142857 -0.000000    0.00291545  11 t-inv F
 -0.000000  0.285714  0.000000    0.00291545  12 t-inv F
  0.142857  0.285714 -0.000000    0.00291545  13 t-inv F
  0.285714  0.285714  0.000000    0.00291545  14 t-inv F
  0.428571  0.285714 -0.000000    0.00291545  15 t-inv F
 -0.428571  0.285714 -0.000000    0.00291545  16 t-inv F
 -0.285714  0.285714 -0.000000    0.00291545  17 t-inv F
 -0.142857  0.285714 -0.000000    0.00291545  18 t-inv F
  0.000000  0.428571 -0.000000    0.00291545  19 t-inv F
  0.142857  0.428571  0.000000    0.00291545  20 t-inv F
  0.285714  0.428571  0.000000    0.00291545  21 t-inv F
  0.428571  0.428571 -0.000000    0.00291545  22 t-inv F
 -0.428571  0.428571  0.000000    0.00291545  23 t-inv F
 -0.285714  0.428571 -0.000000    0.00291545  24 t-inv F
 -0.142857  0.428571 -0.000000    0.00291545  25 t-inv F
  0.142857  0.142857  0.142857    0.00291545  26 t-inv F
  0.285714  0.142857  0.142857    0.00291545  27 t-inv F
 -0.142857  0.142857  0.142857    0.00291545  28 t-inv F
  0.142857  0.285714  0.142857    0.00291545  29 t-inv F
  0.285714  0.285714  0.142857    0.00291545  30 t-inv F
  0.428571  0.285714  0.142857    0.00291545  31 t-inv F
 -0.285714  0.285714  0.142857    0.00291545  32 t-inv F
 -0.142857  0.285714  0.142857    0.00291545  33 t-inv F
 -0.428571  0.428571  0.142857    0.00291545  34 t-inv F
 -0.285714  0.428571  0.142857    0.00291545  35 t-inv F
 -0.142857  0.428571  0.142857    0.00291545  36 t-inv F
  0.428571 -0.428571  0.142857    0.00291545  37 t-inv F
 -0.428571 -0.428571  0.142857    0.00291545  38 t-inv F
 -0.285714 -0.428571  0.142857    0.00291545  39 t-inv F
 -0.142857 -0.428571  0.142857    0.00291545  40 t-inv F
  0.285714 -0.285714  0.142857    0.00291545  41 t-inv F
  0.428571 -0.285714  0.142857    0.00291545  42 t-inv F
 -0.428571 -0.285714  0.142857    0.00291545  43 t-inv F
 -0.285714 -0.285714  0.142857    0.00291545  44 t-inv F
 -0.142857 -0.285714  0.142857    0.00291545  45 t-inv F
  0.142857 -0.142857  0.142857    0.00291545  46 t-inv F
  0.285714 -0.142857  0.142857    0.00291545  47 t-inv F
  0.428571 -0.142857  0.142857    0.00291545  48 t-inv F
 -0.428571 -0.142857  0.142857    0.00291545  49 t-inv F
 -0.285714 -0.142857  0.142857    0.00291545  50 t-inv F
 -0.142857 -0.142857  0.142857    0.00291545  51 t-inv F
 -0.285714  0.285714  0.285714    0.00291545  52 t-inv F
 -0.428571  0.428571  0.285714    0.00291545  53 t-inv F
 -0.285714  0.428571  0.285714    0.00291545  54 t-inv F
  0.428571 -0.428571  0.285714    0.00291545  55 t-inv F
 -0.428571 -0.428571  0.285714    0.00291545  56 t-inv F
 -0.285714 -0.428571  0.285714    0.00291545  57 t-inv F
  0.285714 -0.285714  0.285714    0.00291545  58 t-inv F
  0.428571 -0.285714  0.285714    0.00291545  59 t-inv F
 -0.428571 -0.285714  0.285714    0.00291545  60 t-inv F
 -0.285714 -0.285714  0.285714    0.00291545  61 t-inv F
 -0.428571  0.428571  0.428571    0.00291545  62 t-inv F
  0.428571 -0.428571  0.428571    0.00291545  63 t-inv F
 -0.428571 -0.428571  0.428571    0.00291545  64 t-inv F
 -0.142857  0.000000 -0.000000    0.00291545   2 t-inv F
 -0.000000  0.142857 -0.142857    0.00291545   2 t-inv F
  0.000000 -0.142857  0.142857    0.00291545   2 t-inv F
 -0.285714  0.000000 -0.000000    0.00291545   3 t-inv F
 -0.000000  0.285714 -0.285714    0.00291545   3 t-inv F
  0.000000 -0.285714  0.285714    0.00291545   3 t-inv F
 -0.428571  0.000000  0.000000    0.00291545   4 t-inv F
 -0.000000  0.428571 -0.428571    0.00291545   4 t-inv F
  0.000000 -0.428571  0.428571    0.00291545   4 t-inv F
 -0.000000 -0.142857  0.000000    0.00291545   5 t-inv F
  0.142857  0.000000 -0.142857    0.00291545   5 t-inv F
 -0.142857 -0.000000  0.142857    0.00291545   5 t-inv F
 -0.142857 -0.142857  0.000000    0.00291545   6 t-inv F
  0.142857  0.142857 -0.285714    0.00291545   6 t-inv F
 -0.142857 -0.142857  0.285714    0.00291545   6 t-inv F
 -0.000000 -0.285714  0.142857    0.00291545   6 t-inv F
  0.000000  0.285714 -0.142857    0.00291545   6 t-inv F
 -0.285714 -0.000000  0.142857    0.00291545   6 t-inv F
  0.285714  0.000000 -0.142857    0.00291545   6 t-inv F
 -0.285714 -0.142857  0.000000    0.00291545   7 t-inv F
  0.142857  0.285714 -0.428571    0.00291545   7 t-inv F
 -0.142857 -0.285714  0.428571    0.00291545   7 t-inv F
 -0.000000 -0.428571  0.285714    0.00291545   7 t-inv F
  0.000000  0.428571 -0.285714    0.00291545   7 t-inv F
 -0.428571 -0.000000  0.142857    0.00291545   7 t-inv F
  0.428571  0.000000 -0.142857    0.00291545   7 t-inv F
 -0.428571 -0.142857  0.000000    0.00291545   8 t-inv F
  0.142857  0.428571 -0.571429    0.00291545   8 t-inv F
 -0.142857 -0.428571  0.571429    0.00291545   8 t-inv F
 -0.000000 -0.571429  0.428571    0.00291545   8 t-inv F
  0.000000  0.571429 -0.428571    0.00291545   8 t-inv F
 -0.571429 -0.000000  0.142857    0.00291545   8 t-inv F
  0.571429  0.000000 -0.142857    0.00291545   8 t-inv F
  0.428571 -0.142857  0.000000    0.00291545   9 t-inv F
  0.142857 -0.428571  0.285714    0.00291545   9 t-inv F
 -0.142857  0.428571 -0.285714    0.00291545   9 t-inv F
 -0.000000  0.285714 -0.428571    0.00291545   9 t-inv F
  0.000000 -0.285714  0.428571    0.00291545   9 t-inv F
  0.285714 -0.000000  0.142857    0.00291545   9 t-inv F
 -0.285714  0.000000 -0.142857    0.00291545   9 t-inv F
  0.285714 -0.142857  0.000000    0.00291545  10 t-inv F
  0.142857 -0.285714  0.142857    0.00291545  10 t-inv F
 -0.142857  0.285714 -0.142857    0.00291545  10 t-inv F
 -0.000000  0.142857 -0.285714    0.00291545  10 t-inv F
  0.000000 -0.142857  0.285714    0.00291545  10 t-inv F
  0.142857 -0.000000  0.142857    0.00291545  10 t-inv F
 -0.142857  0.000000 -0.142857    0.00291545  10 t-inv F
  0.142857 -0.142857  0.000000    0.00291545  11 t-inv F
 -0.000000  0.000000 -0.142857    0.00291545  11 t-inv F
  0.000000 -0.000000  0.142857    0.00291545  11 t-inv F
  0.000000 -0.285714 -0.000000    0.00291545  12 t-inv F
  0.285714 -0.000000 -0.285714    0.00291545  12 t-inv F
 -0.285714  0.000000  0.285714    0.00291545  12 t-inv F
 -0.142857 -0.285714  0.000000    0.00291545  13 t-inv F
  0.285714  0.142857 -0.428571    0.00291545  13 t-inv F
 -0.285714 -0.142857  0.428571    0.00291545  13 t-inv F
 -0.000000 -0.428571  0.142857    0.00291545  13 t-inv F
  0.000000  0.428571 -0.142857    0.00291545  13 t-inv F
 -0.428571 -0.000000  0.285714    0.00291545  13 t-inv F
  0.428571  0.000000 -0.285714    0.00291545  13 t-inv F
 -0.285714 -0.285714 -0.000000    0.00291545  14 t-inv F
  0.285714  0.285714 -0.571429    0.00291545  14 t-inv F
 -0.285714 -0.285714  0.571429    0.00291545  14 t-inv F
  0.000000 -0.571429  0.285714    0.00291545  14 t-inv F
 -0.000000  0.571429 -0.285714    0.00291545  14 t-inv F
 -0.571429  0.000000  0.285714    0.00291545  14 t-inv F
  0.571429 -0.000000 -0.285714    0.00291545  14 t-inv F
 -0.428571 -0.285714  0.000000    0.00291545  15 t-inv F
  0.285714  0.428571 -0.714286    0.00291545  15 t-inv F
 -0.285714 -0.428571  0.714286    0.00291545  15 t-inv F
 -0.000000 -0.714286  0.428571    0.00291545  15 t-inv F
  0.000000  0.714286 -0.428571    0.00291545  15 t-inv F
 -0.714286 -0.000000  0.285714    0.00291545  15 t-inv F
  0.714286  0.000000 -0.285714    0.00291545  15 t-inv F
  0.428571 -0.285714  0.000000    0.00291545  16 t-inv F
  0.285714 -0.428571  0.142857    0.00291545  16 t-inv F
 -0.285714  0.428571 -0.142857    0.00291545  16 t-inv F
 -0.000000  0.142857 -0.428571    0.00291545  16 t-inv F
  0.000000 -0.142857  0.428571    0.00291545  16 t-inv F
  0.142857 -0.000000  0.285714    0.00291545  16 t-inv F
 -0.142857  0.000000 -0.285714    0.00291545  16 t-inv F
  0.285714 -0.285714  0.000000    0.00291545  17 t-inv F
 -0.000000 -0.000000 -0.285714    0.00291545  17 t-inv F
  0.000000  0.000000  0.285714    0.00291545  17 t-inv F
  0.142857 -0.285714  0.000000    0.00291545  18 t-inv F
  0.285714 -0.142857 -0.142857    0.00291545  18 t-inv F
 -0.285714  0.142857  0.142857    0.00291545  18 t-inv F
 -0.000000 -0.142857 -0.142857    0.00291545  18 t-inv F
  0.000000  0.142857  0.142857    0.00291545  18 t-inv F
 -0.142857 -0.000000  0.285714    0.00291545  18 t-inv F
  0.142857  0.000000 -0.285714    0.00291545  18 t-inv F
 -0.000000 -0.428571  0.000000    0.00291545  19 t-inv F
  0.428571  0.000000 -0.428571    0.00291545  19 t-inv F
 -0.428571 -0.000000  0.428571    0.00291545  19 t-inv F
 -0.142857 -0.428571 -0.000000    0.00291545  20 t-inv F
  0.428571  0.142857 -0.571429    0.00291545  20 t-inv F
 -0.428571 -0.142857  0.571429    0.00291545  20 t-inv F
  0.000000 -0.571429  0.142857    0.00291545  20 t-inv F
 -0.000000  0.571429 -0.142857    0.00291545  20 t-inv F
 -0.571429  0.000000  0.428571    0.00291545  20 t-inv F
  0.571429 -0.000000 -0.428571    0.00291545  20 t-inv F
 -0.285714 -0.428571 -0.000000    0.00291545  21 t-inv F
  0.428571  0.285714 -0.714286    0.00291545  21 t-inv F
 -0.428571 -0.285714  0.714286    0.00291545  21 t-inv F
  0.000000 -0.714286  0.285714    0.00291545  21 t-inv F
 -0.000000  0.714286 -0.285714    0.00291545  21 t-inv F
 -0.714286  0.000000  0.428571    0.00291545  21 t-inv F
  0.714286 -0.000000 -0.428571    0.00291545  21 t-inv F
 -0.428571 -0.428571  0.000000    0.00291545  22 t-inv F
  0.428571  0.428571 -0.857143    0.00291545  22 t-inv F
 -0.428571 -0.428571  0.857143    0.00291545  22 t-inv F
 -0.000000 -0.857143  0.428571    0.00291545  22 t-inv F
  0.000000  0.857143 -0.428571    0.00291545  22 t-inv F
 -0.857143 -0.000000  0.428571    0.00291545  22 t-inv F
  0.857143  0.000000 -0.428571    0.00291545  22 t-inv F
  0.428571 -0.428571 -0.000000    0.00291545  23 t-inv F
  0.000000 -0.000000 -0.428571    0.00291545  23 t-inv F
 -0.000000  0.000000  0.428571    0.00291545  23 t-inv F
  0.285714 -0.428571  0.000000    0.00291545  24 t-inv F
  0.428571 -0.285714 -0.142857    0.00291545  24 t-inv F
 -0.428571  0.285714  0.142857    0.00291545  24 t-inv F
 -0.000000 -0.142857 -0.285714    0.00291545  24 t-inv F
  0.000000  0.142857  0.285714    0.00291545  24 t-inv F
 -0.142857 -0.000000  0.428571    0.00291545  24 t-inv F
  0.142857  0.000000 -0.428571    0.00291545  24 t-inv F
  0.142857 -0.428571  0.000000    0.00291545  25 t-inv F
  0.428571 -0.142857 -0.285714    0.00291545  25 t-inv F
 -0.428571  0.142857  0.285714    0.00291545  25 t-inv F
 -0.000000 -0.285714 -0.142857    0.00291545  25 t-inv F
  0.000000  0.285714  0.142857    0.00291545  25 t-inv F
 -0.285714 -0.000000  0.428571    0.00291545  25 t-inv F
  0.285714  0.000000 -0.428571    0.00291545  25 t-inv F
 -0.142857 -0.142857 -0.142857    0.00291545  26 t-inv F
  0.142857  0.142857 -0.428571    0.00291545  26 t-inv F
 -0.142857 -0.142857  0.428571    0.00291545  26 t-inv F
  0.142857 -0.428571  0.142857    0.00291545  26 t-inv F
 -0.142857  0.428571 -0.142857    0.00291545  26 t-inv F
 -0.428571  0.142857  0.142857    0.00291545  26 t-inv F
  0.428571 -0.142857 -0.142857    0.00291545  26 t-inv F
 -0.285714 -0.142857 -0.142857    0.00291545  27 t-inv F
  0.142857  0.285714 -0.571429    0.00291545  27 t-inv F
 -0.142857 -0.285714  0.571429    0.00291545  27 t-inv F
  0.142857 -0.571429  0.285714    0.00291545  27 t-inv F
 -0.142857  0.571429 -0.285714    0.00291545  27 t-inv F
 -0.571429  0.142857  0.142857    0.00291545  27 t-inv F
  0.571429 -0.142857 -0.142857    0.00291545  27 t-inv F
  0.142857 -0.142857 -0.142857    0.00291545  28 t-inv F
 -0.142857 -0.285714 -0.142857    0.00291545  29 t-inv F
  0.285714  0.142857 -0.571429    0.00291545  29 t-inv F
 -0.285714 -0.142857  0.571429    0.00291545  29 t-inv F
  0.142857 -0.571429  0.142857    0.00291545  29 t-inv F
 -0.142857  0.571429 -0.142857    0.00291545  29 t-inv F
 -0.571429  0.142857  0.285714    0.00291545  29 t-inv F
  0.571429 -0.142857 -0.285714    0.00291545  29 t-inv F
 -0.285714 -0.285714 -0.142857    0.00291545  30 t-inv F
  0.285714  0.285714 -0.714286    0.00291545  30 t-inv F
 -0.285714 -0.285714  0.714286    0.00291545  30 t-inv F
  0.142857 -0.714286  0.285714    0.00291545  30 t-inv F
 -0.142857  0.714286 -0.285714    0.00291545  30 t-inv F
 -0.714286  0.142857  0.285714    0.00291545  30 t-inv F
  0.714286 -0.142857 -0.285714    0.00291545  30 t-inv F
 -0.428571 -0.285714 -0.142857    0.00291545  31 t-inv F
  0.285714  0.428571 -0.857143    0.00291545  31 t-inv F
 -0.285714 -0.428571  0.857143    0.00291545  31 t-inv F
  0.142857 -0.857143  0.428571    0.00291545  31 t-inv F
 -0.142857  0.857143 -0.428571    0.00291545  31 t-inv F
 -0.857143  0.142857  0.285714    0.00291545  31 t-inv F
  0.857143 -0.142857 -0.285714    0.00291545  31 t-inv F
  0.285714 -0.285714 -0.142857    0.00291545  32 t-inv F
  0.142857 -0.142857 -0.285714    0.00291545  32 t-inv F
 -0.142857  0.142857  0.285714    0.00291545  32 t-inv F
  0.142857 -0.285714 -0.142857    0.00291545  33 t-inv F
  0.285714 -0.142857 -0.285714    0.00291545  33 t-inv F
 -0.285714  0.142857  0.285714    0.00291545  33 t-inv F
  0.428571 -0.428571 -0.142857    0.00291545  34 t-inv F
  0.142857 -0.142857 -0.428571    0.00291545  34 t-inv F
 -0.142857  0.142857  0.428571    0.00291545  34 t-inv F
  0.285714 -0.428571 -0.142857    0.00291545  35 t-inv F
  0.428571 -0.285714 -0.285714    0.00291545  35 t-inv F
 -0.428571  0.285714  0.285714    0.00291545  35 t-inv F
  0.142857 -0.285714 -0.285714    0.00291545  35 t-inv F
 -0.142857  0.285714  0.285714    0.00291545  35 t-inv F
 -0.285714  0.142857  0.428571    0.00291545  35 t-inv F
  0.285714 -0.142857 -0.428571    0.00291545  35 t-inv F
  0.142857 -0.428571 -0.142857    0.00291545  36 t-inv F
  0.428571 -0.142857 -0.428571    0.00291545  36 t-inv F
 -0.428571  0.142857  0.428571    0.00291545  36 t-inv F
 -0.428571  0.428571 -0.142857    0.00291545  37 t-inv F
  0.142857 -0.142857  0.428571    0.00291545  37 t-inv F
 -0.142857  0.142857 -0.428571    0.00291545  37 t-inv F
  0.428571  0.428571 -0.142857    0.00291545  38 t-inv F
 -0.428571 -0.428571  0.714286    0.00291545  38 t-inv F
  0.428571  0.428571 -0.714286    0.00291545  38 t-inv F
  0.142857  0.714286 -0.428571    0.00291545  38 t-inv F
 -0.142857 -0.714286  0.428571    0.00291545  38 t-inv F
  0.714286  0.142857 -0.428571    0.00291545  38 t-inv F
 -0.714286 -0.142857  0.428571    0.00291545  38 t-inv F
  0.285714  0.428571 -0.142857    0.00291545  39 t-inv F
 -0.428571 -0.285714  0.571429    0.00291545  39 t-inv F
  0.428571  0.285714 -0.571429    0.00291545  39 t-inv F
  0.142857  0.571429 -0.285714    0.00291545  39 t-inv F
 -0.142857 -0.571429  0.285714    0.00291545  39 t-inv F
  0.571429  0.142857 -0.428571    0.00291545  39 t-inv F
 -0.571429 -0.142857  0.428571    0.00291545  39 t-inv F
  0.142857  0.428571 -0.142857    0.00291545  40 t-inv F
 -0.428571 -0.142857  0.428571    0.00291545  40 t-inv F
  0.428571  0.142857 -0.428571    0.00291545  40 t-inv F
 -0.285714  0.285714 -0.142857    0.00291545  41 t-inv F
  0.142857 -0.142857  0.285714    0.00291545  41 t-inv F
 -0.142857  0.142857 -0.285714    0.00291545  41 t-inv F
 -0.428571  0.285714 -0.142857    0.00291545  42 t-inv F
 -0.285714  0.428571 -0.285714    0.00291545  42 t-inv F
  0.285714 -0.428571  0.285714    0.00291545  42 t-inv F
  0.142857 -0.285714  0.428571    0.00291545  42 t-inv F
 -0.142857  0.285714 -0.428571    0.00291545  42 t-inv F
 -0.285714  0.142857 -0.285714    0.00291545  42 t-inv F
  0.285714 -0.142857  0.285714    0.00291545  42 t-inv F
  0.428571  0.285714 -0.142857    0.00291545  43 t-inv F
 -0.285714 -0.428571  0.571429    0.00291545  43 t-inv F
  0.285714  0.428571 -0.571429    0.00291545  43 t-inv F
  0.142857  0.571429 -0.428571    0.00291545  43 t-inv F
 -0.142857 -0.571429  0.428571    0.00291545  43 t-inv F
  0.571429  0.142857 -0.285714    0.00291545  43 t-inv F
 -0.571429 -0.142857  0.285714    0.00291545  43 t-inv F
  0.285714  0.285714 -0.142857    0.00291545  44 t-inv F
 -0.285714 -0.285714  0.428571    0.00291545  44 t-inv F
  0.285714  0.285714 -0.428571    0.00291545  44 t-inv F
  0.142857  0.428571 -0.285714    0.00291545  44 t-inv F
 -0.142857 -0.428571  0.285714    0.00291545  44 t-inv F
  0.428571  0.142857 -0.285714    0.00291545  44 t-inv F
 -0.428571 -0.142857  0.285714    0.00291545  44 t-inv F
  0.142857  0.285714 -0.142857    0.00291545  45 t-inv F
 -0.285714 -0.142857  0.285714    0.00291545  45 t-inv F
  0.285714  0.142857 -0.285714    0.00291545  45 t-inv F
 -0.142857  0.142857 -0.142857    0.00291545  46 t-inv F
 -0.285714  0.142857 -0.142857    0.00291545  47 t-inv F
 -0.142857  0.285714 -0.285714    0.00291545  47 t-inv F
  0.142857 -0.285714  0.285714    0.00291545  47 t-inv F
 -0.428571  0.142857 -0.142857    0.00291545  48 t-inv F
 -0.142857  0.428571 -0.428571    0.00291545  48 t-inv F
  0.142857 -0.428571  0.428571    0.00291545  48 t-inv F
  0.428571  0.142857 -0.142857    0.00291545  49 t-inv F
 -0.142857 -0.428571  0.428571    0.00291545  49 t-inv F
  0.142857  0.428571 -0.428571    0.00291545  49 t-inv F
  0.285714  0.142857 -0.142857    0.00291545  50 t-inv F
 -0.142857 -0.285714  0.285714    0.00291545  50 t-inv F
  0.142857  0.285714 -0.285714    0.00291545  50 t-inv F
  0.142857  0.142857 -0.142857    0.00291545  51 t-inv F
  0.285714 -0.285714 -0.285714    0.00291545  52 t-inv F
  0.428571 -0.428571 -0.285714    0.00291545  53 t-inv F
  0.285714 -0.285714 -0.428571    0.00291545  53 t-inv F
 -0.285714  0.285714  0.428571    0.00291545  53 t-inv F
  0.285714 -0.428571 -0.285714    0.00291545  54 t-inv F
  0.428571 -0.285714 -0.428571    0.00291545  54 t-inv F
 -0.428571  0.285714  0.428571    0.00291545  54 t-inv F
 -0.428571  0.428571 -0.285714    0.00291545  55 t-inv F
  0.285714 -0.285714  0.428571    0.00291545  55 t-inv F
 -0.285714  0.285714 -0.428571    0.00291545  55 t-inv F
  0.428571  0.428571 -0.285714    0.00291545  56 t-inv F
 -0.428571 -0.428571  0.571429    0.00291545  56 t-inv F
  0.428571  0.428571 -0.571429    0.00291545  56 t-inv F
  0.285714  0.571429 -0.428571    0.00291545  56 t-inv F
 -0.285714 -0.571429  0.428571    0.00291545  56 t-inv F
  0.571429  0.285714 -0.428571    0.00291545  56 t-inv F
 -0.571429 -0.285714  0.428571    0.00291545  56 t-inv F
  0.285714  0.428571 -0.285714    0.00291545  57 t-inv F
 -0.428571 -0.285714  0.428571    0.00291545  57 t-inv F
  0.428571  0.285714 -0.428571    0.00291545  57 t-inv F
 -0.285714  0.285714 -0.285714    0.00291545  58 t-inv F
 -0.428571  0.285714 -0.285714    0.00291545  59 t-inv F
 -0.285714  0.428571 -0.428571    0.00291545  59 t-inv F
  0.285714 -0.428571  0.428571    0.00291545  59 t-inv F
  0.428571  0.285714 -0.285714    0.00291545  60 t-inv F
 -0.285714 -0.428571  0.428571    0.00291545  60 t-inv F
  0.285714  0.428571 -0.428571    0.00291545  60 t-inv F
  0.285714  0.285714 -0.285714    0.00291545  61 t-inv F
  0.428571 -0.428571 -0.428571    0.00291545  62 t-inv F
 -0.428571  0.428571 -0.428571    0.00291545  63 t-inv F
  0.428571  0.428571 -0.428571    0.00291545  64 t-inv F


--------------------------------------------------------------------------------------------------------




 Dimension of arrays:
   k-points           NKPTS =     64   k-points in BZ     NKDIM =    343   number of bands    NBANDS=    112
   number of dos      NEDOS =    301   number of ions     NIONS =     14
   non local maximal  LDIM  =      6   non local SUM 2l+1 LMDIM =     18
   total plane-waves  NPLWV =  74088
   max r-space proj   IRMAX =      1   max aug-charges    IRDMAX=  22420
   dimension x,y,z NGX =    42 NGY =   42 NGZ =   42
   dimension x,y,z NGXF=    84 NGYF=   84 NGZF=   84
   support grid    NGXF=    84 NGYF=   84 NGZF=   84
   ions per type =               3  11
   NGX,Y,Z   is equivalent  to a cutoff of   8.43,  8.43,  8.43 a.u.
   NGXF,Y,Z  is equivalent  to a cutoff of  16.85, 16.85, 16.85 a.u.

 SYSTEM =  unknown system                          
 POSCAR =  Nd3 Zn11                                

 Startparameter for this run:
   NWRITE =      2    write-flag & timer
   PREC   = normal    normal or accurate (medium, high low for compatibility)
   ISTART =      0    job   : 0-new  1-cont  2-samecut
   ICHARG =      2    charge: 1-file 2-atom 10-const
   ISPIN  =      1    spin polarized calculation?
   LNONCOLLINEAR =      F non collinear calculations
   LSORBIT =      F    spin-orbit coupling
   INIWAV =      1    electr: 0-lowe 1-rand  2-diag
   LASPH  =      T    aspherical Exc in radial PAW
 Electronic Relaxation 1
   ENCUT  =  400.0 eV  29.40 Ry    5.42 a.u.  13.51 13.51 13.51*2*pi/ulx,y,z
   ENINI  =  400.0     initial cutoff
   ENAUG  =  575.9 eV  augmentation charge cutoff
   NELM   =    100;   NELMIN=  2; NELMDL= -5     # of ELM steps 
   EDIFF  = 0.1E-06   stopping-criterion for ELM
   LREAL  =      F    real-space projection
   NLSPLINE    = F    spline interpolate recip. space projectors
   LCOMPAT=      F    compatible to vasp.4.4
   GGA_COMPAT  = T    GGA compatible to vasp.4.4-vasp.4.6
   LMAXPAW     = -100 max onsite density
   LMAXMIX     =    2 max onsite mixed and CHGCAR
   VOSKOWN=      0    Vosko Wilk Nusair interpolation
   ROPT   =    0.00000   0.00000
 Ionic relaxation
   EDIFFG = -.5E-02   stopping-criterion for IOM
   NSW    =    300    number of steps for IOM
   NBLOCK =      1;   KBLOCK =    300    inner block; outer block 
   IBRION =      2    ionic relax: 0-MD 1-quasi-New 2-CG
   NFREE  =      1    steps in history (QN), initial steepest desc. (CG)
   ISIF   =      3    stress and relaxation
   IWAVPR =     11    prediction:  0-non 1-charg 2-wave 3-comb
   ISYM   =      3    0-nonsym 1-usesym 2-fastsym
   LCORR  =      T    Harris-Foulkes like correction to forces

   POTIM  = 0.5000    time-step for ionic-motion
   TEIN   =    0.0    initial temperature
   TEBEG  =    0.0;   TEEND  =   0.0 temperature during run
   SMASS  =  -3.00    Nose mass-parameter (am)
   estimated Nose-frequenzy (Omega)   =  0.10E-29 period in steps = 0.13E+47 mass=  -0.157E-26a.u.
   SCALEE = 1.0000    scale energy and forces
   NPACO  =    256;   APACO  = 10.0  distance and # of slots for P.C.
   PSTRESS=    0.0 pullay stress

  Mass of Ions in am
   POMASS = 144.24 65.39
  Ionic Valenz
   ZVAL   =  11.00 12.00
  Atomic Wigner-Seitz radii
   RWIGS  =  -1.00 -1.00
  virtual crystal weights 
   VCA    =   1.00  1.00
   NELECT =     165.0000    total number of electrons
   NUPDOWN=      -1.0000    fix difference up-down

 DOS related values:
   EMIN   =  10.00;   EMAX   =-10.00  energy-range for DOS
   EFERMI =   0.00;   METHOD = LEGACY      
   ISMEAR =     0;   SIGMA  =   0.10  broadening in eV -4-tet -1-fermi 0-gaus
   EFERMI_NEDOS =   21; number of points for ismear=-14 and -15

 Electronic relaxation 2 (details)
   IALGO  =     53    algorithm
   LDIAG  =      T    sub-space diagonalisation (order eigenvalues)
   LSUBROT=      F    optimize rotation matrix (better conditioning)
   LROBUST=      F    robust break criterion during scf (extrapolated energy error)
   ISEARCH=      0    line search for conjugate gradient (0, 1=use gradient)
   TURBO    =      0    0=normal 1=particle mesh
   IRESTART =      0    0=no restart 2=restart with 2 vectors
   NREBOOT  =      0    no. of reboots
   NMIN     =      0    reboot dimension
   EREF     =   0.00    reference energy to select bands
   IMIX   =      4    mixing-type and parameters
     AMIX     =   0.40;   BMIX     =  1.00
     AMIX_MAG =   1.60;   BMIX_MAG =  1.00
     AMIN     =   0.10
     WC   =   100.;   INIMIX=   1;  MIXPRE=   1;  MAXMIX= -45

 Intra band minimization:
   WEIMIN = 0.0010     energy-eigenvalue tresh-hold
   EBREAK =  0.22E-09  absolut break condition
   DEPER  =   0.30     relativ break condition  

   TIME   =   0.40     timestep for ELM

  volume/ion in A,a.u.               =      18.97       128.02
  Fermi-wavevector in a.u.,A,eV,Ry     =   1.396901  2.639759 26.549473  1.951331
  Thomas-Fermi vector in A             =   2.520209
 
 Write flags
   LWAVE        =      T    write WAVECAR
   LDOWNSAMPLE  =      F    k-point downsampling of WAVECAR
   LCHARG       =      F    write CHGCAR
   LVTOT        =      F    write LOCPOT, total local potential
   LVHAR        =      F    write LOCPOT, Hartree potential only
   WRT_POTENTIAL= false  ! write potential to hdf5 file
   LELF         =      F    write electronic localiz. function (ELF)
   LORBIT       =     10    0 simple, 1 ext, 2 COOP (PROOUT), +10 PAW based schemes


 Python interface
   PLUGINS active      =      F    recompile with -DPLUGINS to activate
 
 Dipole corrections
   LMONO      =      F    monopole corrections only (constant potential shift)
   LDIPOL     =      F    correct potential (dipole corrections)
   IDIPOL     =      0    1-x, 2-y, 3-z, 4-all directions 
   EPSILON    =  1.0000000 bulk dielectric constant
   LVACPOTAV  =      F  vacuum potentials using an averaging scheme for the charge density
   VACPOTFLAT =  0.1000000 required flatness to determine vacuum potential
 
Coulomb truncation method
  LTRUNCATE          =      F  Coulomb kernel truncation to be used

 
 Exchange correlation treatment:
   GGA     = PE    functional components
   XC_C    = 1    coefficients multiplying the functional components
   LIBXC   =     F    Libxc                    
   VOSKOWN =     0    Vosko Wilk Nusair interpolation
   EXXOEP  =     0    0=HF, 1=EXX-LHF (local Hartree Fock) 2=EXX OEP
   LHFCALC =     T    Hartree Fock is set to
   LSYMGRAD=     F    symmetrize gradient (conserves proper symmetry)
   PRECFOCK=fast      Normal, Fast or Accurate (Low or Medium for compatibility)
   LRHFCALC=     F    long range Hartree Fock
   LRSCOR  =     F    long range correlation only (use DFT for short range part)
   LTHOMAS =     F    Thomas Fermi screening in HF
   LMODELHF=     F    short range full HF, long range fraction AEXX
   FOCKCORR=     1    mode to apply convergence corrections
   LFOCKACE=     T    use Adeptively-Compressed-Exchange operator
   ENCUT4O =  -1.0   cutoff for four orbital integrals eV
   LMAXFOCK=     4    L truncation for augmentation on plane wave grid
   LMAXFOCKAE=  -1    L truncation for all-electron charge restoration on plane wave grid
   NMAXFOCKAE=   1    number of basis functions for all-electron charge restoration
   LFOCKAEDFT=     F  apply the AE augmentation even for DFT
   NKREDX  =     1    reduce k-point grid by
   NKREDY  =     1    reduce k-point grid by
   NKREDZ  =     1    reduce k-point grid by
   SHIFTRED=     F    shift reduced grid of Gamma
   HFKIDENT=     F    idential grid for each k-point
   ODDONLY =     F    use only odd q-grid points
   EVENONLY=     F    use only even q-grid points
   HFALPHA =   -1.0000 decay constant for conv. correction
   MCALPHA =    0.0000 extent of test-charge in conv. correction in multipole expansion
   AEXX    =    0.3600 exact exchange contribution
   HFSCREEN=    0.2000 screening length (either q_TF or 0.3 A-1)
   HFSCREENC=   0.2000 screening length for correlation (either q_TF or 0.3 A-1)
   HFRCUT  =    0.0000 spherical cutoff for potential kernel
   ALDAX   =    0.6400 LDA exchange part
   AGGAX   =    0.6400 GGA exchange part
   AMGGAX  =    0.6400 meta-GGA exchange part
   ALDAC   =    1.0000 LDA correlation
   AGGAC   =    1.0000 GGA correlation
   AMGGAC  =    1.0000 meta-GGA correlation
   ENCUTFOCK=  -1.0 apply spherical cutoff to Coloumb kernel
   NBANDSGWLOW=     1    first orbital included in HF term
   NBLOCK_FOCK=    64    blocking factor in FOCK_ACC

 Parameters of functionals:
   PE:
     No parameter
 
 Van der Waals corrections
   IVDW    =     0    specifies the selected vdW correction

 Linear response parameters
   LEPSILON=     F    determine dielectric tensor
   LRPA    =     F    only Hartree local field effects (RPA)
   LNABLA  =     F    use nabla operator in PAW spheres
   LVEL    =     F    velocity operator in full k-point grid
   CSHIFT  =0.1000    complex shift for real part using Kramers Kronig
   OMEGAMAX=  -1.0    maximum frequency
   DEG_THRESHOLD= 0.2000000E-02 threshold for treating states as degnerate
   RTIME   =   -0.100 relaxation time in fs
  (WPLASMAI=    0.000 imaginary part of plasma frequency in eV, 0.658/RTIME)
   DFIELD  = 0.0000000 0.0000000 0.0000000 field for delta impulse in time
 
  Optional k-point grid parameters
   LKPOINTS_OPT  =     F    use optional k-point grid
   KPOINTS_OPT_MODE=     1    mode for optional k-point grid
 
 Orbital magnetization related:
   ORBITALMAG=     F  switch on orbital magnetization
   LCHIMAG   =     F  perturbation theory with respect to B field
   DQ        =  0.001000  dq finite difference perturbation B field
   LLRAUG    =     F  two centre corrections for induced B field
   LBONE     =     F  B-component reconstruction in AE one-centre
   LVGVCALC  =     T  calculate vGv susceptibility
   LVGVAPPL  =     F  apply vGv susceptibility instead of pGv for G=0

 Random number generation:
   RANDOM_GENERATOR = DEFAULT
   PCG_SEED         = not used


--------------------------------------------------------------------------------------------------------


 conjugate gradient relaxation of ions
 charge density and potential will be updated during run
 non-spin polarized calculation
 Conjugate gradient for all bands (Freysoldt, et al. PRB 79, 241103 (2009))
 perform sub-space diagonalisation
    before iterative eigenvector-optimisation
 modified Broyden-mixing scheme, WC =      100.0
 initial mixing is a Kerker type mixing with AMIX =  0.4000 and BMIX =      1.0000
 Hartree-type preconditioning will be used
 using additional bands           29
 reciprocal scheme for non local part
 use partial core corrections
 no Harris-corrections to forces 
 use gradient corrections 
 use of overlap-Matrix (Vanderbilt PP)
 Gauss-broadening in eV      SIGMA  =   0.10


--------------------------------------------------------------------------------------------------------


  energy-cutoff  :      400.00
  volume of cell :      265.59
      direct lattice vectors                 reciprocal lattice vectors
    -2.229214500  4.535696000  6.566836000    -0.000000000  0.110236665  0.076140169
     2.229214500 -4.535696000  6.566836000     0.224294253 -0.000000000  0.076140169
     2.229214500  4.535696000 -6.566836000     0.224294253  0.110236665  0.000000000

  length of vectors
     8.286451022  8.286451022  8.286451022     0.133975548  0.236865441  0.249920055


 
 k-points in units of 2pi/SCALE and weight: Num irrep kpoints: 64                   
   0.00000000  0.00000000  0.00000000       0.003
   0.00000000  0.01574809  0.01087717       0.012
   0.00000000  0.03149619  0.02175433       0.012
  -0.00000000  0.04724428  0.03263150       0.012
   0.03204204 -0.00000000  0.01087717       0.012
   0.03204204  0.01574809  0.02175433       0.023
   0.03204204  0.03149619  0.03263150       0.023
   0.03204204  0.04724428  0.04350867       0.023
   0.03204204 -0.04724428 -0.02175433       0.023
   0.03204204 -0.03149619 -0.01087717       0.023
   0.03204204 -0.01574809 -0.00000000       0.012
   0.06408407  0.00000000  0.02175433       0.012
   0.06408407  0.01574809  0.03263150       0.023
   0.06408407  0.03149619  0.04350867       0.023
   0.06408407  0.04724428  0.05438583       0.023
   0.06408407 -0.04724428 -0.01087717       0.023
   0.06408407 -0.03149619  0.00000000       0.012
   0.06408407 -0.01574809  0.01087717       0.023
   0.09612611 -0.00000000  0.03263150       0.012
   0.09612611  0.01574809  0.04350867       0.023
   0.09612611  0.03149619  0.05438583       0.023
   0.09612611  0.04724428  0.06526300       0.023
   0.09612611 -0.04724428  0.00000000       0.012
   0.09612611 -0.03149619  0.01087717       0.023
   0.09612611 -0.01574809  0.02175433       0.023
   0.06408407  0.03149619  0.02175433       0.023
   0.06408407  0.04724428  0.03263150       0.023
   0.06408407 -0.00000000 -0.00000000       0.006
   0.09612611  0.03149619  0.03263150       0.023
   0.09612611  0.04724428  0.04350867       0.023
   0.09612611  0.06299238  0.05438583       0.023
   0.09612611 -0.01574809  0.00000000       0.012
   0.09612611  0.00000000  0.01087717       0.012
   0.12816814 -0.03149619  0.00000000       0.012
   0.12816814 -0.01574809  0.01087717       0.023
   0.12816814  0.00000000  0.02175433       0.012
  -0.06408407  0.06299238 -0.00000000       0.012
  -0.06408407 -0.03149619 -0.06526300       0.023
  -0.06408407 -0.01574809 -0.05438583       0.023
  -0.06408407  0.00000000 -0.04350867       0.012
  -0.03204204  0.04724428 -0.00000000       0.012
  -0.03204204  0.06299238  0.01087717       0.023
  -0.03204204 -0.03149619 -0.05438583       0.023
  -0.03204204 -0.01574809 -0.04350867       0.023
  -0.03204204  0.00000000 -0.03263150       0.012
  -0.00000000  0.03149619 -0.00000000       0.006
   0.00000000  0.04724428  0.01087717       0.012
   0.00000000  0.06299238  0.02175433       0.012
  -0.00000000 -0.03149619 -0.04350867       0.012
   0.00000000 -0.01574809 -0.03263150       0.012
   0.00000000  0.00000000 -0.02175433       0.006
   0.12816814 -0.00000000  0.00000000       0.006
   0.16021018 -0.01574809  0.00000000       0.012
   0.16021018 -0.00000000  0.01087717       0.012
  -0.03204204  0.07874047 -0.00000000       0.012
  -0.03204204 -0.01574809 -0.06526300       0.023
  -0.03204204 -0.00000000 -0.05438583       0.012
   0.00000000  0.06299238 -0.00000000       0.006
   0.00000000  0.07874047  0.01087717       0.012
  -0.00000000 -0.01574809 -0.05438583       0.012
   0.00000000 -0.00000000 -0.04350867       0.006
   0.19225222 -0.00000000 -0.00000000       0.006
  -0.00000000  0.09448857 -0.00000000       0.006
   0.00000000  0.00000000 -0.06526300       0.006
 
 k-points in reciprocal lattice and weights: Num irrep kpoints: 64                   
   0.00000000  0.00000000  0.00000000       0.003
   0.14285714 -0.00000000  0.00000000       0.012
   0.28571429 -0.00000000  0.00000000       0.012
   0.42857143 -0.00000000 -0.00000000       0.012
   0.00000000  0.14285714 -0.00000000       0.012
   0.14285714  0.14285714 -0.00000000       0.023
   0.28571429  0.14285714 -0.00000000       0.023
   0.42857143  0.14285714 -0.00000000       0.023
  -0.42857143  0.14285714 -0.00000000       0.023
  -0.28571429  0.14285714 -0.00000000       0.023
  -0.14285714  0.14285714 -0.00000000       0.012
  -0.00000000  0.28571429  0.00000000       0.012
   0.14285714  0.28571429 -0.00000000       0.023
   0.28571429  0.28571429  0.00000000       0.023
   0.42857143  0.28571429 -0.00000000       0.023
  -0.42857143  0.28571429 -0.00000000       0.023
  -0.28571429  0.28571429 -0.00000000       0.012
  -0.14285714  0.28571429 -0.00000000       0.023
   0.00000000  0.42857143 -0.00000000       0.012
   0.14285714  0.42857143  0.00000000       0.023
   0.28571429  0.42857143  0.00000000       0.023
   0.42857143  0.42857143 -0.00000000       0.023
  -0.42857143  0.42857143  0.00000000       0.012
  -0.28571429  0.42857143 -0.00000000       0.023
  -0.14285714  0.42857143 -0.00000000       0.023
   0.14285714  0.14285714  0.14285714       0.023
   0.28571429  0.14285714  0.14285714       0.023
  -0.14285714  0.14285714  0.14285714       0.006
   0.14285714  0.28571429  0.14285714       0.023
   0.28571429  0.28571429  0.14285714       0.023
   0.42857143  0.28571429  0.14285714       0.023
  -0.28571429  0.28571429  0.14285714       0.012
  -0.14285714  0.28571429  0.14285714       0.012
  -0.42857143  0.42857143  0.14285714       0.012
  -0.28571429  0.42857143  0.14285714       0.023
  -0.14285714  0.42857143  0.14285714       0.012
   0.42857143 -0.42857143  0.14285714       0.012
  -0.42857143 -0.42857143  0.14285714       0.023
  -0.28571429 -0.42857143  0.14285714       0.023
  -0.14285714 -0.42857143  0.14285714       0.012
   0.28571429 -0.28571429  0.14285714       0.012
   0.42857143 -0.28571429  0.14285714       0.023
  -0.42857143 -0.28571429  0.14285714       0.023
  -0.28571429 -0.28571429  0.14285714       0.023
  -0.14285714 -0.28571429  0.14285714       0.012
   0.14285714 -0.14285714  0.14285714       0.006
   0.28571429 -0.14285714  0.14285714       0.012
   0.42857143 -0.14285714  0.14285714       0.012
  -0.42857143 -0.14285714  0.14285714       0.012
  -0.28571429 -0.14285714  0.14285714       0.012
  -0.14285714 -0.14285714  0.14285714       0.006
  -0.28571429  0.28571429  0.28571429       0.006
  -0.42857143  0.42857143  0.28571429       0.012
  -0.28571429  0.42857143  0.28571429       0.012
   0.42857143 -0.42857143  0.28571429       0.012
  -0.42857143 -0.42857143  0.28571429       0.023
  -0.28571429 -0.42857143  0.28571429       0.012
   0.28571429 -0.28571429  0.28571429       0.006
   0.42857143 -0.28571429  0.28571429       0.012
  -0.42857143 -0.28571429  0.28571429       0.012
  -0.28571429 -0.28571429  0.28571429       0.006
  -0.42857143  0.42857143  0.42857143       0.006
   0.42857143 -0.42857143  0.42857143       0.006
  -0.42857143 -0.42857143  0.42857143       0.006
 
 position of ions in fractional coordinates (direct lattice) 
   0.30138800  0.30138800  0.00000000
   0.69861200  0.69861200  0.00000000
   0.00000000  0.00000000  0.00000000
   0.70040500  0.33797350  0.36243150
   0.29959500  0.66202650  0.63756850
   0.97554200  0.33797350  0.63756850
   0.02445800  0.66202650  0.36243150
   0.69840900  0.50000000  0.19840900
   0.30159100  0.50000000  0.80159100
   0.41589600  0.13798100  0.27791500
   0.58410400  0.86201900  0.72208500
   0.86006600  0.13798100  0.72208500
   0.13993400  0.86201900  0.27791500
   0.50000000  0.00000000  0.50000000
 
 position of ions in cartesian coordinates  (Angst):
   0.00000000 -0.00000000  3.95833114
  -0.00000000  0.00000000  9.17534086
   0.00000000  0.00000000  0.00000000
  -0.00000000  3.28775821  4.43883309
   2.22921450  1.24793779  2.12800291
   0.00000000  5.78363379  4.43883309
   2.22921450 -1.24793779  2.12800291
  -0.00000000  1.79984582  6.56683600
   2.22921450  2.73585018  0.00000000
   0.00000000  2.52107591  1.81219720
   2.22921450  2.01462009  4.75463880
  -0.00000000  6.55031609  1.81219720
   2.22921450 -2.01462009  4.75463880
   0.00000000  4.53569600  0.00000000
 


--------------------------------------------------------------------------------------------------------


 k-point     1 :   0.0000 0.0000 0.0000  plane waves:    4833
 k-point     2 :   0.1429-0.0000 0.0000  plane waves:    4846
 k-point     3 :   0.2857-0.0000 0.0000  plane waves:    4826
 k-point     4 :   0.4286-0.0000-0.0000  plane waves:    4822
 k-point     5 :   0.0000 0.1429-0.0000  plane waves:    4831
 k-point     6 :   0.1429 0.1429-0.0000  plane waves:    4828
 k-point     7 :   0.2857 0.1429-0.0000  plane waves:    4830
 k-point     8 :   0.4286 0.1429-0.0000  plane waves:    4822
 k-point     9 :  -0.4286 0.1429-0.0000  plane waves:    4833
 k-point    10 :  -0.2857 0.1429-0.0000  plane waves:    4835
 k-point    11 :  -0.1429 0.1429-0.0000  plane waves:    4833
 k-point    12 :  -0.0000 0.2857 0.0000  plane waves:    4837
 k-point    13 :   0.1429 0.2857-0.0000  plane waves:    4816
 k-point    14 :   0.2857 0.2857 0.0000  plane waves:    4811
 k-point    15 :   0.4286 0.2857-0.0000  plane waves:    4819
 k-point    16 :  -0.4286 0.2857-0.0000  plane waves:    4829
 k-point    17 :  -0.2857 0.2857-0.0000  plane waves:    4828
 k-point    18 :  -0.1429 0.2857-0.0000  plane waves:    4836
 k-point    19 :   0.0000 0.4286-0.0000  plane waves:    4819
 k-point    20 :   0.1429 0.4286 0.0000  plane waves:    4822
 k-point    21 :   0.2857 0.4286 0.0000  plane waves:    4833
 k-point    22 :   0.4286 0.4286-0.0000  plane waves:    4822
 k-point    23 :  -0.4286 0.4286 0.0000  plane waves:    4829
 k-point    24 :  -0.2857 0.4286-0.0000  plane waves:    4835
 k-point    25 :  -0.1429 0.4286-0.0000  plane waves:    4822
 k-point    26 :   0.1429 0.1429 0.1429  plane waves:    4823
 k-point    27 :   0.2857 0.1429 0.1429  plane waves:    4818
 k-point    28 :  -0.1429 0.1429 0.1429  plane waves:    4839
 k-point    29 :   0.1429 0.2857 0.1429  plane waves:    4832
 k-point    30 :   0.2857 0.2857 0.1429  plane waves:    4826
 k-point    31 :   0.4286 0.2857 0.1429  plane waves:    4838
 k-point    32 :  -0.2857 0.2857 0.1429  plane waves:    4831
 k-point    33 :  -0.1429 0.2857 0.1429  plane waves:    4832
 k-point    34 :  -0.4286 0.4286 0.1429  plane waves:    4816
 k-point    35 :  -0.2857 0.4286 0.1429  plane waves:    4813
 k-point    36 :  -0.1429 0.4286 0.1429  plane waves:    4811
 k-point    37 :   0.4286-0.4286 0.1429  plane waves:    4829
 k-point    38 :  -0.4286-0.4286 0.1429  plane waves:    4810
 k-point    39 :  -0.2857-0.4286 0.1429  plane waves:    4806
 k-point    40 :  -0.1429-0.4286 0.1429  plane waves:    4823
 k-point    41 :   0.2857-0.2857 0.1429  plane waves:    4837
 k-point    42 :   0.4286-0.2857 0.1429  plane waves:    4821
 k-point    43 :  -0.4286-0.2857 0.1429  plane waves:    4820
 k-point    44 :  -0.2857-0.2857 0.1429  plane waves:    4824
 k-point    45 :  -0.1429-0.2857 0.1429  plane waves:    4832
 k-point    46 :   0.1429-0.1429 0.1429  plane waves:    4831
 k-point    47 :   0.2857-0.1429 0.1429  plane waves:    4848
 k-point    48 :   0.4286-0.1429 0.1429  plane waves:    4816
 k-point    49 :  -0.4286-0.1429 0.1429  plane waves:    4826
 k-point    50 :  -0.2857-0.1429 0.1429  plane waves:    4831
 k-point    51 :  -0.1429-0.1429 0.1429  plane waves:    4841
 k-point    52 :  -0.2857 0.2857 0.2857  plane waves:    4797
 k-point    53 :  -0.4286 0.4286 0.2857  plane waves:    4809
 k-point    54 :  -0.2857 0.4286 0.2857  plane waves:    4806
 k-point    55 :   0.4286-0.4286 0.2857  plane waves:    4826
 k-point    56 :  -0.4286-0.4286 0.2857  plane waves:    4824
 k-point    57 :  -0.2857-0.4286 0.2857  plane waves:    4820
 k-point    58 :   0.2857-0.2857 0.2857  plane waves:    4829
 k-point    59 :   0.4286-0.2857 0.2857  plane waves:    4819
 k-point    60 :  -0.4286-0.2857 0.2857  plane waves:    4837
 k-point    61 :  -0.2857-0.2857 0.2857  plane waves:    4839
 k-point    62 :  -0.4286 0.4286 0.4286  plane waves:    4830
 k-point    63 :   0.4286-0.4286 0.4286  plane waves:    4810
 k-point    64 :  -0.4286-0.4286 0.4286  plane waves:    4830

 maximum and minimum number of plane-waves per node :      4848     4797

 maximum number of plane-waves:      4848
 maximum index in each direction: 
   IXMAX=   13   IYMAX=   13   IZMAX=   13
   IXMIN=  -13   IYMIN=  -13   IZMIN=  -13


 serial   3D FFT for wavefunctions
 parallel 3D FFT for charge:
    minimum data exchange during FFTs selected (reduces bandwidth)


 FFT grid for exact exchange (Hartree Fock) 
  NGX = 30; NGY = 30; NGZ = 30

 
 Radii for the augmentation spheres in the non-local exchange
 for species   1 augmentation radius   1.784 (default was   1.321)
       energy cutoff for augmentation   1600.0
 for species   2 augmentation radius   1.285 (default was   0.952)
       energy cutoff for augmentation   1600.0
 Maximum index for augmentation-charges in exchange         2415
  SETUP_FOCK is finished

 total amount of memory used by VASP MPI-rank0   193801. kBytes
=======================================================================

   base                                    :      30000. kBytes
   nonl-proj                               :      90892. kBytes
   fftplans                                :       1043. kBytes
   grid                                    :       4197. kBytes
   one-center                              :        217. kBytes
   HF                                      :        129. kBytes
   nonlr-proj                              :       4362. kBytes
   wavefun                                 :      62961. kBytes
 
     INWAV:  cpu time      0.0000: real time      0.0005
 Broyden mixing: mesh for mixing (old mesh)
   NGX = 27   NGY = 27   NGZ = 27
  (NGX  = 84   NGY  = 84   NGZ  = 84)
  gives a total of  19683 points

 initial charge density was supplied:
 charge density of overlapping atoms calculated
 number of electron     165.0000000 magnetization 
 keeping initial charge density in first step


--------------------------------------------------------------------------------------------------------


 Maximum index for augmentation-charges         1081 (set IRDMAX)


--------------------------------------------------------------------------------------------------------


 First call to EWALD:  gamma=   0.276
 Maximum number of real-space cells   2x   4x   4
 Maximum number of reciprocal cells   3x   3x   3

    FEWALD:  cpu time      0.0066: real time      0.0070


--------------------------------------- Ionic step        1  -------------------------------------------




--------------------------------------- Iteration      1(   1)  ---------------------------------------


    POTLOK:  cpu time      0.0343: real time      0.0645
    SETDIJ:  cpu time      0.0614: real time      0.0620
    TRIAL :  cpu time      1.2075: real time      1.4344
    CORREC:  cpu time      0.0006: real time      0.0006
    --------------------------------------------
      LOOP:  cpu time      1.3261: real time      1.5847

 eigenvalue-minimisations  : 14364
 total energy-change (2. order) :-0.1129753E+05  (-0.6792508E+04)
 number of electron     165.0000000 magnetization 
 augmentation part      165.0000000 magnetization 

 Free energy of the ion-electron system (eV)
  ---------------------------------------------------
  alpha Z        PSCENC =      1354.52117041
  Ewald energy   TEWEN  =    -14875.25964335
  -Hartree energ DENC   =     -6614.20801837
  -exchange      EXHF   =         0.00000000
  -V(xc)+E(xc)   XCENC  =       710.41488834
  PAW double counting   =     18168.68897297   -32198.91339379
  entropy T*S    EENTRO =        -0.01578681
  eigenvalues    EBANDS =       130.08997601
  atomic energy  EATOM  =     22027.15015451
  ---------------------------------------------------
  free energy    TOTEN  =    -11297.53168007 eV

  energy without entropy =   -11297.51589326  energy(sigma->0) =   -11297.52378667
  exchange ACFDT corr.  =         0.00000000  see jH, gK, PRB 81, 115126


--------------------------------------------------------------------------------------------------------




--------------------------------------- Iteration      1(   2)  ---------------------------------------


    TRIAL :  cpu time      1.5764: real time      1.5837
    CORREC:  cpu time      0.0004: real time      0.0004
    --------------------------------------------
      LOOP:  cpu time      1.5905: real time      1.6070

 eigenvalue-minimisations  : 21420
 total energy-change (2. order) :-0.1288772E+04  (-0.1244469E+04)
 number of electron     165.0000000 magnetization 
 augmentation part      165.0000000 magnetization 

 Free energy of the ion-electron system (eV)
  ---------------------------------------------------
  alpha Z        PSCENC =      1354.52117041
  Ewald energy   TEWEN  =    -14875.25964335
  -Hartree energ DENC   =     -6614.20801837
  -exchange      EXHF   =         0.00000000
  -V(xc)+E(xc)   XCENC  =       710.41488834
  PAW double counting   =     18168.68897297   -32198.91339379
  entropy T*S    EENTRO =        -0.01666783
  eigenvalues    EBANDS =     -1158.68106187
  atomic energy  EATOM  =     22027.15015451
  ---------------------------------------------------
  free energy    TOTEN  =    -12586.30359898 eV

  energy without entropy =   -12586.28693115  energy(sigma->0) =   -12586.29526507
  exchange ACFDT corr.  =         0.00000000  see jH, gK, PRB 81, 115126


--------------------------------------------------------------------------------------------------------




--------------------------------------- Iteration      1(   3)  ---------------------------------------


    TRIAL :  cpu time      1.4655: real time      1.4727
    CORREC:  cpu time      0.0004: real time      0.0004
    --------------------------------------------
      LOOP:  cpu time      1.4834: real time      1.4948

 eigenvalue-minimisations  : 19740
 total energy-change (2. order) :-0.3341259E+03  (-0.3228887E+03)
 number of electron     165.0000000 magnetization 
 augmentation part      165.0000000 magnetization 

 Free energy of the ion-electron system (eV)
  ---------------------------------------------------
  alpha Z        PSCENC =      1354.52117041
  Ewald energy   TEWEN  =    -14875.25964335
  -Hartree energ DENC   =     -6614.20801837
  -exchange      EXHF   =         0.00000000
  -V(xc)+E(xc)   XCENC  =       710.41488834
  PAW double counting   =     18168.68897297   -32198.91339379
  entropy T*S    EENTRO =        -0.03905766
  eigenvalues    EBANDS =     -1492.78460938
  atomic energy  EATOM  =     22027.15015451
  ---------------------------------------------------
  free energy    TOTEN  =    -12920.42953632 eV

  energy without entropy =   -12920.39047866  energy(sigma->0) =   -12920.41000749
  exchange ACFDT corr.  =         0.00000000  see jH, gK, PRB 81, 115126


--------------------------------------------------------------------------------------------------------




--------------------------------------- Iteration      1(   4)  ---------------------------------------


    TRIAL :  cpu time      2.0537: real time      2.0627
    CORREC:  cpu time      0.0004: real time      0.0004
    --------------------------------------------
      LOOP:  cpu time      2.0729: real time      2.0848

 eigenvalue-minimisations  : 27636
 total energy-change (2. order) :-0.7197809E+02  (-0.7059014E+02)
 number of electron     165.0000000 magnetization 
 augmentation part      165.0000000 magnetization 

 Free energy of the ion-electron system (eV)
  ---------------------------------------------------
  alpha Z        PSCENC =      1354.52117041
  Ewald energy   TEWEN  =    -14875.25964335
  -Hartree energ DENC   =     -6614.20801837
  -exchange      EXHF   =         0.00000000
  -V(xc)+E(xc)   XCENC  =       710.41488834
  PAW double counting   =     18168.68897297   -32198.91339379
  entropy T*S    EENTRO =        -0.03990606
  eigenvalues    EBANDS =     -1564.76185342
  atomic energy  EATOM  =     22027.15015451
  ---------------------------------------------------
  free energy    TOTEN  =    -12992.40762875 eV

  energy without entropy =   -12992.36772270  energy(sigma->0) =   -12992.38767572
  exchange ACFDT corr.  =         0.00000000  see jH, gK, PRB 81, 115126


--------------------------------------------------------------------------------------------------------




--------------------------------------- Iteration      1(   5)  ---------------------------------------


    POTLOK:  cpu time      0.0250: real time      0.0251
    SETDIJ:  cpu time      0.1865: real time      0.1870
    TRIAL :  cpu time   2612.1955: real time   2625.8349
    CORREC:  cpu time      0.0010: real time      0.0015
    CHARGE:  cpu time      0.1463: real time      0.1642
    --------------------------------------------
      LOOP:  cpu time   2612.5676: real time   2626.2355

 eigenvalue-minimisations  : 23268
 total energy-change (2. order) : 0.1296006E+05  (-0.1703459E+02)
 number of electron     164.9999687 magnetization 
 augmentation part       92.4766561 magnetization 

 Free energy of the ion-electron system (eV)
  ---------------------------------------------------
  alpha Z        PSCENC =      1354.52117041
  Ewald energy   TEWEN  =    -14875.25964335
  -Hartree energ DENC   =     -6614.20801837
  -exchange      EXHF   =       652.24496952
  -V(xc)+E(xc)   XCENC  =       463.34894688
  PAW double counting   =     18407.39955513   -20058.41488112
  entropy T*S    EENTRO =        -0.02869964
  eigenvalues    EBANDS =     -1389.09767366
  atomic energy  EATOM  =     22027.15015451
  ---------------------------------------------------
  free energy    TOTEN  =       -32.34411968 eV

  energy without entropy =      -32.31542005  energy(sigma->0) =      -32.32976986
  exchange ACFDT corr.  =        -0.01298794  see jH, gK, PRB 81, 115126


--------------------------------------------------------------------------------------------------------




--------------------------------------- Iteration      1(   6)  ---------------------------------------


    POTLOK:  cpu time      0.0486: real time      0.0516
    SETDIJ:  cpu time      0.1800: real time      0.1815
    TRIAL :  cpu time   2576.7554: real time   2589.7865
    CORREC:  cpu time      0.0039: real time      0.0049
    CHARGE:  cpu time      0.1487: real time      0.1997
    --------------------------------------------
      LOOP:  cpu time   2577.1511: real time   2590.2414

 eigenvalue-minimisations  :     0
 total energy-change (2. order) : 0.2749514E+01  (-0.1053421E+02)
 number of electron     164.9999691 magnetization 
 augmentation part       90.9951530 magnetization 

 Free energy of the ion-electron system (eV)
  ---------------------------------------------------
  alpha Z        PSCENC =      1354.52117041
  Ewald energy   TEWEN  =    -14875.25964335
  -Hartree energ DENC   =     -6596.16511932
  -exchange      EXHF   =       635.96271882
  -V(xc)+E(xc)   XCENC  =       464.81034855
  PAW double counting   =     20474.25876761   -22231.20628590
  entropy T*S    EENTRO =        -0.02869964
  eigenvalues    EBANDS =     -1283.63801718
  atomic energy  EATOM  =     22027.15015451
  ---------------------------------------------------
  free energy    TOTEN  =       -29.59460550 eV

  energy without entropy =      -29.56590587  energy(sigma->0) =      -29.58025568
  exchange ACFDT corr.  =        -0.00810200  see jH, gK, PRB 81, 115126


--------------------------------------------------------------------------------------------------------




--------------------------------------- Iteration      1(   7)  ---------------------------------------


    POTLOK:  cpu time      0.0458: real time      0.0506
    SETDIJ:  cpu time      0.1797: real time      0.1812
