       N       E                     dE             d eps       ncg     rms          rms(c)
DAV:   1     0.238726601776E+04    0.23873E+04   -0.12559E+05  1144   0.754E+02
DAV:   2     0.317165455027E+02   -0.23555E+04   -0.22783E+04  1420   0.197E+02
DAV:   3    -0.181149974336E+03   -0.21287E+03   -0.21198E+03  1376   0.666E+01
DAV:   4    -0.184344494008E+03   -0.31945E+01   -0.31881E+01  1344   0.954E+00
DAV:   5    -0.184404545652E+03   -0.60052E-01   -0.60023E-01  1328   0.117E+00    0.258E+01
DAV:   6    -0.178278179049E+03    0.61264E+01   -0.31910E+01  1252   0.660E+00    0.142E+01
DAV:   7    -0.181412689489E+03   -0.31345E+01   -0.57298E+00  1336   0.319E+00    0.968E+00
DAV:   8    -0.183671094836E+03   -0.22584E+01   -0.12631E+00  1342   0.136E+00    0.512E+00
DAV:   9    -0.184716218073E+03   -0.10451E+01   -0.65070E-01  1290   0.102E+00    0.114E+00
DAV:  10    -0.184803451023E+03   -0.87233E-01   -0.75713E-02  1274   0.350E-01    0.718E-01
DAV:  11    -0.184829249684E+03   -0.25799E-01   -0.13300E-02  1284   0.156E-01    0.379E-01
DAV:  12    -0.184839100732E+03   -0.98510E-02   -0.10240E-02  1190   0.126E-01    0.630E-02
DAV:  13    -0.184839137471E+03   -0.36739E-04   -0.24434E-04  1336   0.214E-02    0.280E-02
DAV:  14    -0.184839136340E+03    0.11312E-05   -0.10617E-05   826   0.512E-03
   1 F= -.18483914E+03 E0= -.18483914E+03  d E =-.184839E+03  mag=     0.0007
