 running    2 mpi-ranks, on    1 nodes
 distrk:  each k-point on    2 cores,    1 groups
 distr:  one band on    1 cores,    2 groups
 Offloading initialized ...    2 GPUs detected
 vasp.6.5.1 10Mar25 (build May 13 2025 11:33:44) complex                         
 POSCAR found type information on POSCAR CsCl
 POSCAR found :  2 types and      54 ions
 -----------------------------------------------------------------------------
|                                                                             |
|           W    W    AA    RRRRR   N    N  II  N    N   GGGG   !!!           |
|           W    W   A  A   R    R  NN   N  II  NN   N  G    G  !!!           |
|           W    W  A    A  R    R  N N  N  II  N N  N  G       !!!           |
|           W WW W  AAAAAA  RRRRR   N  N N  II  N  N N  G  GGG   !            |
|           WW  WW  A    A  R   R   N   NN  II  N   NN  G    G                |
|           W    W  A    A  R    R  N    N  II  N    N   GGGG   !!!           |
|                                                                             |
|     You requested a magnetic or noncollinear calculation, but did not       |
|     specify the initial magnetic moment with the MAGMOM tag. Note that      |
|     a default of 1 will be used for all atoms. This ferromagnetic setup     |
|     may break the symmetry of the crystal, in particular it may rule        |
|     out finding an antiferromagnetic solution. Thence, we recommend         |
|     setting the initial magnetic moment manually or verifying carefully     |
|     that this magnetic setup is desired.                                    |
|                                                                             |
 -----------------------------------------------------------------------------

 scaLAPACK will be used selectively (only on CPU)
 -----------------------------------------------------------------------------
|                                                                             |
|               ----> ADVICE to this user running VASP <----                  |
|                                                                             |
|     You enforced a specific xc type in the INCAR file but a different       |
|     type was found in the POTCAR file.                                      |
|     I HOPE YOU KNOW WHAT YOU ARE DOING!                                     |
|                                                                             |
 -----------------------------------------------------------------------------

 LDA part: xc-table for (Slater+PW92), standard interpolation
 POSCAR, INCAR and KPOINTS ok, starting setup
 FFT: planning ... GRIDC
 FFT: planning ... GRID_SOFT
 FFT: planning ... GRID
 WAVECAR not read
 entering main loop
       N       E                     dE             d eps       ncg     rms          rms(c)
DAV:   1     0.238726601776E+04    0.23873E+04   -0.12559E+05  1144   0.754E+02
DAV:   2     0.317165455027E+02   -0.23555E+04   -0.22783E+04  1420   0.197E+02
DAV:   3    -0.181149974336E+03   -0.21287E+03   -0.21198E+03  1376   0.666E+01
DAV:   4    -0.184344494008E+03   -0.31945E+01   -0.31881E+01  1344   0.954E+00
DAV:   5    -0.184404545652E+03   -0.60052E-01   -0.60023E-01  1328   0.117E+00    0.258E+01
DAV:   6    -0.178278179049E+03    0.61264E+01   -0.31910E+01  1252   0.660E+00    0.142E+01
DAV:   7    -0.181412689489E+03   -0.31345E+01   -0.57298E+00  1336   0.319E+00    0.968E+00
DAV:   8    -0.183671094836E+03   -0.22584E+01   -0.12631E+00  1342   0.136E+00    0.512E+00
DAV:   9    -0.184716218073E+03   -0.10451E+01   -0.65070E-01  1290   0.102E+00    0.114E+00
DAV:  10    -0.184803451023E+03   -0.87233E-01   -0.75713E-02  1274   0.350E-01    0.718E-01
DAV:  11    -0.184829249684E+03   -0.25799E-01   -0.13300E-02  1284   0.156E-01    0.379E-01
DAV:  12    -0.184839100732E+03   -0.98510E-02   -0.10240E-02  1190   0.126E-01    0.630E-02
DAV:  13    -0.184839137471E+03   -0.36739E-04   -0.24434E-04  1336   0.214E-02    0.280E-02
DAV:  14    -0.184839136340E+03    0.11312E-05   -0.10617E-05   826   0.512E-03
   1 F= -.18483914E+03 E0= -.18483914E+03  d E =-.184839E+03  mag=     0.0007
 curvature:   0.00 expect dE= 0.000E+00 dE for cont linesearch  0.000E+00
 trial: gam= 0.00000 g(F)=  0.266E-46 g(S)=  0.000E+00 ort = 0.000E+00 (trialstep = 0.100E+01)
 search vector abs. value=  0.100E-09
 reached required accuracy - stopping structural energy minimisation
