<?xml version="1.0" encoding="ISO-8859-1"?>
<modeling>
 <generator>
  <i name="program" type="string">vasp </i>
  <i name="version" type="string">6.5.1  </i>
  <i name="subversion" type="string">10Mar25 (build May 13 2025 11:33:44) complex                          parallel </i>
  <i name="platform" type="string">LinuxNV </i>
  <i name="date" type="string">2026 05 13 </i>
  <i name="time" type="string">14:59:49 </i>
 </generator>
 <incar>
  <i type="string" name="PREC">Normal</i>
  <i type="string" name="ALGO">Normal</i>
  <i type="int" name="ISPIN">     2</i>
  <i type="int" name="NELM">   100</i>
  <i type="int" name="IBRION">     2</i>
  <i name="EDIFF">      0.00001000</i>
  <i name="EDIFFG">     -0.03000000</i>
  <i type="int" name="NSW">   300</i>
  <i type="int" name="ISIF">     2</i>
  <i name="ENCUT">    262.47200000</i>
  <i type="string" name="LREAL">Auto</i>
  <i type="int" name="ISMEAR">     0</i>
  <i name="SIGMA">      0.10000000</i>
  <i type="logical" name="LWAVE"> F  </i>
  <i type="logical" name="LCHARG"> F  </i>
  <i type="int" name="LORBIT">    10</i>
  <i type="logical" name="LASPH"> T  </i>
  <i type="string" name="GGA">Ps</i>
 </incar>
 <primitive_cell>
  <structure name="primitive_cell" >
   <crystal>
    <varray name="basis" >
     <v>       4.07544864       0.00000000       0.00000000 </v>
     <v>       0.00000000       4.07544864       0.00000000 </v>
     <v>       0.00000000       0.00000000       4.07544864 </v>
    </varray>
    <i name="volume">     67.69027411 </i>
    <varray name="rec_basis" >
     <v>       0.24537176       0.00000000       0.00000000 </v>
     <v>       0.00000000       0.24537176       0.00000000 </v>
     <v>       0.00000000       0.00000000       0.24537176 </v>
    </varray>
   </crystal>
   <varray name="positions" >
    <v>       0.00000000       0.00000000       0.00000000 </v>
    <v>       0.50000000       0.50000000       0.50000000 </v>
   </varray>
  </structure>
  <varray name="primitive_index" >
   <v type="int" >        1 </v>
   <v type="int" >       28 </v>
  </varray>
 </primitive_cell>
 <kpoints>
  <generation param="Gamma">
   <v type="int" name="divisions">       1        1        1 </v>
   <v name="usershift">      0.00000000       0.00000000       0.00000000 </v>
   <v name="genvec1">      1.00000000       0.00000000       0.00000000 </v>
   <v name="genvec2">      0.00000000       1.00000000       0.00000000 </v>
   <v name="genvec3">      0.00000000       0.00000000       1.00000000 </v>
   <v name="shift">      0.00000000       0.00000000       0.00000000 </v>
  </generation>
  <varray name="kpointlist" >
   <v>       0.00000000       0.00000000       0.00000000 </v>
  </varray>
  <varray name="weights" >
   <v>       1.00000000 </v>
  </varray>
 </kpoints>
 <parameters>
  <separator name="general" >
   <i type="string" name="SYSTEM">unknown system</i>
   <i type="logical" name="LCOMPAT"> F  </i>
  </separator>
  <separator name="electronic" >
   <i type="string" name="PREC">normal</i>
   <i name="ENMAX">    262.47200000</i>
   <i name="ENAUG">    407.93300000</i>
   <i name="EDIFF">      0.00001000</i>
   <i type="int" name="IALGO">    38</i>
   <i type="int" name="IWAVPR">    11</i>
   <i type="int" name="NBANDS">   286</i>
   <i type="int" name="NBANDSLOW">    -1</i>
   <i type="int" name="NBANDSHIGH">    -1</i>
   <i name="NELECT">    432.00000000</i>
   <i type="int" name="TURBO">     0</i>
   <i type="int" name="IRESTART">     0</i>
   <i type="int" name="NREBOOT">     0</i>
   <i type="int" name="NMIN">     0</i>
   <i name="EREF">      0.00000000</i>
   <separator name="electronic smearing" >
    <i type="int" name="ISMEAR">     0</i>
    <i name="SIGMA">      0.10000000</i>
    <i name="KSPACING">      0.50000000</i>
    <i type="logical" name="KGAMMA"> T  </i>
    <i type="logical" name="KBLOWUP"> T  </i>
   </separator>
   <separator name="electronic projectors" >
    <i type="logical" name="LREAL"> T  </i>
    <v name="ROPT">     -0.00050000     -0.00050000</v>
    <i type="int" name="LMAXPAW">  -100</i>
    <i type="int" name="LMAXMIX">     2</i>
    <i type="logical" name="NLSPLINE"> F  </i>
   </separator>
   <separator name="electronic startup" >
    <i type="int" name="ISTART">     0</i>
    <i type="int" name="ICHARG">     2</i>
    <i type="int" name="INIWAV">     1</i>
   </separator>
   <separator name="electronic spin" >
    <i type="int" name="ISPIN">     2</i>
    <i type="logical" name="LNONCOLLINEAR"> F  </i>
    <v name="MAGMOM">      1.00000000      1.00000000      1.00000000      1.00000000      1.00000000      1.00000000      1.00000000      1.00000000      1.00000000      1.00000000      1.00000000      1.00000000      1.00000000      1.00000000      1.00000000      1.00000000      1.00000000      1.00000000      1.00000000      1.00000000
      1.00000000      1.00000000      1.00000000      1.00000000      1.00000000      1.00000000      1.00000000      1.00000000      1.00000000      1.00000000      1.00000000      1.00000000      1.00000000      1.00000000      1.00000000      1.00000000      1.00000000      1.00000000      1.00000000      1.00000000
      1.00000000      1.00000000      1.00000000      1.00000000      1.00000000      1.00000000      1.00000000      1.00000000      1.00000000      1.00000000      1.00000000      1.00000000      1.00000000      1.00000000</v>
    <i name="NUPDOWN">     -1.00000000</i>
    <i type="logical" name="LSORBIT"> F  </i>
    <v name="SAXIS">      0.00000000      0.00000000      1.00000000</v>
    <i type="logical" name="LSPIRAL"> F  </i>
    <v name="QSPIRAL">      0.00000000      0.00000000      0.00000000</v>
    <i type="logical" name="LZEROZ"> F  </i>
   </separator>
   <separator name="electronic exchange-correlation" >
    <i type="logical" name="LASPH"> T  </i>
   </separator>
   <separator name="electronic convergence" >
    <i type="int" name="NELM">   100</i>
    <i type="int" name="NELMDL">    -5</i>
    <i type="int" name="NELMIN">     2</i>
    <i name="ENINI">    262.47200000</i>
    <separator name="electronic convergence detail" >
     <i type="logical" name="LDIAG"> T  </i>
     <i type="logical" name="LSUBROT"> F  </i>
     <i type="logical" name="LROBUST"> F  </i>
     <i type="int" name="ISEARCH">     0</i>
     <i name="WEIMIN">      0.00100000</i>
     <i name="EBREAK">      0.00000001</i>
     <i name="DEPER">      0.30000000</i>
     <i type="int" name="NRMM">     4</i>
     <i name="TIME">      0.40000000</i>
    </separator>
   </separator>
   <separator name="electronic mixer" >
    <i name="AMIX">      0.40000000</i>
    <i name="BMIX">      1.00000000</i>
    <i name="AMIN">      0.10000000</i>
    <i name="AMIX_MAG">      1.60000000</i>
    <i name="BMIX_MAG">      1.00000000</i>
    <separator name="electronic mixer details" >
     <i type="int" name="IMIX">     4</i>
     <i type="logical" name="MIXFIRST"> F  </i>
     <i type="int" name="MAXMIX">   -45</i>
     <i name="WC">    100.00000000</i>
     <i type="int" name="INIMIX">     1</i>
     <i type="int" name="MIXPRE">     1</i>
     <i type="int" name="MREMOVE">     5</i>
    </separator>
   </separator>
   <separator name="electronic dipolcorrection" >
    <i type="logical" name="LDIPOL"> F  </i>
    <i type="logical" name="LMONO"> F  </i>
    <i type="int" name="IDIPOL">     0</i>
    <i name="EPSILON">      1.00000000</i>
    <v name="DIPOL">   -100.00000000   -100.00000000   -100.00000000</v>
    <i name="EFIELD">      0.00000000</i>
    <i type="logical" name="LVACPOTAV"> F  </i>
   </separator>
  </separator>
  <separator name="grids" >
   <i type="int" name="NGX">    48</i>
   <i type="int" name="NGY">    48</i>
   <i type="int" name="NGZ">    48</i>
   <i type="int" name="NGXF">    96</i>
   <i type="int" name="NGYF">    96</i>
   <i type="int" name="NGZF">    96</i>
   <i type="logical" name="ADDGRID"> F  </i>
  </separator>
  <separator name="ionic" >
   <i type="int" name="NSW">   300</i>
   <i type="int" name="IBRION">     2</i>
   <i type="int" name="MDALGO">     0</i>
   <i type="int" name="ISIF">     2</i>
   <i name="PSTRESS">      0.00000000</i>
   <i name="EDIFFG">     -0.03000000</i>
   <i type="int" name="NFREE">     1</i>
   <i name="POTIM">      0.50000000</i>
   <i name="SMASS">     -3.00000000</i>
   <i name="SCALEE">      1.00000000</i>
  </separator>
  <separator name="ionic md" >
   <i name="TEBEG">      0.00010000</i>
   <i name="TEEND">      0.00010000</i>
   <i type="int" name="NBLOCK">     1</i>
   <i type="int" name="KBLOCK">   300</i>
   <i type="int" name="NPACO">   256</i>
   <i name="APACO">     10.00000000</i>
  </separator>
  <separator name="symmetry" >
   <i type="int" name="ISYM">     2</i>
   <i name="SYMPREC">      0.00001000</i>
  </separator>
  <separator name="dos" >
   <i type="int" name="LORBIT">    10</i>
   <v name="RWIGS">     -1.00000000     -1.00000000</v>
   <i type="int" name="NEDOS">   301</i>
   <i name="EMIN">     10.00000000</i>
   <i name="EMAX">    -10.00000000</i>
   <i name="EFERMI">      0.00000000</i>
  </separator>
  <separator name="writing" >
   <i type="int" name="NWRITE">     2</i>
   <i type="logical" name="LWAVE"> F  </i>
   <i type="logical" name="LDOWNSAMPLE"> F  </i>
   <i type="logical" name="LCHARG"> F  </i>
   <i type="logical" name="LPARD"> F  </i>
   <i type="logical" name="LVTOT"> F  </i>
   <i type="logical" name="LVHAR"> F  </i>
   <i type="logical" name="LELF"> F  </i>
   <i type="logical" name="LOPTICS"> F  </i>
   <v name="STM">      0.00000000      0.00000000      0.00000000      0.00000000      0.00000000      0.00000000      0.00000000</v>
  </separator>
  <separator name="performance" >
   <i type="int" name="NPAR">     2</i>
   <i type="int" name="NSIM">     4</i>
   <i type="int" name="NBLK">    -1</i>
   <i type="logical" name="LPLANE"> T  </i>
   <i type="logical" name="LSCALAPACK"> T  </i>
   <i type="logical" name="LSCAAWARE"> F  </i>
   <i type="logical" name="LSCALU"> F  </i>
   <i type="logical" name="LASYNC"> F  </i>
   <i type="logical" name="LORBITALREAL"> F  </i>
  </separator>
  <separator name="miscellaneous" >
   <i type="int" name="IDIOT">     3</i>
   <i type="int" name="PHON_NSTRUCT">    -1</i>
   <i type="logical" name="LMUSIC"> F  </i>
   <v name="POMASS">    132.90000000     35.45300000</v>
   <v name="DARWINR">      0.00000000      0.00000000</v>
   <v name="DARWINV">      1.00000000      1.00000000</v>
   <i type="logical" name="LCORR"> T  </i>
  </separator>
  <i type="logical" name="GGA_COMPAT"> T  </i>
  <i type="logical" name="LBERRY"> F  </i>
  <i type="int" name="ICORELEVEL">     0</i>
  <i type="logical" name="LDAU"> F  </i>
  <i type="int" name="I_CONSTRAINED_M">     0</i>
  <separator name="electronic exchange-correlation" >
   <i type="string" name="GGA    ">PS</i>
   <i type="string" name="XC_C">1</i>
   <i type="int" name="VOSKOWN">     0</i>
   <i type="logical" name="LHFCALC"> F  </i>
   <i type="string" name="PRECFOCK"></i>
   <i type="logical" name="LSYMGRAD"> F  </i>
   <i type="logical" name="LHFONE"> F  </i>
   <i type="logical" name="LRHFCALC"> F  </i>
   <i type="logical" name="LTHOMAS"> F  </i>
   <i type="logical" name="LMODELHF"> F  </i>
   <i type="logical" name="LFOCKACE"> F  </i>
   <i name="ENCUT4O">     -1.00000000</i>
   <i type="int" name="EXXOEP">     0</i>
   <i type="int" name="FOURORBIT">     0</i>
   <i name="AEXX">      0.00000000</i>
   <i name="HFALPHA">      0.00000000</i>
   <i name="MCALPHA">      0.00000000</i>
   <i name="ALDAX">      1.00000000</i>
   <i name="AGGAX">      1.00000000</i>
   <i name="AMGGAX">      1.00000000</i>
   <i name="ALDAC">      1.00000000</i>
   <i name="AGGAC">      1.00000000</i>
   <i name="AMGGAC">      1.00000000</i>
   <i type="int" name="NKREDX">     1</i>
   <i type="int" name="NKREDY">     1</i>
   <i type="int" name="NKREDZ">     1</i>
   <i type="logical" name="SHIFTRED"> F  </i>
   <i type="logical" name="ODDONLY"> F  </i>
   <i type="logical" name="EVENONLY"> F  </i>
   <i type="int" name="LMAXFOCK">     0</i>
   <i type="int" name="NMAXFOCKAE">     0</i>
   <i type="logical" name="LFOCKAEDFT"> F  </i>
   <i name="HFSCREEN">      0.00000000</i>
   <i name="HFSCREENC">      0.00000000</i>
   <i type="int" name="NBANDSGWLOW">     0</i>
  </separator>
  <separator name="vdW DFT" >
   <i type="logical" name="LUSE_VDW"> F  </i>
   <i type="int" name="IVDW_NL">    -1</i>
   <i type="logical" name="LSPIN_VDW"> F  </i>
   <i name="ZAB_VDW">     -0.84910000</i>
   <i name="GAMMA_VDW">      1.39626340</i>
   <i name="ALPHA_VDW">      0.00000000</i>
   <i name="PARAM1">      0.12340000</i>
   <i name="PARAM2">      1.00000000</i>
   <i name="BPARAM">      6.30000000</i>
   <i name="CPARAM">      0.00930000</i>
  </separator>
  <separator name="model GW" >
   <i type="int" name="MODEL_GW">     0</i>
   <i name="MODEL_EPS0">     20.30708224</i>
   <i name="MODEL_ALPHA">      1.00000000</i>
  </separator>
  <separator name="linear response parameters" >
   <i type="logical" name="LEPSILON"> F  </i>
   <i type="logical" name="LRPA"> F  </i>
   <i type="logical" name="LNABLA"> F  </i>
   <i type="logical" name="LVEL"> F  </i>
   <i name="CSHIFT">      0.10000000</i>
   <i name="OMEGAMAX">     -1.00000000</i>
   <i name="DEG_THRESHOLD">      0.00200000</i>
   <i name="RTIME">     -0.10000000</i>
   <i name="WPLASMAI">      0.00000000</i>
   <v name="DFIELD">      0.00000000      0.00000000      0.00000000</v>
   <v name="WPLASMA">      0.00000000      0.00000000      0.00000000      0.00000000      0.00000000      0.00000000      0.00000000      0.00000000      0.00000000</v>
  </separator>
  <separator name="orbital magnetization" >
   <i type="logical" name="NUCIND"> F  </i>
   <v name="MAGPOS">      0.00000000      0.00000000      0.00000000</v>
   <i type="logical" name="LNICSALL"> T  </i>
   <i type="logical" name="ORBITALMAG"> F  </i>
   <i type="logical" name="LMAGBLOCH"> F  </i>
   <i type="logical" name="LCHIMAG"> F  </i>
   <i type="logical" name="LGAUGE"> T  </i>
   <i type="int" name="MAGATOM">     0</i>
   <v name="MAGDIPOL">      0.00000000      0.00000000      0.00000000</v>
   <v name="AVECCONST">      0.00000000      0.00000000      0.00000000</v>
  </separator>
  <separator name="response functions" >
   <i type="logical" name="LALL_IN_ONE"> F  </i>
   <i type="int" name="IALL_IN_ONE">    -1</i>
   <i type="int" name="NBANDS_WAVE">    -1</i>
   <i type="logical" name="LFINITE_TEMPERATURE"> F  </i>
   <i type="logical" name="LADDER"> F  </i>
   <i type="logical" name="LRPAFORCE"> F  </i>
   <i type="logical" name="LFXC"> F  </i>
   <i type="logical" name="LHARTREE"> T  </i>
   <i type="int" name="IBSE">     2</i>
   <v type="int" name="KPOINT">    -1     0     0     0</v>
   <i type="logical" name="LTCTC"> F  </i>
   <i type="logical" name="LTCTE"> F  </i>
   <i type="logical" name="LTETE"> F  </i>
   <i type="logical" name="LTRIPLET"> F  </i>
   <i type="logical" name="LFXCEPS"> F  </i>
   <i type="logical" name="LFXHEG"> F  </i>
   <i type="int" name="NATURALO">     2</i>
   <i type="logical" name="LHOLEGF"> F  </i>
   <i type="logical" name="L2ORDER"> F  </i>
   <i type="logical" name="LDMP1"> F  </i>
   <i type="logical" name="LMP2LT"> F  </i>
   <i type="logical" name="LSMP2LT"> F  </i>
   <i type="logical" name="LGWLF"> F  </i>
   <i name="ENCUTGW">     -1.60000002</i>
   <i name="ENCUTGWSOFT">     -1.60000002</i>
   <i name="ENCUTLF">     -1.00000000</i>
   <i type="logical" name="ESF_SPLINES"> F  </i>
   <i name="ESF_CONV">      0.01000000</i>
   <i type="int" name="ESF_NINTER">    15</i>
   <i type="int" name="LMAXMP2">    -1</i>
   <i name="SCISSOR">      0.00000000</i>
   <i type="int" name="NOMEGA">     0</i>
   <i type="int" name="NOMEGAR">     0</i>
   <i type="int" name="NBANDSGW">    -1</i>
   <i type="int" name="NBANDSO">    -1</i>
   <i type="int" name="NBANDSV">    -1</i>
   <i type="int" name="NELMGW">     1</i>
   <i type="int" name="NELMHF">     1</i>
   <i type="int" name="DIM">     3</i>
   <i type="int" name="IESPILON">     4</i>
   <i type="int" name="ANTIRES">     0</i>
   <i name="OMEGAMAX">    -30.00000000</i>
   <i name="OMEGAMIN">    -30.00000000</i>
   <i name="OMEGATL">   -200.00000000</i>
   <i type="int" name="OMEGAGRID">     0</i>
   <i name="CSHIFT">     -0.10000000</i>
   <i type="logical" name="LSELFENERGY"> F  </i>
   <i type="logical" name="LSPECTRAL"> F  </i>
   <i type="logical" name="LSPECTRALGW"> F  </i>
   <i type="logical" name="LSINGLES"> F  </i>
   <i type="logical" name="LFERMIGW"> F  </i>
   <i type="logical" name="ODDONLYGW"> F  </i>
   <i type="logical" name="EVENONLYGW"> F  </i>
   <i type="int" name="NKREDLFX">     1</i>
   <i type="int" name="NKREDLFY">     1</i>
   <i type="int" name="NKREDLFZ">     1</i>
   <i type="int" name="MAXMEM">  2800</i>
   <i type="int" name="TELESCOPE">     0</i>
   <i type="int" name="NTAUPAR">    -1</i>
   <i type="int" name="NOMEGAPAR">    -1</i>
   <i name="DAMP_NEWTON">      0.80000001</i>
   <i name="LAMBDA">      1.00000000</i>
  </separator>
  <separator name="External order field" >
   <i name="OFIELD_KAPPA">      0.00000000</i>
   <v name="OFIELD_K">      0.00000000      0.00000000      0.00000000</v>
   <i name="OFIELD_Q6_NEAR">      0.00000000</i>
   <i name="OFIELD_Q6_FAR">      0.00000000</i>
   <i name="OFIELD_A">      0.00000000</i>
  </separator>
  <separator name="optional k-points parameters" >
   <i type="int" name="KPOINTS_OPT_MODE">     1</i>
   <i type="logical" name="LKPOINTS_OPT"> F  </i>
  </separator>
 </parameters>
 <atominfo>
  <atoms>      54 </atoms>
  <types>       2 </types>
  <array name="atoms" >
   <dimension dim="1">ion</dimension>
   <field type="string">element</field>
   <field type="int">atomtype</field>
   <set>
    <rc><c>Cs</c><c>   1</c></rc>
    <rc><c>Cs</c><c>   1</c></rc>
    <rc><c>Cs</c><c>   1</c></rc>
    <rc><c>Cs</c><c>   1</c></rc>
    <rc><c>Cs</c><c>   1</c></rc>
    <rc><c>Cs</c><c>   1</c></rc>
    <rc><c>Cs</c><c>   1</c></rc>
    <rc><c>Cs</c><c>   1</c></rc>
    <rc><c>Cs</c><c>   1</c></rc>
    <rc><c>Cs</c><c>   1</c></rc>
    <rc><c>Cs</c><c>   1</c></rc>
    <rc><c>Cs</c><c>   1</c></rc>
    <rc><c>Cs</c><c>   1</c></rc>
    <rc><c>Cs</c><c>   1</c></rc>
    <rc><c>Cs</c><c>   1</c></rc>
    <rc><c>Cs</c><c>   1</c></rc>
    <rc><c>Cs</c><c>   1</c></rc>
    <rc><c>Cs</c><c>   1</c></rc>
    <rc><c>Cs</c><c>   1</c></rc>
    <rc><c>Cs</c><c>   1</c></rc>
    <rc><c>Cs</c><c>   1</c></rc>
    <rc><c>Cs</c><c>   1</c></rc>
    <rc><c>Cs</c><c>   1</c></rc>
    <rc><c>Cs</c><c>   1</c></rc>
    <rc><c>Cs</c><c>   1</c></rc>
    <rc><c>Cs</c><c>   1</c></rc>
    <rc><c>Cs</c><c>   1</c></rc>
    <rc><c>Cl</c><c>   2</c></rc>
    <rc><c>Cl</c><c>   2</c></rc>
    <rc><c>Cl</c><c>   2</c></rc>
    <rc><c>Cl</c><c>   2</c></rc>
    <rc><c>Cl</c><c>   2</c></rc>
    <rc><c>Cl</c><c>   2</c></rc>
    <rc><c>Cl</c><c>   2</c></rc>
    <rc><c>Cl</c><c>   2</c></rc>
    <rc><c>Cl</c><c>   2</c></rc>
    <rc><c>Cl</c><c>   2</c></rc>
    <rc><c>Cl</c><c>   2</c></rc>
    <rc><c>Cl</c><c>   2</c></rc>
    <rc><c>Cl</c><c>   2</c></rc>
    <rc><c>Cl</c><c>   2</c></rc>
    <rc><c>Cl</c><c>   2</c></rc>
    <rc><c>Cl</c><c>   2</c></rc>
    <rc><c>Cl</c><c>   2</c></rc>
    <rc><c>Cl</c><c>   2</c></rc>
    <rc><c>Cl</c><c>   2</c></rc>
    <rc><c>Cl</c><c>   2</c></rc>
    <rc><c>Cl</c><c>   2</c></rc>
    <rc><c>Cl</c><c>   2</c></rc>
    <rc><c>Cl</c><c>   2</c></rc>
    <rc><c>Cl</c><c>   2</c></rc>
    <rc><c>Cl</c><c>   2</c></rc>
    <rc><c>Cl</c><c>   2</c></rc>
    <rc><c>Cl</c><c>   2</c></rc>
   </set>
  </array>
  <array name="atomtypes" >
   <dimension dim="1">type</dimension>
   <field type="int">atomspertype</field>
   <field type="string">element</field>
   <field>mass</field>
   <field>valence</field>
   <field type="string">pseudopotential</field>
   <set>
    <rc><c>  27</c><c>Cs</c><c>    132.90000000</c><c>      9.00000000</c><c>  PAW_PBE Cs_sv 08Apr2002               </c></rc>
    <rc><c>  27</c><c>Cl</c><c>     35.45300000</c><c>      7.00000000</c><c>  PAW_PBE Cl 06Sep2000                  </c></rc>
   </set>
  </array>
 </atominfo>
 <structure name="initialpos" >
  <crystal>
   <varray name="basis" >
    <v>      12.22634592       0.00000000       0.00000000 </v>
    <v>       0.00000000      12.22634592       0.00000000 </v>
    <v>       0.00000000       0.00000000      12.22634592 </v>
   </varray>
   <i name="volume">   1827.63740156 </i>
   <varray name="rec_basis" >
    <v>       0.08179059       0.00000000       0.00000000 </v>
    <v>       0.00000000       0.08179059       0.00000000 </v>
    <v>       0.00000000       0.00000000       0.08179059 </v>
   </varray>
  </crystal>
  <varray name="positions" >
   <v>       0.00000000       0.00000000       0.00000000 </v>
   <v>       0.00000000       0.00000000       0.33333333 </v>
   <v>       0.00000000       0.00000000       0.66666667 </v>
   <v>       0.00000000       0.33333333       0.00000000 </v>
   <v>       0.00000000       0.33333333       0.33333333 </v>
   <v>       0.00000000       0.33333333       0.66666667 </v>
   <v>       0.00000000       0.66666667       0.00000000 </v>
   <v>       0.00000000       0.66666667       0.33333333 </v>
   <v>       0.00000000       0.66666667       0.66666667 </v>
   <v>       0.33333333       0.00000000       0.00000000 </v>
   <v>       0.33333333       0.00000000       0.33333333 </v>
   <v>       0.33333333       0.00000000       0.66666667 </v>
   <v>       0.33333333       0.33333333       0.00000000 </v>
   <v>       0.33333333       0.33333333       0.33333333 </v>
   <v>       0.33333333       0.33333333       0.66666667 </v>
   <v>       0.33333333       0.66666667       0.00000000 </v>
   <v>       0.33333333       0.66666667       0.33333333 </v>
   <v>       0.33333333       0.66666667       0.66666667 </v>
   <v>       0.66666667       0.00000000       0.00000000 </v>
   <v>       0.66666667       0.00000000       0.33333333 </v>
   <v>       0.66666667       0.00000000       0.66666667 </v>
   <v>       0.66666667       0.33333333       0.00000000 </v>
   <v>       0.66666667       0.33333333       0.33333333 </v>
   <v>       0.66666667       0.33333333       0.66666667 </v>
   <v>       0.66666667       0.66666667       0.00000000 </v>
   <v>       0.66666667       0.66666667       0.33333333 </v>
   <v>       0.66666667       0.66666667       0.66666667 </v>
   <v>       0.16666667       0.16666667       0.16666667 </v>
   <v>       0.16666667       0.16666667       0.50000000 </v>
   <v>       0.16666667       0.16666667       0.83333333 </v>
   <v>       0.16666667       0.50000000       0.16666667 </v>
   <v>       0.16666667       0.50000000       0.50000000 </v>
   <v>       0.16666667       0.50000000       0.83333333 </v>
   <v>       0.16666667       0.83333333       0.16666667 </v>
   <v>       0.16666667       0.83333333       0.50000000 </v>
   <v>       0.16666667       0.83333333       0.83333333 </v>
   <v>       0.50000000       0.16666667       0.16666667 </v>
   <v>       0.50000000       0.16666667       0.50000000 </v>
   <v>       0.50000000       0.16666667       0.83333333 </v>
   <v>       0.50000000       0.50000000       0.16666667 </v>
   <v>       0.50000000       0.50000000       0.50000000 </v>
   <v>       0.50000000       0.50000000       0.83333333 </v>
   <v>       0.50000000       0.83333333       0.16666667 </v>
   <v>       0.50000000       0.83333333       0.50000000 </v>
   <v>       0.50000000       0.83333333       0.83333333 </v>
   <v>       0.83333333       0.16666667       0.16666667 </v>
   <v>       0.83333333       0.16666667       0.50000000 </v>
   <v>       0.83333333       0.16666667       0.83333333 </v>
   <v>       0.83333333       0.50000000       0.16666667 </v>
   <v>       0.83333333       0.50000000       0.50000000 </v>
   <v>       0.83333333       0.50000000       0.83333333 </v>
   <v>       0.83333333       0.83333333       0.16666667 </v>
   <v>       0.83333333       0.83333333       0.50000000 </v>
   <v>       0.83333333       0.83333333       0.83333333 </v>
  </varray>
 </structure>
 <calculation>
  <scstep>
   <time name="dav">    0.59    0.66</time>
   <time name="total">    3.43    3.54</time>
   <energy>
    <i name="alphaZ">   1467.27900718 </i>
    <i name="ewald"> -22413.67555212 </i>
    <i name="hartreedc">  -3409.90740108 </i>
    <i name="XCdc">    853.07927858 </i>
    <i name="pawpsdc">  20230.74244637 </i>
    <i name="pawaedc"> -20035.63395369 </i>
    <i name="eentropy">     -0.08696962 </i>
    <i name="bandstr">   -343.22877293 </i>
    <i name="atom">  26038.69793506 </i>
    <i name="e_fr_energy">   2387.26601776 </i>
    <i name="e_wo_entrp">   2387.35298738 </i>
    <i name="e_0_energy">   2387.30950257 </i>
   </energy>
  </scstep>
  <scstep>
   <time name="dav">    0.55    0.55</time>
   <time name="total">    0.55    0.55</time>
   <energy>
    <i name="e_fr_energy">     31.71654550 </i>
    <i name="e_wo_entrp">     31.71654550 </i>
    <i name="e_0_energy">     31.71654550 </i>
   </energy>
  </scstep>
  <scstep>
   <time name="dav">    0.54    0.54</time>
   <time name="total">    0.54    0.54</time>
   <energy>
    <i name="e_fr_energy">   -181.14997434 </i>
    <i name="e_wo_entrp">   -181.14997434 </i>
    <i name="e_0_energy">   -181.14997434 </i>
   </energy>
  </scstep>
  <scstep>
   <time name="dav">    0.53    0.53</time>
   <time name="total">    0.53    0.53</time>
   <energy>
    <i name="e_fr_energy">   -184.34449401 </i>
    <i name="e_wo_entrp">   -184.34449401 </i>
    <i name="e_0_energy">   -184.34449401 </i>
   </energy>
  </scstep>
  <scstep>
   <time name="dav">    0.52    0.53</time>
   <time name="total">    0.64    0.64</time>
   <energy>
    <i name="e_fr_energy">   -184.40454565 </i>
    <i name="e_wo_entrp">   -184.40454565 </i>
    <i name="e_0_energy">   -184.40454565 </i>
   </energy>
  </scstep>
  <scstep>
   <time name="dav">    0.50    0.50</time>
   <time name="total">    3.04    3.04</time>
   <energy>
    <i name="e_fr_energy">   -178.27817905 </i>
    <i name="e_wo_entrp">   -178.27817905 </i>
    <i name="e_0_energy">   -178.27817905 </i>
   </energy>
  </scstep>
  <scstep>
   <time name="dav">    0.53    0.53</time>
   <time name="total">    2.76    2.77</time>
   <energy>
    <i name="e_fr_energy">   -181.41268949 </i>
    <i name="e_wo_entrp">   -181.41268949 </i>
    <i name="e_0_energy">   -181.41268949 </i>
   </energy>
  </scstep>
  <scstep>
   <time name="dav">    0.53    0.53</time>
   <time name="total">    2.74    2.75</time>
   <energy>
    <i name="e_fr_energy">   -183.67109484 </i>
    <i name="e_wo_entrp">   -183.67109484 </i>
    <i name="e_0_energy">   -183.67109484 </i>
   </energy>
  </scstep>
  <scstep>
   <time name="dav">    0.51    0.51</time>
   <time name="total">    2.68    2.69</time>
   <energy>
    <i name="e_fr_energy">   -184.71621807 </i>
    <i name="e_wo_entrp">   -184.71621807 </i>
    <i name="e_0_energy">   -184.71621807 </i>
   </energy>
  </scstep>
  <scstep>
   <time name="dav">    0.51    0.51</time>
   <time name="total">    2.67    2.68</time>
   <energy>
    <i name="e_fr_energy">   -184.80345102 </i>
    <i name="e_wo_entrp">   -184.80345102 </i>
    <i name="e_0_energy">   -184.80345102 </i>
   </energy>
  </scstep>
  <scstep>
   <time name="dav">    0.51    0.51</time>
   <time name="total">    2.71    2.71</time>
   <energy>
    <i name="e_fr_energy">   -184.82924968 </i>
    <i name="e_wo_entrp">   -184.82924968 </i>
    <i name="e_0_energy">   -184.82924968 </i>
   </energy>
  </scstep>
  <scstep>
   <time name="dav">    0.48    0.49</time>
   <time name="total">    2.68    2.69</time>
   <energy>
    <i name="e_fr_energy">   -184.83910073 </i>
    <i name="e_wo_entrp">   -184.83910073 </i>
    <i name="e_0_energy">   -184.83910073 </i>
   </energy>
  </scstep>
  <scstep>
   <time name="dav">    0.53    0.53</time>
   <time name="total">    2.72    2.73</time>
   <energy>
    <i name="e_fr_energy">   -184.83913747 </i>
    <i name="e_wo_entrp">   -184.83913747 </i>
    <i name="e_0_energy">   -184.83913747 </i>
   </energy>
  </scstep>
  <scstep>
   <time name="dav">    0.38    0.38</time>
   <time name="total">    2.47    2.48</time>
   <energy>
    <i name="alphaZ">   1467.27900718 </i>
    <i name="ewald"> -22413.67555212 </i>
    <i name="hartreedc">  -3526.99136463 </i>
    <i name="XCdc">    861.76884721 </i>
    <i name="pawpsdc">  24683.63957353 </i>
    <i name="pawaedc"> -24496.11669897 </i>
    <i name="eentropy">     -0.00000000 </i>
    <i name="bandstr">  -2799.44088360 </i>
    <i name="atom">  26038.69793506 </i>
    <i name="e_fr_energy">   -184.83913634 </i>
    <i name="e_wo_entrp">   -184.83913634 </i>
    <i name="e_0_energy">   -184.83913634 </i>
   </energy>
  </scstep>
  <structure>
   <crystal>
    <varray name="basis" >
     <v>      12.22634592       0.00000000       0.00000000 </v>
     <v>       0.00000000      12.22634592       0.00000000 </v>
     <v>       0.00000000       0.00000000      12.22634592 </v>
    </varray>
    <i name="volume">   1827.63740156 </i>
    <varray name="rec_basis" >
     <v>       0.08179059       0.00000000       0.00000000 </v>
     <v>       0.00000000       0.08179059       0.00000000 </v>
     <v>       0.00000000       0.00000000       0.08179059 </v>
    </varray>
   </crystal>
   <varray name="positions" >
    <v>       0.00000000       0.00000000       0.00000000 </v>
    <v>       0.00000000       0.00000000       0.33333333 </v>
    <v>       0.00000000       0.00000000       0.66666667 </v>
    <v>       0.00000000       0.33333333       0.00000000 </v>
    <v>       0.00000000       0.33333333       0.33333333 </v>
    <v>       0.00000000       0.33333333       0.66666667 </v>
    <v>       0.00000000       0.66666667       0.00000000 </v>
    <v>       0.00000000       0.66666667       0.33333333 </v>
    <v>       0.00000000       0.66666667       0.66666667 </v>
    <v>       0.33333333       0.00000000       0.00000000 </v>
    <v>       0.33333333       0.00000000       0.33333333 </v>
    <v>       0.33333333       0.00000000       0.66666667 </v>
    <v>       0.33333333       0.33333333       0.00000000 </v>
    <v>       0.33333333       0.33333333       0.33333333 </v>
    <v>       0.33333333       0.33333333       0.66666667 </v>
    <v>       0.33333333       0.66666667       0.00000000 </v>
    <v>       0.33333333       0.66666667       0.33333333 </v>
    <v>       0.33333333       0.66666667       0.66666667 </v>
    <v>       0.66666667       0.00000000       0.00000000 </v>
    <v>       0.66666667       0.00000000       0.33333333 </v>
    <v>       0.66666667       0.00000000       0.66666667 </v>
    <v>       0.66666667       0.33333333       0.00000000 </v>
    <v>       0.66666667       0.33333333       0.33333333 </v>
    <v>       0.66666667       0.33333333       0.66666667 </v>
    <v>       0.66666667       0.66666667       0.00000000 </v>
    <v>       0.66666667       0.66666667       0.33333333 </v>
    <v>       0.66666667       0.66666667       0.66666667 </v>
    <v>       0.16666667       0.16666667       0.16666667 </v>
    <v>       0.16666667       0.16666667       0.50000000 </v>
    <v>       0.16666667       0.16666667       0.83333333 </v>
    <v>       0.16666667       0.50000000       0.16666667 </v>
    <v>       0.16666667       0.50000000       0.50000000 </v>
    <v>       0.16666667       0.50000000       0.83333333 </v>
    <v>       0.16666667       0.83333333       0.16666667 </v>
    <v>       0.16666667       0.83333333       0.50000000 </v>
    <v>       0.16666667       0.83333333       0.83333333 </v>
    <v>       0.50000000       0.16666667       0.16666667 </v>
    <v>       0.50000000       0.16666667       0.50000000 </v>
    <v>       0.50000000       0.16666667       0.83333333 </v>
    <v>       0.50000000       0.50000000       0.16666667 </v>
    <v>       0.50000000       0.50000000       0.50000000 </v>
    <v>       0.50000000       0.50000000       0.83333333 </v>
    <v>       0.50000000       0.83333333       0.16666667 </v>
    <v>       0.50000000       0.83333333       0.50000000 </v>
    <v>       0.50000000       0.83333333       0.83333333 </v>
    <v>       0.83333333       0.16666667       0.16666667 </v>
    <v>       0.83333333       0.16666667       0.50000000 </v>
    <v>       0.83333333       0.16666667       0.83333333 </v>
    <v>       0.83333333       0.50000000       0.16666667 </v>
    <v>       0.83333333       0.50000000       0.50000000 </v>
    <v>       0.83333333       0.50000000       0.83333333 </v>
    <v>       0.83333333       0.83333333       0.16666667 </v>
    <v>       0.83333333       0.83333333       0.50000000 </v>
    <v>       0.83333333       0.83333333       0.83333333 </v>
   </varray>
  </structure>
  <varray name="forces" >
   <v>      -0.00000000       0.00000000       0.00000000 </v>
   <v>      -0.00000000       0.00000000      -0.00000000 </v>
   <v>      -0.00000000      -0.00000000       0.00000000 </v>
   <v>      -0.00000000      -0.00000000      -0.00000000 </v>
   <v>      -0.00000000      -0.00000000       0.00000000 </v>
   <v>      -0.00000000      -0.00000000      -0.00000000 </v>
   <v>      -0.00000000       0.00000000       0.00000000 </v>
   <v>      -0.00000000      -0.00000000      -0.00000000 </v>
   <v>      -0.00000000       0.00000000       0.00000000 </v>
   <v>       0.00000000       0.00000000       0.00000000 </v>
   <v>       0.00000000       0.00000000       0.00000000 </v>
   <v>       0.00000000       0.00000000       0.00000000 </v>
   <v>       0.00000000       0.00000000      -0.00000000 </v>
   <v>      -0.00000000       0.00000000       0.00000000 </v>
   <v>      -0.00000000       0.00000000       0.00000000 </v>
   <v>      -0.00000000       0.00000000       0.00000000 </v>
   <v>      -0.00000000       0.00000000      -0.00000000 </v>
   <v>      -0.00000000       0.00000000       0.00000000 </v>
   <v>       0.00000000       0.00000000       0.00000000 </v>
   <v>       0.00000000       0.00000000       0.00000000 </v>
   <v>       0.00000000      -0.00000000       0.00000000 </v>
   <v>       0.00000000       0.00000000      -0.00000000 </v>
   <v>       0.00000000      -0.00000000       0.00000000 </v>
   <v>       0.00000000       0.00000000       0.00000000 </v>
   <v>       0.00000000      -0.00000000      -0.00000000 </v>
   <v>       0.00000000       0.00000000       0.00000000 </v>
   <v>       0.00000000      -0.00000000      -0.00000000 </v>
   <v>      -0.00000000      -0.00000000      -0.00000000 </v>
   <v>      -0.00000000       0.00000000      -0.00000000 </v>
   <v>       0.00000000       0.00000000       0.00000000 </v>
   <v>      -0.00000000      -0.00000000       0.00000000 </v>
   <v>      -0.00000000      -0.00000000       0.00000000 </v>
   <v>      -0.00000000      -0.00000000      -0.00000000 </v>
   <v>       0.00000000      -0.00000000       0.00000000 </v>
   <v>      -0.00000000      -0.00000000      -0.00000000 </v>
   <v>      -0.00000000      -0.00000000      -0.00000000 </v>
   <v>       0.00000000      -0.00000000      -0.00000000 </v>
   <v>       0.00000000      -0.00000000      -0.00000000 </v>
   <v>       0.00000000      -0.00000000       0.00000000 </v>
   <v>       0.00000000      -0.00000000       0.00000000 </v>
   <v>       0.00000000      -0.00000000       0.00000000 </v>
   <v>       0.00000000      -0.00000000      -0.00000000 </v>
   <v>       0.00000000       0.00000000       0.00000000 </v>
   <v>      -0.00000000      -0.00000000       0.00000000 </v>
   <v>       0.00000000       0.00000000      -0.00000000 </v>
   <v>      -0.00000000       0.00000000      -0.00000000 </v>
   <v>       0.00000000       0.00000000      -0.00000000 </v>
   <v>       0.00000000       0.00000000       0.00000000 </v>
   <v>      -0.00000000      -0.00000000       0.00000000 </v>
   <v>       0.00000000      -0.00000000       0.00000000 </v>
   <v>      -0.00000000       0.00000000      -0.00000000 </v>
   <v>      -0.00000000      -0.00000000      -0.00000000 </v>
   <v>      -0.00000000      -0.00000000      -0.00000000 </v>
   <v>       0.00000000      -0.00000000      -0.00000000 </v>
  </varray>
  <varray name="stress" >
   <v>      -8.22343464       0.00000000      -0.00000000 </v>
   <v>       0.00000000      -8.22343464       0.00000000 </v>
   <v>       0.00000000       0.00000000      -8.22343464 </v>
  </varray>
  <energy>
   <i name="e_fr_energy">   -184.83913634 </i>
   <i name="e_wo_entrp">   -184.83913634 </i>
   <i name="e_0_energy">   -184.83913634 </i>
  </energy>
  <time name="totalsc">   35.12   35.30</time>
  <eigenvalues>
   <array>
    <dimension dim="1">band</dimension>
    <dimension dim="2">kpoint</dimension>
    <dimension dim="3">spin</dimension>
    <field>eigene</field>
    <field>occ</field>
    <set>
     <set comment="spin 1">
      <set comment="kpoint 1">
       <r>  -19.4199    1.0000 </r>
       <r>  -19.3480    1.0000 </r>
       <r>  -19.3480    1.0000 </r>
       <r>  -19.3480    1.0000 </r>
       <r>  -19.3480    1.0000 </r>
       <r>  -19.3480    1.0000 </r>
       <r>  -19.3480    1.0000 </r>
       <r>  -19.2844    1.0000 </r>
       <r>  -19.2844    1.0000 </r>
       <r>  -19.2844    1.0000 </r>
       <r>  -19.2844    1.0000 </r>
       <r>  -19.2844    1.0000 </r>
       <r>  -19.2844    1.0000 </r>
       <r>  -19.2844    1.0000 </r>
       <r>  -19.2844    1.0000 </r>
       <r>  -19.2844    1.0000 </r>
       <r>  -19.2844    1.0000 </r>
       <r>  -19.2844    1.0000 </r>
       <r>  -19.2844    1.0000 </r>
       <r>  -19.2250    1.0000 </r>
       <r>  -19.2250    1.0000 </r>
       <r>  -19.2250    1.0000 </r>
       <r>  -19.2250    1.0000 </r>
       <r>  -19.2250    1.0000 </r>
       <r>  -19.2250    1.0000 </r>
       <r>  -19.2250    1.0000 </r>
       <r>  -19.2250    1.0000 </r>
       <r>  -12.3424    1.0000 </r>
       <r>  -12.3424    1.0000 </r>
       <r>  -12.3424    1.0000 </r>
       <r>  -12.3424    1.0000 </r>
       <r>  -12.3424    1.0000 </r>
       <r>  -12.3424    1.0000 </r>
       <r>  -12.2974    1.0000 </r>
       <r>  -12.2703    1.0000 </r>
       <r>  -12.2703    1.0000 </r>
       <r>  -12.2703    1.0000 </r>
       <r>  -12.2703    1.0000 </r>
       <r>  -12.2703    1.0000 </r>
       <r>  -12.2703    1.0000 </r>
       <r>  -12.2703    1.0000 </r>
       <r>  -12.2703    1.0000 </r>
       <r>  -12.2703    1.0000 </r>
       <r>  -12.2703    1.0000 </r>
       <r>  -12.2703    1.0000 </r>
       <r>  -12.2703    1.0000 </r>
       <r>  -12.1919    1.0000 </r>
       <r>  -12.1919    1.0000 </r>
       <r>  -12.1919    1.0000 </r>
       <r>  -12.1919    1.0000 </r>
       <r>  -12.1919    1.0000 </r>
       <r>  -12.1919    1.0000 </r>
       <r>  -12.1919    1.0000 </r>
       <r>  -12.1919    1.0000 </r>
       <r>   -6.5396    1.0000 </r>
       <r>   -6.5396    1.0000 </r>
       <r>   -6.5396    1.0000 </r>
       <r>   -6.5396    1.0000 </r>
       <r>   -6.5396    1.0000 </r>
       <r>   -6.5396    1.0000 </r>
       <r>   -6.5396    1.0000 </r>
       <r>   -6.5396    1.0000 </r>
       <r>   -6.5396    1.0000 </r>
       <r>   -6.5396    1.0000 </r>
       <r>   -6.5396    1.0000 </r>
       <r>   -6.5396    1.0000 </r>
       <r>   -6.3728    1.0000 </r>
       <r>   -6.3728    1.0000 </r>
       <r>   -6.3728    1.0000 </r>
       <r>   -6.3728    1.0000 </r>
       <r>   -6.3728    1.0000 </r>
       <r>   -6.3728    1.0000 </r>
       <r>   -6.3728    1.0000 </r>
       <r>   -6.3728    1.0000 </r>
       <r>   -6.3718    1.0000 </r>
       <r>   -6.3718    1.0000 </r>
       <r>   -6.3718    1.0000 </r>
       <r>   -6.3718    1.0000 </r>
       <r>   -6.3718    1.0000 </r>
       <r>   -6.3718    1.0000 </r>
       <r>   -6.3718    1.0000 </r>
       <r>   -6.3718    1.0000 </r>
       <r>   -6.3718    1.0000 </r>
       <r>   -6.3718    1.0000 </r>
       <r>   -6.3718    1.0000 </r>
       <r>   -6.3718    1.0000 </r>
       <r>   -6.3497    1.0000 </r>
       <r>   -6.3497    1.0000 </r>
       <r>   -6.3497    1.0000 </r>
       <r>   -6.3497    1.0000 </r>
       <r>   -6.3497    1.0000 </r>
       <r>   -6.3497    1.0000 </r>
       <r>   -6.3497    1.0000 </r>
       <r>   -6.3497    1.0000 </r>
       <r>   -6.3497    1.0000 </r>
       <r>   -6.3497    1.0000 </r>
       <r>   -6.3497    1.0000 </r>
       <r>   -6.3497    1.0000 </r>
       <r>   -6.3497    1.0000 </r>
       <r>   -6.3497    1.0000 </r>
       <r>   -6.3497    1.0000 </r>
       <r>   -6.3497    1.0000 </r>
       <r>   -6.3116    1.0000 </r>
       <r>   -6.3116    1.0000 </r>
       <r>   -6.3116    1.0000 </r>
       <r>   -6.3116    1.0000 </r>
       <r>   -6.3116    1.0000 </r>
       <r>   -6.3116    1.0000 </r>
       <r>   -5.8648    1.0000 </r>
       <r>   -5.8648    1.0000 </r>
       <r>   -5.8648    1.0000 </r>
       <r>   -5.7408    1.0000 </r>
       <r>   -5.7408    1.0000 </r>
       <r>   -5.7408    1.0000 </r>
       <r>   -5.7408    1.0000 </r>
       <r>   -5.7408    1.0000 </r>
       <r>   -5.7408    1.0000 </r>
       <r>   -5.7408    1.0000 </r>
       <r>   -5.7408    1.0000 </r>
       <r>   -5.7408    1.0000 </r>
       <r>   -5.7408    1.0000 </r>
       <r>   -5.7408    1.0000 </r>
       <r>   -5.7408    1.0000 </r>
       <r>   -5.6524    1.0000 </r>
       <r>   -5.6524    1.0000 </r>
       <r>   -5.6524    1.0000 </r>
       <r>   -5.6524    1.0000 </r>
       <r>   -5.6524    1.0000 </r>
       <r>   -5.6524    1.0000 </r>
       <r>   -5.6524    1.0000 </r>
       <r>   -5.6524    1.0000 </r>
       <r>   -5.6524    1.0000 </r>
       <r>   -5.6524    1.0000 </r>
       <r>   -5.6524    1.0000 </r>
       <r>   -5.6524    1.0000 </r>
       <r>   -1.1005    1.0000 </r>
       <r>   -1.1005    1.0000 </r>
       <r>   -1.1005    1.0000 </r>
       <r>   -1.1005    1.0000 </r>
       <r>   -1.1005    1.0000 </r>
       <r>   -1.1005    1.0000 </r>
       <r>   -0.9329    1.0000 </r>
       <r>   -0.9329    1.0000 </r>
       <r>   -0.9329    1.0000 </r>
       <r>   -0.9329    1.0000 </r>
       <r>   -0.9329    1.0000 </r>
       <r>   -0.9329    1.0000 </r>
       <r>   -0.9329    1.0000 </r>
       <r>   -0.9329    1.0000 </r>
       <r>   -0.9329    1.0000 </r>
       <r>   -0.9329    1.0000 </r>
       <r>   -0.9329    1.0000 </r>
       <r>   -0.9329    1.0000 </r>
       <r>   -0.9329    1.0000 </r>
       <r>   -0.9329    1.0000 </r>
       <r>   -0.9329    1.0000 </r>
       <r>   -0.9329    1.0000 </r>
       <r>   -0.8103    1.0000 </r>
       <r>   -0.8103    1.0000 </r>
       <r>   -0.8103    1.0000 </r>
       <r>   -0.8103    1.0000 </r>
       <r>   -0.8103    1.0000 </r>
       <r>   -0.8103    1.0000 </r>
       <r>   -0.8103    1.0000 </r>
       <r>   -0.8103    1.0000 </r>
       <r>   -0.8103    1.0000 </r>
       <r>   -0.8103    1.0000 </r>
       <r>   -0.8103    1.0000 </r>
       <r>   -0.8103    1.0000 </r>
       <r>   -0.6346    1.0000 </r>
       <r>   -0.6346    1.0000 </r>
       <r>   -0.6346    1.0000 </r>
       <r>   -0.6346    1.0000 </r>
       <r>   -0.6346    1.0000 </r>
       <r>   -0.6346    1.0000 </r>
       <r>   -0.6346    1.0000 </r>
       <r>   -0.6346    1.0000 </r>
       <r>   -0.4434    1.0000 </r>
       <r>   -0.4434    1.0000 </r>
       <r>   -0.4434    1.0000 </r>
       <r>   -0.4434    1.0000 </r>
       <r>   -0.4434    1.0000 </r>
       <r>   -0.4434    1.0000 </r>
       <r>   -0.4434    1.0000 </r>
       <r>   -0.4434    1.0000 </r>
       <r>   -0.4434    1.0000 </r>
       <r>   -0.4434    1.0000 </r>
       <r>   -0.4434    1.0000 </r>
       <r>   -0.4434    1.0000 </r>
       <r>   -0.2905    1.0000 </r>
       <r>   -0.2905    1.0000 </r>
       <r>   -0.2905    1.0000 </r>
       <r>   -0.2905    1.0000 </r>
       <r>   -0.2905    1.0000 </r>
       <r>   -0.2905    1.0000 </r>
       <r>   -0.2905    1.0000 </r>
       <r>   -0.2905    1.0000 </r>
       <r>   -0.2905    1.0000 </r>
       <r>   -0.2905    1.0000 </r>
       <r>   -0.2905    1.0000 </r>
       <r>   -0.2905    1.0000 </r>
       <r>   -0.2336    1.0000 </r>
       <r>   -0.2336    1.0000 </r>
       <r>   -0.2336    1.0000 </r>
       <r>   -0.2336    1.0000 </r>
       <r>   -0.2336    1.0000 </r>
       <r>   -0.2336    1.0000 </r>
       <r>   -0.2336    1.0000 </r>
       <r>   -0.2336    1.0000 </r>
       <r>   -0.2336    1.0000 </r>
       <r>   -0.2336    1.0000 </r>
       <r>   -0.2336    1.0000 </r>
       <r>   -0.2336    1.0000 </r>
       <r>   -0.0777    1.0000 </r>
       <r>   -0.0777    1.0000 </r>
       <r>   -0.0777    1.0000 </r>
       <r>    5.1186    0.0000 </r>
       <r>    5.1373    0.0000 </r>
       <r>    5.1373    0.0000 </r>
       <r>    5.8409    0.0000 </r>
       <r>    5.8409    0.0000 </r>
       <r>    5.8409    0.0000 </r>
       <r>    5.8409    0.0000 </r>
       <r>    5.8409    0.0000 </r>
       <r>    5.8409    0.0000 </r>
       <r>    6.0877    0.0000 </r>
       <r>    6.0877    0.0000 </r>
       <r>    6.0877    0.0000 </r>
       <r>    6.0877    0.0000 </r>
       <r>    6.0877    0.0000 </r>
       <r>    6.0877    0.0000 </r>
       <r>    6.0877    0.0000 </r>
       <r>    6.0877    0.0000 </r>
       <r>    6.0877    0.0000 </r>
       <r>    6.0877    0.0000 </r>
       <r>    6.0877    0.0000 </r>
       <r>    6.0877    0.0000 </r>
       <r>    6.5819    0.0000 </r>
       <r>    6.5819    0.0000 </r>
       <r>    6.5819    0.0000 </r>
       <r>    6.5819    0.0000 </r>
       <r>    6.5819    0.0000 </r>
       <r>    6.5819    0.0000 </r>
       <r>    6.5819    0.0000 </r>
       <r>    6.5819    0.0000 </r>
       <r>    6.5819    0.0000 </r>
       <r>    6.5819    0.0000 </r>
       <r>    6.5819    0.0000 </r>
       <r>    6.5819    0.0000 </r>
       <r>    6.9097    0.0000 </r>
       <r>    6.9097    0.0000 </r>
       <r>    6.9097    0.0000 </r>
       <r>    6.9097    0.0000 </r>
       <r>    6.9097    0.0000 </r>
       <r>    6.9097    0.0000 </r>
       <r>    7.2346    0.0000 </r>
       <r>    7.2346    0.0000 </r>
       <r>    7.2346    0.0000 </r>
       <r>    7.2346    0.0000 </r>
       <r>    7.2346    0.0000 </r>
       <r>    7.2346    0.0000 </r>
       <r>    7.2346    0.0000 </r>
       <r>    7.2346    0.0000 </r>
       <r>    7.6857    0.0000 </r>
       <r>    7.6857    0.0000 </r>
       <r>    7.6857    0.0000 </r>
       <r>    7.6857    0.0000 </r>
       <r>    7.6857    0.0000 </r>
       <r>    7.6857    0.0000 </r>
       <r>    8.2404    0.0000 </r>
       <r>    8.2404    0.0000 </r>
       <r>    8.2406    0.0000 </r>
       <r>    8.2408    0.0000 </r>
       <r>    8.2411    0.0000 </r>
       <r>    8.2411    0.0000 </r>
       <r>    8.2413    0.0000 </r>
       <r>    8.2414    0.0000 </r>
       <r>    8.2415    0.0000 </r>
       <r>    8.2416    0.0000 </r>
       <r>    8.2417    0.0000 </r>
       <r>    8.2418    0.0000 </r>
       <r>    8.2419    0.0000 </r>
       <r>    8.2419    0.0000 </r>
       <r>    8.2419    0.0000 </r>
       <r>    8.2419    0.0000 </r>
       <r>    8.2419    0.0000 </r>
      </set>
     </set>
     <set comment="spin 2">
      <set comment="kpoint 1">
       <r>  -19.4199    1.0000 </r>
       <r>  -19.3480    1.0000 </r>
       <r>  -19.3480    1.0000 </r>
       <r>  -19.3480    1.0000 </r>
       <r>  -19.3480    1.0000 </r>
       <r>  -19.3480    1.0000 </r>
       <r>  -19.3480    1.0000 </r>
       <r>  -19.2844    1.0000 </r>
       <r>  -19.2844    1.0000 </r>
       <r>  -19.2844    1.0000 </r>
       <r>  -19.2844    1.0000 </r>
       <r>  -19.2844    1.0000 </r>
       <r>  -19.2844    1.0000 </r>
       <r>  -19.2844    1.0000 </r>
       <r>  -19.2844    1.0000 </r>
       <r>  -19.2844    1.0000 </r>
       <r>  -19.2844    1.0000 </r>
       <r>  -19.2844    1.0000 </r>
       <r>  -19.2844    1.0000 </r>
       <r>  -19.2250    1.0000 </r>
       <r>  -19.2250    1.0000 </r>
       <r>  -19.2250    1.0000 </r>
       <r>  -19.2250    1.0000 </r>
       <r>  -19.2250    1.0000 </r>
       <r>  -19.2250    1.0000 </r>
       <r>  -19.2250    1.0000 </r>
       <r>  -19.2250    1.0000 </r>
       <r>  -12.3424    1.0000 </r>
       <r>  -12.3424    1.0000 </r>
       <r>  -12.3424    1.0000 </r>
       <r>  -12.3424    1.0000 </r>
       <r>  -12.3424    1.0000 </r>
       <r>  -12.3424    1.0000 </r>
       <r>  -12.2974    1.0000 </r>
       <r>  -12.2703    1.0000 </r>
       <r>  -12.2703    1.0000 </r>
       <r>  -12.2703    1.0000 </r>
       <r>  -12.2703    1.0000 </r>
       <r>  -12.2703    1.0000 </r>
       <r>  -12.2703    1.0000 </r>
       <r>  -12.2703    1.0000 </r>
       <r>  -12.2703    1.0000 </r>
       <r>  -12.2703    1.0000 </r>
       <r>  -12.2703    1.0000 </r>
       <r>  -12.2703    1.0000 </r>
       <r>  -12.2703    1.0000 </r>
       <r>  -12.1920    1.0000 </r>
       <r>  -12.1920    1.0000 </r>
       <r>  -12.1920    1.0000 </r>
       <r>  -12.1920    1.0000 </r>
       <r>  -12.1920    1.0000 </r>
       <r>  -12.1920    1.0000 </r>
       <r>  -12.1920    1.0000 </r>
       <r>  -12.1920    1.0000 </r>
       <r>   -6.5395    1.0000 </r>
       <r>   -6.5395    1.0000 </r>
       <r>   -6.5395    1.0000 </r>
       <r>   -6.5395    1.0000 </r>
       <r>   -6.5395    1.0000 </r>
       <r>   -6.5395    1.0000 </r>
       <r>   -6.5395    1.0000 </r>
       <r>   -6.5395    1.0000 </r>
       <r>   -6.5395    1.0000 </r>
       <r>   -6.5395    1.0000 </r>
       <r>   -6.5395    1.0000 </r>
       <r>   -6.5395    1.0000 </r>
       <r>   -6.3728    1.0000 </r>
       <r>   -6.3728    1.0000 </r>
       <r>   -6.3728    1.0000 </r>
       <r>   -6.3728    1.0000 </r>
       <r>   -6.3728    1.0000 </r>
       <r>   -6.3728    1.0000 </r>
       <r>   -6.3728    1.0000 </r>
       <r>   -6.3728    1.0000 </r>
       <r>   -6.3718    1.0000 </r>
       <r>   -6.3718    1.0000 </r>
       <r>   -6.3718    1.0000 </r>
       <r>   -6.3718    1.0000 </r>
       <r>   -6.3718    1.0000 </r>
       <r>   -6.3718    1.0000 </r>
       <r>   -6.3718    1.0000 </r>
       <r>   -6.3718    1.0000 </r>
       <r>   -6.3718    1.0000 </r>
       <r>   -6.3718    1.0000 </r>
       <r>   -6.3718    1.0000 </r>
       <r>   -6.3718    1.0000 </r>
       <r>   -6.3496    1.0000 </r>
       <r>   -6.3496    1.0000 </r>
       <r>   -6.3496    1.0000 </r>
       <r>   -6.3496    1.0000 </r>
       <r>   -6.3496    1.0000 </r>
       <r>   -6.3496    1.0000 </r>
       <r>   -6.3496    1.0000 </r>
       <r>   -6.3496    1.0000 </r>
       <r>   -6.3496    1.0000 </r>
       <r>   -6.3496    1.0000 </r>
       <r>   -6.3496    1.0000 </r>
       <r>   -6.3496    1.0000 </r>
       <r>   -6.3496    1.0000 </r>
       <r>   -6.3496    1.0000 </r>
       <r>   -6.3496    1.0000 </r>
       <r>   -6.3496    1.0000 </r>
       <r>   -6.3116    1.0000 </r>
       <r>   -6.3116    1.0000 </r>
       <r>   -6.3116    1.0000 </r>
       <r>   -6.3116    1.0000 </r>
       <r>   -6.3116    1.0000 </r>
       <r>   -6.3116    1.0000 </r>
       <r>   -5.8647    1.0000 </r>
       <r>   -5.8647    1.0000 </r>
       <r>   -5.8647    1.0000 </r>
       <r>   -5.7408    1.0000 </r>
       <r>   -5.7408    1.0000 </r>
       <r>   -5.7408    1.0000 </r>
       <r>   -5.7408    1.0000 </r>
       <r>   -5.7408    1.0000 </r>
       <r>   -5.7408    1.0000 </r>
       <r>   -5.7408    1.0000 </r>
       <r>   -5.7408    1.0000 </r>
       <r>   -5.7408    1.0000 </r>
       <r>   -5.7408    1.0000 </r>
       <r>   -5.7408    1.0000 </r>
       <r>   -5.7408    1.0000 </r>
       <r>   -5.6524    1.0000 </r>
       <r>   -5.6524    1.0000 </r>
       <r>   -5.6524    1.0000 </r>
       <r>   -5.6524    1.0000 </r>
       <r>   -5.6524    1.0000 </r>
       <r>   -5.6524    1.0000 </r>
       <r>   -5.6524    1.0000 </r>
       <r>   -5.6524    1.0000 </r>
       <r>   -5.6524    1.0000 </r>
       <r>   -5.6524    1.0000 </r>
       <r>   -5.6524    1.0000 </r>
       <r>   -5.6524    1.0000 </r>
       <r>   -1.1005    1.0000 </r>
       <r>   -1.1005    1.0000 </r>
       <r>   -1.1005    1.0000 </r>
       <r>   -1.1005    1.0000 </r>
       <r>   -1.1005    1.0000 </r>
       <r>   -1.1005    1.0000 </r>
       <r>   -0.9329    1.0000 </r>
       <r>   -0.9329    1.0000 </r>
       <r>   -0.9329    1.0000 </r>
       <r>   -0.9329    1.0000 </r>
       <r>   -0.9329    1.0000 </r>
       <r>   -0.9329    1.0000 </r>
       <r>   -0.9329    1.0000 </r>
       <r>   -0.9329    1.0000 </r>
       <r>   -0.9329    1.0000 </r>
       <r>   -0.9329    1.0000 </r>
       <r>   -0.9329    1.0000 </r>
       <r>   -0.9329    1.0000 </r>
       <r>   -0.9329    1.0000 </r>
       <r>   -0.9329    1.0000 </r>
       <r>   -0.9329    1.0000 </r>
       <r>   -0.9329    1.0000 </r>
       <r>   -0.8103    1.0000 </r>
       <r>   -0.8103    1.0000 </r>
       <r>   -0.8103    1.0000 </r>
       <r>   -0.8103    1.0000 </r>
       <r>   -0.8103    1.0000 </r>
       <r>   -0.8103    1.0000 </r>
       <r>   -0.8103    1.0000 </r>
       <r>   -0.8103    1.0000 </r>
       <r>   -0.8103    1.0000 </r>
       <r>   -0.8103    1.0000 </r>
       <r>   -0.8103    1.0000 </r>
       <r>   -0.8103    1.0000 </r>
       <r>   -0.6346    1.0000 </r>
       <r>   -0.6346    1.0000 </r>
       <r>   -0.6346    1.0000 </r>
       <r>   -0.6346    1.0000 </r>
       <r>   -0.6346    1.0000 </r>
       <r>   -0.6346    1.0000 </r>
       <r>   -0.6346    1.0000 </r>
       <r>   -0.6346    1.0000 </r>
       <r>   -0.4435    1.0000 </r>
       <r>   -0.4435    1.0000 </r>
       <r>   -0.4435    1.0000 </r>
       <r>   -0.4435    1.0000 </r>
       <r>   -0.4435    1.0000 </r>
       <r>   -0.4435    1.0000 </r>
       <r>   -0.4435    1.0000 </r>
       <r>   -0.4435    1.0000 </r>
       <r>   -0.4435    1.0000 </r>
       <r>   -0.4435    1.0000 </r>
       <r>   -0.4435    1.0000 </r>
       <r>   -0.4435    1.0000 </r>
       <r>   -0.2905    1.0000 </r>
       <r>   -0.2905    1.0000 </r>
       <r>   -0.2905    1.0000 </r>
       <r>   -0.2905    1.0000 </r>
       <r>   -0.2905    1.0000 </r>
       <r>   -0.2905    1.0000 </r>
       <r>   -0.2905    1.0000 </r>
       <r>   -0.2905    1.0000 </r>
       <r>   -0.2905    1.0000 </r>
       <r>   -0.2905    1.0000 </r>
       <r>   -0.2905    1.0000 </r>
       <r>   -0.2905    1.0000 </r>
       <r>   -0.2336    1.0000 </r>
       <r>   -0.2336    1.0000 </r>
       <r>   -0.2336    1.0000 </r>
       <r>   -0.2336    1.0000 </r>
       <r>   -0.2336    1.0000 </r>
       <r>   -0.2336    1.0000 </r>
       <r>   -0.2336    1.0000 </r>
       <r>   -0.2336    1.0000 </r>
       <r>   -0.2336    1.0000 </r>
       <r>   -0.2336    1.0000 </r>
       <r>   -0.2336    1.0000 </r>
       <r>   -0.2336    1.0000 </r>
       <r>   -0.0777    1.0000 </r>
       <r>   -0.0777    1.0000 </r>
       <r>   -0.0777    1.0000 </r>
       <r>    5.1190    0.0000 </r>
       <r>    5.1377    0.0000 </r>
       <r>    5.1377    0.0000 </r>
       <r>    5.8412    0.0000 </r>
       <r>    5.8412    0.0000 </r>
       <r>    5.8412    0.0000 </r>
       <r>    5.8412    0.0000 </r>
       <r>    5.8412    0.0000 </r>
       <r>    5.8412    0.0000 </r>
       <r>    6.0881    0.0000 </r>
       <r>    6.0881    0.0000 </r>
       <r>    6.0881    0.0000 </r>
       <r>    6.0881    0.0000 </r>
       <r>    6.0881    0.0000 </r>
       <r>    6.0881    0.0000 </r>
       <r>    6.0881    0.0000 </r>
       <r>    6.0881    0.0000 </r>
       <r>    6.0881    0.0000 </r>
       <r>    6.0881    0.0000 </r>
       <r>    6.0881    0.0000 </r>
       <r>    6.0881    0.0000 </r>
       <r>    6.5822    0.0000 </r>
       <r>    6.5822    0.0000 </r>
       <r>    6.5822    0.0000 </r>
       <r>    6.5822    0.0000 </r>
       <r>    6.5822    0.0000 </r>
       <r>    6.5822    0.0000 </r>
       <r>    6.5822    0.0000 </r>
       <r>    6.5822    0.0000 </r>
       <r>    6.5822    0.0000 </r>
       <r>    6.5822    0.0000 </r>
       <r>    6.5822    0.0000 </r>
       <r>    6.5822    0.0000 </r>
       <r>    6.9101    0.0000 </r>
       <r>    6.9101    0.0000 </r>
       <r>    6.9101    0.0000 </r>
       <r>    6.9101    0.0000 </r>
       <r>    6.9101    0.0000 </r>
       <r>    6.9101    0.0000 </r>
       <r>    7.2349    0.0000 </r>
       <r>    7.2349    0.0000 </r>
       <r>    7.2349    0.0000 </r>
       <r>    7.2349    0.0000 </r>
       <r>    7.2349    0.0000 </r>
       <r>    7.2349    0.0000 </r>
       <r>    7.2349    0.0000 </r>
       <r>    7.2349    0.0000 </r>
       <r>    7.6860    0.0000 </r>
       <r>    7.6860    0.0000 </r>
       <r>    7.6860    0.0000 </r>
       <r>    7.6860    0.0000 </r>
       <r>    7.6860    0.0000 </r>
       <r>    7.6860    0.0000 </r>
       <r>    8.2406    0.0000 </r>
       <r>    8.2406    0.0000 </r>
       <r>    8.2407    0.0000 </r>
       <r>    8.2409    0.0000 </r>
       <r>    8.2411    0.0000 </r>
       <r>    8.2412    0.0000 </r>
       <r>    8.2414    0.0000 </r>
       <r>    8.2415    0.0000 </r>
       <r>    8.2417    0.0000 </r>
       <r>    8.2418    0.0000 </r>
       <r>    8.2419    0.0000 </r>
       <r>    8.2420    0.0000 </r>
       <r>    8.2421    0.0000 </r>
       <r>    8.2421    0.0000 </r>
       <r>    8.2421    0.0000 </r>
       <r>    8.2421    0.0000 </r>
       <r>    8.2421    0.0000 </r>
      </set>
     </set>
    </set>
   </array>
  </eigenvalues>
  <separator name="orbital magnetization" >
   <v name="MAGDIPOLOUT">      0.00000000      0.00000000      0.00000000</v>
  </separator>
  <dos>
   <i name="efermi">      0.40163064 </i>
   <total>
    <array>
     <dimension dim="1">gridpoints</dimension>
     <dimension dim="2">spin</dimension>
     <field>energy</field>
     <field>total</field>
     <field>integrated</field>
     <set>
      <set comment="spin 1">
       <r>   -20.8030     0.0000     0.0000 </r>
       <r>   -20.7016     0.0000     0.0000 </r>
       <r>   -20.6002     0.0000     0.0000 </r>
       <r>   -20.4987     0.0000     0.0000 </r>
       <r>   -20.3973     0.0000     0.0000 </r>
       <r>   -20.2959     0.0000     0.0000 </r>
       <r>   -20.1944     0.0000     0.0000 </r>
       <r>   -20.0930     0.0000     0.0000 </r>
       <r>   -19.9916     0.0000     0.0000 </r>
       <r>   -19.8902     0.0000     0.0000 </r>
       <r>   -19.7887     0.0000     0.0000 </r>
       <r>   -19.6873     0.0008     0.0001 </r>
       <r>   -19.5859     0.1163     0.0119 </r>
       <r>   -19.4845     3.5357     0.3705 </r>
       <r>   -19.3830    32.2364     3.6401 </r>
       <r>   -19.2816   100.3127    13.8146 </r>
       <r>   -19.1802   100.4084    23.9987 </r>
       <r>   -19.0787    27.8476    26.8232 </r>
       <r>   -18.9773     1.7237    26.9981 </r>
       <r>   -18.8759     0.0190    27.0000 </r>
       <r>   -18.7745     0.0000    27.0000 </r>
       <r>   -18.6730     0.0000    27.0000 </r>
       <r>   -18.5716     0.0000    27.0000 </r>
       <r>   -18.4702     0.0000    27.0000 </r>
       <r>   -18.3688     0.0000    27.0000 </r>
       <r>   -18.2673     0.0000    27.0000 </r>
       <r>   -18.1659     0.0000    27.0000 </r>
       <r>   -18.0645     0.0000    27.0000 </r>
       <r>   -17.9630     0.0000    27.0000 </r>
       <r>   -17.8616     0.0000    27.0000 </r>
       <r>   -17.7602     0.0000    27.0000 </r>
       <r>   -17.6588     0.0000    27.0000 </r>
       <r>   -17.5573     0.0000    27.0000 </r>
       <r>   -17.4559     0.0000    27.0000 </r>
       <r>   -17.3545     0.0000    27.0000 </r>
       <r>   -17.2531     0.0000    27.0000 </r>
       <r>   -17.1516     0.0000    27.0000 </r>
       <r>   -17.0502     0.0000    27.0000 </r>
       <r>   -16.9488     0.0000    27.0000 </r>
       <r>   -16.8473     0.0000    27.0000 </r>
       <r>   -16.7459     0.0000    27.0000 </r>
       <r>   -16.6445     0.0000    27.0000 </r>
       <r>   -16.5431     0.0000    27.0000 </r>
       <r>   -16.4416     0.0000    27.0000 </r>
       <r>   -16.3402     0.0000    27.0000 </r>
       <r>   -16.2388     0.0000    27.0000 </r>
       <r>   -16.1374     0.0000    27.0000 </r>
       <r>   -16.0359     0.0000    27.0000 </r>
       <r>   -15.9345     0.0000    27.0000 </r>
       <r>   -15.8331     0.0000    27.0000 </r>
       <r>   -15.7316     0.0000    27.0000 </r>
       <r>   -15.6302     0.0000    27.0000 </r>
       <r>   -15.5288     0.0000    27.0000 </r>
       <r>   -15.4274     0.0000    27.0000 </r>
       <r>   -15.3259     0.0000    27.0000 </r>
       <r>   -15.2245     0.0000    27.0000 </r>
       <r>   -15.1231     0.0000    27.0000 </r>
       <r>   -15.0217     0.0000    27.0000 </r>
       <r>   -14.9202     0.0000    27.0000 </r>
       <r>   -14.8188     0.0000    27.0000 </r>
       <r>   -14.7174     0.0000    27.0000 </r>
       <r>   -14.6159     0.0000    27.0000 </r>
       <r>   -14.5145     0.0000    27.0000 </r>
       <r>   -14.4131     0.0000    27.0000 </r>
       <r>   -14.3117     0.0000    27.0000 </r>
       <r>   -14.2102     0.0000    27.0000 </r>
       <r>   -14.1088     0.0000    27.0000 </r>
       <r>   -14.0074     0.0000    27.0000 </r>
       <r>   -13.9060     0.0000    27.0000 </r>
       <r>   -13.8045     0.0000    27.0000 </r>
       <r>   -13.7031     0.0000    27.0000 </r>
       <r>   -13.6017     0.0000    27.0000 </r>
       <r>   -13.5002     0.0000    27.0000 </r>
       <r>   -13.3988     0.0000    27.0000 </r>
       <r>   -13.2974     0.0000    27.0000 </r>
       <r>   -13.1960     0.0000    27.0000 </r>
       <r>   -13.0945     0.0000    27.0000 </r>
       <r>   -12.9931     0.0000    27.0000 </r>
       <r>   -12.8917     0.0000    27.0000 </r>
       <r>   -12.7903     0.0000    27.0000 </r>
       <r>   -12.6888     0.0000    27.0000 </r>
       <r>   -12.5874     0.0163    27.0017 </r>
       <r>   -12.4860     1.4101    27.1447 </r>
       <r>   -12.3845    22.4900    29.4258 </r>
       <r>   -12.2831    87.5097    38.3016 </r>
       <r>   -12.1817   106.2699    49.0803 </r>
       <r>   -12.0803    43.5558    53.4981 </r>
       <r>   -11.9788     4.8448    53.9894 </r>
       <r>   -11.8774     0.1037    54.0000 </r>
       <r>   -11.7760     0.0003    54.0000 </r>
       <r>   -11.6746     0.0000    54.0000 </r>
       <r>   -11.5731     0.0000    54.0000 </r>
       <r>   -11.4717     0.0000    54.0000 </r>
       <r>   -11.3703     0.0000    54.0000 </r>
       <r>   -11.2688     0.0000    54.0000 </r>
       <r>   -11.1674     0.0000    54.0000 </r>
       <r>   -11.0660     0.0000    54.0000 </r>
       <r>   -10.9646     0.0000    54.0000 </r>
       <r>   -10.8631     0.0000    54.0000 </r>
       <r>   -10.7617     0.0000    54.0000 </r>
       <r>   -10.6603     0.0000    54.0000 </r>
       <r>   -10.5589     0.0000    54.0000 </r>
       <r>   -10.4574     0.0000    54.0000 </r>
       <r>   -10.3560     0.0000    54.0000 </r>
       <r>   -10.2546     0.0000    54.0000 </r>
       <r>   -10.1531     0.0000    54.0000 </r>
       <r>   -10.0517     0.0000    54.0000 </r>
       <r>    -9.9503     0.0000    54.0000 </r>
       <r>    -9.8489     0.0000    54.0000 </r>
       <r>    -9.7474     0.0000    54.0000 </r>
       <r>    -9.6460     0.0000    54.0000 </r>
       <r>    -9.5446     0.0000    54.0000 </r>
       <r>    -9.4432     0.0000    54.0000 </r>
       <r>    -9.3417     0.0000    54.0000 </r>
       <r>    -9.2403     0.0000    54.0000 </r>
       <r>    -9.1389     0.0000    54.0000 </r>
       <r>    -9.0374     0.0000    54.0000 </r>
       <r>    -8.9360     0.0000    54.0000 </r>
       <r>    -8.8346     0.0000    54.0000 </r>
       <r>    -8.7332     0.0000    54.0000 </r>
       <r>    -8.6317     0.0000    54.0000 </r>
       <r>    -8.5303     0.0000    54.0000 </r>
       <r>    -8.4289     0.0000    54.0000 </r>
       <r>    -8.3275     0.0000    54.0000 </r>
       <r>    -8.2260     0.0000    54.0000 </r>
       <r>    -8.1246     0.0000    54.0000 </r>
       <r>    -8.0232     0.0000    54.0000 </r>
       <r>    -7.9217     0.0000    54.0000 </r>
       <r>    -7.8203     0.0000    54.0000 </r>
       <r>    -7.7189     0.0000    54.0000 </r>
       <r>    -7.6175     0.0000    54.0000 </r>
       <r>    -7.5160     0.0000    54.0000 </r>
       <r>    -7.4146     0.0000    54.0000 </r>
       <r>    -7.3132     0.0000    54.0000 </r>
       <r>    -7.2118     0.0000    54.0000 </r>
       <r>    -7.1103     0.0000    54.0000 </r>
       <r>    -7.0089     0.0000    54.0000 </r>
       <r>    -6.9075     0.0000    54.0000 </r>
       <r>    -6.8060     0.0097    54.0010 </r>
       <r>    -6.7046     1.1498    54.1176 </r>
       <r>    -6.6032    20.7647    56.2237 </r>
       <r>    -6.5018    70.6221    63.3867 </r>
       <r>    -6.4003   134.5886    77.0377 </r>
       <r>    -6.2989   213.0495    98.6467 </r>
       <r>    -6.1975    85.2696   107.2954 </r>
       <r>    -6.0961     6.8594   107.9911 </r>
       <r>    -5.9946     1.0872   108.1014 </r>
       <r>    -5.8932    11.0508   109.2222 </r>
       <r>    -5.7918    43.8127   113.6660 </r>
       <r>    -5.6903    98.6871   123.6756 </r>
       <r>    -5.5889    87.9206   132.5931 </r>
       <r>    -5.4875    22.5443   134.8797 </r>
       <r>    -5.3861     1.1758   134.9990 </r>
       <r>    -5.2846     0.0098   135.0000 </r>
       <r>    -5.1832     0.0000   135.0000 </r>
       <r>    -5.0818     0.0000   135.0000 </r>
       <r>    -4.9804     0.0000   135.0000 </r>
       <r>    -4.8789     0.0000   135.0000 </r>
       <r>    -4.7775     0.0000   135.0000 </r>
       <r>    -4.6761     0.0000   135.0000 </r>
       <r>    -4.5746     0.0000   135.0000 </r>
       <r>    -4.4732     0.0000   135.0000 </r>
       <r>    -4.3718     0.0000   135.0000 </r>
       <r>    -4.2704     0.0000   135.0000 </r>
       <r>    -4.1689     0.0000   135.0000 </r>
       <r>    -4.0675     0.0000   135.0000 </r>
       <r>    -3.9661     0.0000   135.0000 </r>
       <r>    -3.8647     0.0000   135.0000 </r>
       <r>    -3.7632     0.0000   135.0000 </r>
       <r>    -3.6618     0.0000   135.0000 </r>
       <r>    -3.5604     0.0000   135.0000 </r>
       <r>    -3.4589     0.0000   135.0000 </r>
       <r>    -3.3575     0.0000   135.0000 </r>
       <r>    -3.2561     0.0000   135.0000 </r>
       <r>    -3.1547     0.0000   135.0000 </r>
       <r>    -3.0532     0.0000   135.0000 </r>
       <r>    -2.9518     0.0000   135.0000 </r>
       <r>    -2.8504     0.0000   135.0000 </r>
       <r>    -2.7490     0.0000   135.0000 </r>
       <r>    -2.6475     0.0000   135.0000 </r>
       <r>    -2.5461     0.0000   135.0000 </r>
       <r>    -2.4447     0.0000   135.0000 </r>
       <r>    -2.3432     0.0000   135.0000 </r>
       <r>    -2.2418     0.0000   135.0000 </r>
       <r>    -2.1404     0.0000   135.0000 </r>
       <r>    -2.0390     0.0000   135.0000 </r>
       <r>    -1.9375     0.0000   135.0000 </r>
       <r>    -1.8361     0.0000   135.0000 </r>
       <r>    -1.7347     0.0000   135.0000 </r>
       <r>    -1.6333     0.0000   135.0000 </r>
       <r>    -1.5318     0.0000   135.0000 </r>
       <r>    -1.4304     0.0001   135.0000 </r>
       <r>    -1.3290     0.0364   135.0037 </r>
       <r>    -1.2275     2.1065   135.2174 </r>
       <r>    -1.1261    19.5622   137.2015 </r>
       <r>    -1.0247    44.5229   141.7173 </r>
       <r>    -0.9233    86.4997   150.4908 </r>
       <r>    -0.8218   106.7840   161.3216 </r>
       <r>    -0.7204    72.3014   168.6549 </r>
       <r>    -0.6190    50.0812   173.7345 </r>
       <r>    -0.5176    45.8400   178.3839 </r>
       <r>    -0.4161    68.2839   185.3098 </r>
       <r>    -0.3147    90.5246   194.4914 </r>
       <r>    -0.2133   121.2028   206.7847 </r>
       <r>    -0.1118    64.8608   213.3634 </r>
       <r>    -0.0104    20.8440   215.4775 </r>
       <r>     0.0910     4.8988   215.9744 </r>
       <r>     0.1924     0.2506   215.9998 </r>
       <r>     0.2939     0.0020   216.0000 </r>
       <r>     0.3953     0.0000   216.0000 </r>
       <r>     0.4967     0.0000   216.0000 </r>
       <r>     0.5981     0.0000   216.0000 </r>
       <r>     0.6996     0.0000   216.0000 </r>
       <r>     0.8010     0.0000   216.0000 </r>
       <r>     0.9024     0.0000   216.0000 </r>
       <r>     1.0039     0.0000   216.0000 </r>
       <r>     1.1053     0.0000   216.0000 </r>
       <r>     1.2067     0.0000   216.0000 </r>
       <r>     1.3081     0.0000   216.0000 </r>
       <r>     1.4096     0.0000   216.0000 </r>
       <r>     1.5110     0.0000   216.0000 </r>
       <r>     1.6124     0.0000   216.0000 </r>
       <r>     1.7138     0.0000   216.0000 </r>
       <r>     1.8153     0.0000   216.0000 </r>
       <r>     1.9167     0.0000   216.0000 </r>
       <r>     2.0181     0.0000   216.0000 </r>
       <r>     2.1196     0.0000   216.0000 </r>
       <r>     2.2210     0.0000   216.0000 </r>
       <r>     2.3224     0.0000   216.0000 </r>
       <r>     2.4238     0.0000   216.0000 </r>
       <r>     2.5253     0.0000   216.0000 </r>
       <r>     2.6267     0.0000   216.0000 </r>
       <r>     2.7281     0.0000   216.0000 </r>
       <r>     2.8295     0.0000   216.0000 </r>
       <r>     2.9310     0.0000   216.0000 </r>
       <r>     3.0324     0.0000   216.0000 </r>
       <r>     3.1338     0.0000   216.0000 </r>
       <r>     3.2353     0.0000   216.0000 </r>
       <r>     3.3367     0.0000   216.0000 </r>
       <r>     3.4381     0.0000   216.0000 </r>
       <r>     3.5395     0.0000   216.0000 </r>
       <r>     3.6410     0.0000   216.0000 </r>
       <r>     3.7424     0.0000   216.0000 </r>
       <r>     3.8438     0.0000   216.0000 </r>
       <r>     3.9452     0.0000   216.0000 </r>
       <r>     4.0467     0.0000   216.0000 </r>
       <r>     4.1481     0.0000   216.0000 </r>
       <r>     4.2495     0.0000   216.0000 </r>
       <r>     4.3510     0.0000   216.0000 </r>
       <r>     4.4524     0.0000   216.0000 </r>
       <r>     4.5538     0.0000   216.0000 </r>
       <r>     4.6552     0.0000   216.0000 </r>
       <r>     4.7567     0.0000   216.0000 </r>
       <r>     4.8581     0.0019   216.0002 </r>
       <r>     4.9595     0.2363   216.0242 </r>
       <r>     5.0609     4.5688   216.4876 </r>
       <r>     5.1624    14.9994   218.0089 </r>
       <r>     5.2638     8.8476   218.9063 </r>
       <r>     5.3652     0.9089   218.9985 </r>
       <r>     5.4667     0.0149   219.0000 </r>
       <r>     5.5681     0.0034   219.0003 </r>
       <r>     5.6695     0.4512   219.0461 </r>
       <r>     5.7709     9.0867   219.9677 </r>
       <r>     5.8724    30.3436   223.0454 </r>
       <r>     5.9738    23.8301   225.4624 </r>
       <r>     6.0752    46.2711   230.1556 </r>
       <r>     6.1766    55.1465   235.7489 </r>
       <r>     6.2781    11.9156   236.9575 </r>
       <r>     6.3795     0.6652   237.0250 </r>
       <r>     6.4809     8.8132   237.9189 </r>
       <r>     6.5824    50.3742   243.0282 </r>
       <r>     6.6838    50.0583   248.1055 </r>
       <r>     6.7852    10.8935   249.2104 </r>
       <r>     6.8866    19.9263   251.2314 </r>
       <r>     6.9881    29.2471   254.1979 </r>
       <r>     7.0895     9.1636   255.1273 </r>
       <r>     7.1909    19.8944   257.1452 </r>
       <r>     7.2923    41.3788   261.3421 </r>
       <r>     7.3938    15.3837   262.9024 </r>
       <r>     7.4952     1.1621   263.0203 </r>
       <r>     7.5966     5.9519   263.6240 </r>
       <r>     7.6981    27.5418   266.4175 </r>
       <r>     7.7995    22.2833   268.6776 </r>
       <r>     7.9009     3.1096   268.9930 </r>
       <r>     8.0023     0.1294   269.0061 </r>
       <r>     8.1038     4.2706   269.4393 </r>
       <r>     8.2052    46.7106   274.1770 </r>
       <r>     8.3066    86.7290   282.9737 </r>
       <r>     8.4080    28.2944   285.8435 </r>
       <r>     8.5095     1.5301   285.9987 </r>
       <r>     8.6109     0.0125   286.0000 </r>
       <r>     8.7123     0.0000   286.0000 </r>
       <r>     8.8138     0.0000   286.0000 </r>
       <r>     8.9152     0.0000   286.0000 </r>
       <r>     9.0166     0.0000   286.0000 </r>
       <r>     9.1180     0.0000   286.0000 </r>
       <r>     9.2195     0.0000   286.0000 </r>
       <r>     9.3209     0.0000   286.0000 </r>
       <r>     9.4223     0.0000   286.0000 </r>
       <r>     9.5237     0.0000   286.0000 </r>
       <r>     9.6252     0.0000   286.0000 </r>
      </set>
      <set comment="spin 2">
       <r>   -20.8030     0.0000     0.0000 </r>
       <r>   -20.7016     0.0000     0.0000 </r>
       <r>   -20.6002     0.0000     0.0000 </r>
       <r>   -20.4987     0.0000     0.0000 </r>
       <r>   -20.3973     0.0000     0.0000 </r>
       <r>   -20.2959     0.0000     0.0000 </r>
       <r>   -20.1944     0.0000     0.0000 </r>
       <r>   -20.0930     0.0000     0.0000 </r>
       <r>   -19.9916     0.0000     0.0000 </r>
       <r>   -19.8902     0.0000     0.0000 </r>
       <r>   -19.7887     0.0000     0.0000 </r>
       <r>   -19.6873     0.0008     0.0001 </r>
       <r>   -19.5859     0.1164     0.0119 </r>
       <r>   -19.4845     3.5373     0.3707 </r>
       <r>   -19.3830    32.2467     3.6414 </r>
       <r>   -19.2816   100.3261    13.8172 </r>
       <r>   -19.1802   100.3966    24.0001 </r>
       <r>   -19.0787    27.8354    26.8234 </r>
       <r>   -18.9773     1.7223    26.9981 </r>
       <r>   -18.8759     0.0190    27.0000 </r>
       <r>   -18.7745     0.0000    27.0000 </r>
       <r>   -18.6730     0.0000    27.0000 </r>
       <r>   -18.5716     0.0000    27.0000 </r>
       <r>   -18.4702     0.0000    27.0000 </r>
       <r>   -18.3688     0.0000    27.0000 </r>
       <r>   -18.2673     0.0000    27.0000 </r>
       <r>   -18.1659     0.0000    27.0000 </r>
       <r>   -18.0645     0.0000    27.0000 </r>
       <r>   -17.9630     0.0000    27.0000 </r>
       <r>   -17.8616     0.0000    27.0000 </r>
       <r>   -17.7602     0.0000    27.0000 </r>
       <r>   -17.6588     0.0000    27.0000 </r>
       <r>   -17.5573     0.0000    27.0000 </r>
       <r>   -17.4559     0.0000    27.0000 </r>
       <r>   -17.3545     0.0000    27.0000 </r>
       <r>   -17.2531     0.0000    27.0000 </r>
       <r>   -17.1516     0.0000    27.0000 </r>
       <r>   -17.0502     0.0000    27.0000 </r>
       <r>   -16.9488     0.0000    27.0000 </r>
       <r>   -16.8473     0.0000    27.0000 </r>
       <r>   -16.7459     0.0000    27.0000 </r>
       <r>   -16.6445     0.0000    27.0000 </r>
       <r>   -16.5431     0.0000    27.0000 </r>
       <r>   -16.4416     0.0000    27.0000 </r>
       <r>   -16.3402     0.0000    27.0000 </r>
       <r>   -16.2388     0.0000    27.0000 </r>
       <r>   -16.1374     0.0000    27.0000 </r>
       <r>   -16.0359     0.0000    27.0000 </r>
       <r>   -15.9345     0.0000    27.0000 </r>
       <r>   -15.8331     0.0000    27.0000 </r>
       <r>   -15.7316     0.0000    27.0000 </r>
       <r>   -15.6302     0.0000    27.0000 </r>
       <r>   -15.5288     0.0000    27.0000 </r>
       <r>   -15.4274     0.0000    27.0000 </r>
       <r>   -15.3259     0.0000    27.0000 </r>
       <r>   -15.2245     0.0000    27.0000 </r>
       <r>   -15.1231     0.0000    27.0000 </r>
       <r>   -15.0217     0.0000    27.0000 </r>
       <r>   -14.9202     0.0000    27.0000 </r>
       <r>   -14.8188     0.0000    27.0000 </r>
       <r>   -14.7174     0.0000    27.0000 </r>
       <r>   -14.6159     0.0000    27.0000 </r>
       <r>   -14.5145     0.0000    27.0000 </r>
       <r>   -14.4131     0.0000    27.0000 </r>
       <r>   -14.3117     0.0000    27.0000 </r>
       <r>   -14.2102     0.0000    27.0000 </r>
       <r>   -14.1088     0.0000    27.0000 </r>
       <r>   -14.0074     0.0000    27.0000 </r>
       <r>   -13.9060     0.0000    27.0000 </r>
       <r>   -13.8045     0.0000    27.0000 </r>
       <r>   -13.7031     0.0000    27.0000 </r>
       <r>   -13.6017     0.0000    27.0000 </r>
       <r>   -13.5002     0.0000    27.0000 </r>
       <r>   -13.3988     0.0000    27.0000 </r>
       <r>   -13.2974     0.0000    27.0000 </r>
       <r>   -13.1960     0.0000    27.0000 </r>
       <r>   -13.0945     0.0000    27.0000 </r>
       <r>   -12.9931     0.0000    27.0000 </r>
       <r>   -12.8917     0.0000    27.0000 </r>
       <r>   -12.7903     0.0000    27.0000 </r>
       <r>   -12.6888     0.0000    27.0000 </r>
       <r>   -12.5874     0.0163    27.0017 </r>
       <r>   -12.4860     1.4108    27.1447 </r>
       <r>   -12.3845    22.4959    29.4264 </r>
       <r>   -12.2831    87.5198    38.3033 </r>
       <r>   -12.1817   106.2660    49.0816 </r>
       <r>   -12.0803    43.5456    53.4983 </r>
       <r>   -11.9788     4.8423    53.9895 </r>
       <r>   -11.8774     0.1036    54.0000 </r>
       <r>   -11.7760     0.0003    54.0000 </r>
       <r>   -11.6746     0.0000    54.0000 </r>
       <r>   -11.5731     0.0000    54.0000 </r>
       <r>   -11.4717     0.0000    54.0000 </r>
       <r>   -11.3703     0.0000    54.0000 </r>
       <r>   -11.2688     0.0000    54.0000 </r>
       <r>   -11.1674     0.0000    54.0000 </r>
       <r>   -11.0660     0.0000    54.0000 </r>
       <r>   -10.9646     0.0000    54.0000 </r>
       <r>   -10.8631     0.0000    54.0000 </r>
       <r>   -10.7617     0.0000    54.0000 </r>
       <r>   -10.6603     0.0000    54.0000 </r>
       <r>   -10.5589     0.0000    54.0000 </r>
       <r>   -10.4574     0.0000    54.0000 </r>
       <r>   -10.3560     0.0000    54.0000 </r>
       <r>   -10.2546     0.0000    54.0000 </r>
       <r>   -10.1531     0.0000    54.0000 </r>
       <r>   -10.0517     0.0000    54.0000 </r>
       <r>    -9.9503     0.0000    54.0000 </r>
       <r>    -9.8489     0.0000    54.0000 </r>
       <r>    -9.7474     0.0000    54.0000 </r>
       <r>    -9.6460     0.0000    54.0000 </r>
       <r>    -9.5446     0.0000    54.0000 </r>
       <r>    -9.4432     0.0000    54.0000 </r>
       <r>    -9.3417     0.0000    54.0000 </r>
       <r>    -9.2403     0.0000    54.0000 </r>
       <r>    -9.1389     0.0000    54.0000 </r>
       <r>    -9.0374     0.0000    54.0000 </r>
       <r>    -8.9360     0.0000    54.0000 </r>
       <r>    -8.8346     0.0000    54.0000 </r>
       <r>    -8.7332     0.0000    54.0000 </r>
       <r>    -8.6317     0.0000    54.0000 </r>
       <r>    -8.5303     0.0000    54.0000 </r>
       <r>    -8.4289     0.0000    54.0000 </r>
       <r>    -8.3275     0.0000    54.0000 </r>
       <r>    -8.2260     0.0000    54.0000 </r>
       <r>    -8.1246     0.0000    54.0000 </r>
       <r>    -8.0232     0.0000    54.0000 </r>
       <r>    -7.9217     0.0000    54.0000 </r>
       <r>    -7.8203     0.0000    54.0000 </r>
       <r>    -7.7189     0.0000    54.0000 </r>
       <r>    -7.6175     0.0000    54.0000 </r>
       <r>    -7.5160     0.0000    54.0000 </r>
       <r>    -7.4146     0.0000    54.0000 </r>
       <r>    -7.3132     0.0000    54.0000 </r>
       <r>    -7.2118     0.0000    54.0000 </r>
       <r>    -7.1103     0.0000    54.0000 </r>
       <r>    -7.0089     0.0000    54.0000 </r>
       <r>    -6.9075     0.0000    54.0000 </r>
       <r>    -6.8060     0.0097    54.0010 </r>
       <r>    -6.7046     1.1466    54.1173 </r>
[...]
        <r>  0.0000  0.0023  0.0000 </r>
       </set>
       <set comment="band 280">
        <r>  0.0000  0.0004  0.0062 </r>
        <r>  0.0000  0.0004  0.0124 </r>
        <r>  0.0000  0.0003  0.0103 </r>
        <r>  0.0000  0.0006  0.0068 </r>
        <r>  0.0000  0.0003  0.0181 </r>
        <r>  0.0000  0.0001  0.0212 </r>
        <r>  0.0000  0.0003  0.0048 </r>
        <r>  0.0000  0.0005  0.0088 </r>
        <r>  0.0000  0.0004  0.0134 </r>
        <r>  0.0000  0.0010  0.0061 </r>
        <r>  0.0000  0.0006  0.0093 </r>
        <r>  0.0000  0.0001  0.0165 </r>
        <r>  0.0000  0.0003  0.0224 </r>
        <r>  0.0000  0.0002  0.0075 </r>
        <r>  0.0000  0.0002  0.0037 </r>
        <r>  0.0000  0.0007  0.0041 </r>
        <r>  0.0000  0.0005  0.0084 </r>
        <r>  0.0000  0.0004  0.0105 </r>
        <r>  0.0000  0.0005  0.0033 </r>
        <r>  0.0000  0.0003  0.0060 </r>
        <r>  0.0000  0.0007  0.0051 </r>
        <r>  0.0000  0.0006  0.0105 </r>
        <r>  0.0000  0.0004  0.0048 </r>
        <r>  0.0000  0.0002  0.0111 </r>
        <r>  0.0000  0.0006  0.0023 </r>
        <r>  0.0000  0.0005  0.0064 </r>
        <r>  0.0000  0.0007  0.0137 </r>
        <r>  0.0000  0.0053  0.0000 </r>
        <r>  0.0000  0.0049  0.0000 </r>
        <r>  0.0000  0.0038  0.0000 </r>
        <r>  0.0000  0.0055  0.0000 </r>
        <r>  0.0000  0.0043  0.0000 </r>
        <r>  0.0000  0.0028  0.0000 </r>
        <r>  0.0000  0.0014  0.0000 </r>
        <r>  0.0000  0.0052  0.0000 </r>
        <r>  0.0000  0.0032  0.0000 </r>
        <r>  0.0000  0.0037  0.0000 </r>
        <r>  0.0000  0.0022  0.0000 </r>
        <r>  0.0000  0.0039  0.0000 </r>
        <r>  0.0000  0.0026  0.0000 </r>
        <r>  0.0000  0.0032  0.0000 </r>
        <r>  0.0000  0.0031  0.0000 </r>
        <r>  0.0000  0.0011  0.0000 </r>
        <r>  0.0000  0.0047  0.0000 </r>
        <r>  0.0000  0.0022  0.0000 </r>
        <r>  0.0000  0.0032  0.0000 </r>
        <r>  0.0000  0.0053  0.0000 </r>
        <r>  0.0000  0.0044  0.0000 </r>
        <r>  0.0000  0.0011  0.0000 </r>
        <r>  0.0000  0.0080  0.0000 </r>
        <r>  0.0000  0.0051  0.0000 </r>
        <r>  0.0000  0.0019  0.0000 </r>
        <r>  0.0000  0.0024  0.0000 </r>
        <r>  0.0000  0.0014  0.0000 </r>
       </set>
       <set comment="band 281">
        <r>  0.0000  0.0004  0.0147 </r>
        <r>  0.0000  0.0006  0.0056 </r>
        <r>  0.0000  0.0004  0.0088 </r>
        <r>  0.0000  0.0007  0.0056 </r>
        <r>  0.0000  0.0005  0.0029 </r>
        <r>  0.0000  0.0009  0.0056 </r>
        <r>  0.0000  0.0006  0.0081 </r>
        <r>  0.0000  0.0011  0.0044 </r>
        <r>  0.0000  0.0007  0.0027 </r>
        <r>  0.0000  0.0004  0.0168 </r>
        <r>  0.0000  0.0004  0.0066 </r>
        <r>  0.0000  0.0001  0.0153 </r>
        <r>  0.0000  0.0003  0.0099 </r>
        <r>  0.0000  0.0003  0.0059 </r>
        <r>  0.0000  0.0006  0.0069 </r>
        <r>  0.0000  0.0004  0.0129 </r>
        <r>  0.0000  0.0009  0.0105 </r>
        <r>  0.0000  0.0006  0.0047 </r>
        <r>  0.0000  0.0001  0.0158 </r>
        <r>  0.0000  0.0002  0.0139 </r>
        <r>  0.0000  0.0005  0.0117 </r>
        <r>  0.0000  0.0002  0.0144 </r>
        <r>  0.0000  0.0007  0.0044 </r>
        <r>  0.0000  0.0006  0.0168 </r>
        <r>  0.0000  0.0002  0.0051 </r>
        <r>  0.0000  0.0006  0.0107 </r>
        <r>  0.0000  0.0004  0.0077 </r>
        <r>  0.0000  0.0032  0.0000 </r>
        <r>  0.0000  0.0019  0.0000 </r>
        <r>  0.0000  0.0050  0.0000 </r>
        <r>  0.0000  0.0041  0.0000 </r>
        <r>  0.0000  0.0008  0.0000 </r>
        <r>  0.0000  0.0018  0.0000 </r>
        <r>  0.0000  0.0051  0.0000 </r>
        <r>  0.0000  0.0017  0.0000 </r>
        <r>  0.0000  0.0057  0.0000 </r>
        <r>  0.0000  0.0053  0.0000 </r>
        <r>  0.0000  0.0052  0.0000 </r>
        <r>  0.0000  0.0093  0.0000 </r>
        <r>  0.0000  0.0036  0.0000 </r>
        <r>  0.0000  0.0036  0.0000 </r>
        <r>  0.0000  0.0047  0.0000 </r>
        <r>  0.0000  0.0072  0.0000 </r>
        <r>  0.0000  0.0053  0.0000 </r>
        <r>  0.0000  0.0043  0.0000 </r>
        <r>  0.0000  0.0046  0.0000 </r>
        <r>  0.0000  0.0035  0.0000 </r>
        <r>  0.0000  0.0072  0.0000 </r>
        <r>  0.0000  0.0010  0.0000 </r>
        <r>  0.0000  0.0034  0.0000 </r>
        <r>  0.0000  0.0032  0.0000 </r>
        <r>  0.0000  0.0048  0.0000 </r>
        <r>  0.0000  0.0021  0.0000 </r>
        <r>  0.0000  0.0021  0.0000 </r>
       </set>
       <set comment="band 282">
        <r>  0.0000  0.0002  0.0202 </r>
        <r>  0.0000  0.0005  0.0082 </r>
        <r>  0.0000  0.0007  0.0078 </r>
        <r>  0.0000  0.0008  0.0061 </r>
        <r>  0.0000  0.0003  0.0033 </r>
        <r>  0.0000  0.0004  0.0051 </r>
        <r>  0.0000  0.0008  0.0113 </r>
        <r>  0.0000  0.0002  0.0086 </r>
        <r>  0.0000  0.0005  0.0149 </r>
        <r>  0.0000  0.0003  0.0036 </r>
        <r>  0.0000  0.0006  0.0089 </r>
        <r>  0.0000  0.0002  0.0160 </r>
        <r>  0.0000  0.0004  0.0090 </r>
        <r>  0.0000  0.0007  0.0085 </r>
        <r>  0.0000  0.0011  0.0051 </r>
        <r>  0.0000  0.0002  0.0084 </r>
        <r>  0.0000  0.0004  0.0085 </r>
        <r>  0.0000  0.0008  0.0112 </r>
        <r>  0.0000  0.0004  0.0091 </r>
        <r>  0.0000  0.0004  0.0177 </r>
        <r>  0.0000  0.0003  0.0044 </r>
        <r>  0.0000  0.0008  0.0096 </r>
        <r>  0.0000  0.0010  0.0080 </r>
        <r>  0.0000  0.0004  0.0073 </r>
        <r>  0.0000  0.0002  0.0119 </r>
        <r>  0.0000  0.0006  0.0078 </r>
        <r>  0.0000  0.0004  0.0065 </r>
        <r>  0.0000  0.0029  0.0000 </r>
        <r>  0.0000  0.0019  0.0000 </r>
        <r>  0.0000  0.0046  0.0000 </r>
        <r>  0.0000  0.0027  0.0000 </r>
        <r>  0.0000  0.0037  0.0000 </r>
        <r>  0.0000  0.0034  0.0000 </r>
        <r>  0.0000  0.0034  0.0000 </r>
        <r>  0.0000  0.0064  0.0000 </r>
        <r>  0.0000  0.0084  0.0000 </r>
        <r>  0.0000  0.0044  0.0000 </r>
        <r>  0.0000  0.0066  0.0000 </r>
        <r>  0.0000  0.0019  0.0000 </r>
        <r>  0.0000  0.0053  0.0000 </r>
        <r>  0.0000  0.0018  0.0000 </r>
        <r>  0.0000  0.0043  0.0000 </r>
        <r>  0.0000  0.0037  0.0000 </r>
        <r>  0.0000  0.0062  0.0000 </r>
        <r>  0.0000  0.0022  0.0000 </r>
        <r>  0.0000  0.0069  0.0000 </r>
        <r>  0.0000  0.0018  0.0000 </r>
        <r>  0.0000  0.0033  0.0000 </r>
        <r>  0.0000  0.0018  0.0000 </r>
        <r>  0.0000  0.0027  0.0000 </r>
        <r>  0.0000  0.0047  0.0000 </r>
        <r>  0.0000  0.0091  0.0000 </r>
        <r>  0.0000  0.0034  0.0000 </r>
        <r>  0.0000  0.0057  0.0000 </r>
       </set>
       <set comment="band 283">
        <r>  0.0000  0.0008  0.0053 </r>
        <r>  0.0000  0.0004  0.0129 </r>
        <r>  0.0000  0.0007  0.0120 </r>
        <r>  0.0000  0.0004  0.0159 </r>
        <r>  0.0000  0.0005  0.0073 </r>
        <r>  0.0000  0.0010  0.0135 </r>
        <r>  0.0000  0.0002  0.0039 </r>
        <r>  0.0000  0.0004  0.0057 </r>
        <r>  0.0000  0.0003  0.0089 </r>
        <r>  0.0000  0.0008  0.0083 </r>
        <r>  0.0000  0.0009  0.0073 </r>
        <r>  0.0000  0.0004  0.0066 </r>
        <r>  0.0000  0.0008  0.0069 </r>
        <r>  0.0000  0.0002  0.0108 </r>
        <r>  0.0000  0.0006  0.0047 </r>
        <r>  0.0000  0.0004  0.0098 </r>
        <r>  0.0000  0.0009  0.0082 </r>
        <r>  0.0000  0.0004  0.0045 </r>
        <r>  0.0000  0.0001  0.0124 </r>
        <r>  0.0000  0.0005  0.0083 </r>
        <r>  0.0000  0.0005  0.0041 </r>
        <r>  0.0000  0.0004  0.0084 </r>
        <r>  0.0000  0.0003  0.0040 </r>
        <r>  0.0000  0.0001  0.0143 </r>
        <r>  0.0000  0.0007  0.0100 </r>
        <r>  0.0000  0.0005  0.0207 </r>
        <r>  0.0000  0.0007  0.0122 </r>
        <r>  0.0000  0.0056  0.0000 </r>
        <r>  0.0000  0.0059  0.0000 </r>
        <r>  0.0000  0.0044  0.0000 </r>
        <r>  0.0000  0.0042  0.0000 </r>
        <r>  0.0000  0.0011  0.0000 </r>
        <r>  0.0000  0.0038  0.0000 </r>
        <r>  0.0000  0.0011  0.0000 </r>
        <r>  0.0000  0.0033  0.0000 </r>
        <r>  0.0000  0.0025  0.0000 </r>
        <r>  0.0000  0.0024  0.0000 </r>
        <r>  0.0000  0.0013  0.0000 </r>
        <r>  0.0000  0.0030  0.0000 </r>
        <r>  0.0000  0.0053  0.0000 </r>
        <r>  0.0000  0.0064  0.0000 </r>
        <r>  0.0000  0.0029  0.0000 </r>
        <r>  0.0000  0.0079  0.0000 </r>
        <r>  0.0000  0.0035  0.0000 </r>
        <r>  0.0000  0.0039  0.0000 </r>
        <r>  0.0000  0.0036  0.0000 </r>
        <r>  0.0000  0.0035  0.0000 </r>
        <r>  0.0000  0.0075  0.0000 </r>
        <r>  0.0000  0.0032  0.0000 </r>
        <r>  0.0000  0.0062  0.0000 </r>
        <r>  0.0000  0.0073  0.0000 </r>
        <r>  0.0000  0.0050  0.0000 </r>
        <r>  0.0000  0.0065  0.0000 </r>
        <r>  0.0000  0.0018  0.0000 </r>
       </set>
       <set comment="band 284">
        <r>  0.0000  0.0002  0.0151 </r>
        <r>  0.0000  0.0003  0.0062 </r>
        <r>  0.0000  0.0007  0.0072 </r>
        <r>  0.0000  0.0005  0.0020 </r>
        <r>  0.0000  0.0002  0.0113 </r>
        <r>  0.0000  0.0001  0.0077 </r>
        <r>  0.0000  0.0003  0.0221 </r>
        <r>  0.0000  0.0007  0.0154 </r>
        <r>  0.0000  0.0007  0.0093 </r>
        <r>  0.0000  0.0008  0.0101 </r>
        <r>  0.0000  0.0005  0.0088 </r>
        <r>  0.0000  0.0013  0.0058 </r>
        <r>  0.0000  0.0005  0.0109 </r>
        <r>  0.0000  0.0011  0.0035 </r>
        <r>  0.0000  0.0008  0.0070 </r>
        <r>  0.0000  0.0003  0.0052 </r>
        <r>  0.0000  0.0004  0.0045 </r>
        <r>  0.0000  0.0004  0.0027 </r>
        <r>  0.0000  0.0004  0.0074 </r>
        <r>  0.0000  0.0004  0.0038 </r>
        <r>  0.0000  0.0004  0.0126 </r>
        <r>  0.0000  0.0002  0.0170 </r>
        <r>  0.0000  0.0006  0.0147 </r>
        <r>  0.0000  0.0010  0.0022 </r>
        <r>  0.0000  0.0003  0.0117 </r>
        <r>  0.0000  0.0004  0.0131 </r>
        <r>  0.0000  0.0003  0.0096 </r>
        <r>  0.0000  0.0028  0.0000 </r>
        <r>  0.0000  0.0027  0.0000 </r>
        <r>  0.0000  0.0032  0.0000 </r>
        <r>  0.0000  0.0029  0.0000 </r>
        <r>  0.0000  0.0029  0.0000 </r>
        <r>  0.0000  0.0029  0.0000 </r>
        <r>  0.0000  0.0082  0.0000 </r>
        <r>  0.0000  0.0013  0.0000 </r>
        <r>  0.0000  0.0049  0.0000 </r>
        <r>  0.0000  0.0060  0.0000 </r>
        <r>  0.0000  0.0024  0.0000 </r>
        <r>  0.0000  0.0058  0.0000 </r>
        <r>  0.0000  0.0059  0.0000 </r>
        <r>  0.0000  0.0012  0.0000 </r>
        <r>  0.0000  0.0029  0.0000 </r>
        <r>  0.0000  0.0006  0.0000 </r>
        <r>  0.0000  0.0044  0.0000 </r>
        <r>  0.0000  0.0020  0.0000 </r>
        <r>  0.0000  0.0033  0.0000 </r>
        <r>  0.0000  0.0027  0.0000 </r>
        <r>  0.0000  0.0030  0.0000 </r>
        <r>  0.0000  0.0109  0.0000 </r>
        <r>  0.0000  0.0061  0.0000 </r>
        <r>  0.0000  0.0039  0.0000 </r>
        <r>  0.0000  0.0066  0.0000 </r>
        <r>  0.0000  0.0043  0.0000 </r>
        <r>  0.0000  0.0091  0.0000 </r>
       </set>
       <set comment="band 285">
        <r>  0.0000  0.0003  0.0027 </r>
        <r>  0.0000  0.0008  0.0131 </r>
        <r>  0.0000  0.0002  0.0115 </r>
        <r>  0.0000  0.0004  0.0091 </r>
        <r>  0.0000  0.0012  0.0079 </r>
        <r>  0.0000  0.0010  0.0079 </r>
        <r>  0.0000  0.0003  0.0061 </r>
        <r>  0.0000  0.0002  0.0138 </r>
        <r>  0.0000  0.0005  0.0067 </r>
        <r>  0.0000  0.0006  0.0116 </r>
        <r>  0.0000  0.0002  0.0069 </r>
        <r>  0.0000  0.0002  0.0067 </r>
        <r>  0.0000  0.0010  0.0066 </r>
        <r>  0.0000  0.0003  0.0016 </r>
        <r>  0.0000  0.0006  0.0065 </r>
        <r>  0.0000  0.0008  0.0230 </r>
        <r>  0.0000  0.0003  0.0070 </r>
        <r>  0.0000  0.0007  0.0107 </r>
        <r>  0.0000  0.0003  0.0141 </r>
        <r>  0.0000  0.0007  0.0173 </r>
        <r>  0.0000  0.0007  0.0087 </r>
        <r>  0.0000  0.0006  0.0034 </r>
        <r>  0.0000  0.0005  0.0076 </r>
        <r>  0.0000  0.0007  0.0066 </r>
        <r>  0.0000  0.0004  0.0099 </r>
        <r>  0.0000  0.0004  0.0057 </r>
        <r>  0.0000  0.0001  0.0143 </r>
        <r>  0.0000  0.0009  0.0000 </r>
        <r>  0.0000  0.0032  0.0000 </r>
        <r>  0.0000  0.0032  0.0000 </r>
        <r>  0.0000  0.0060  0.0000 </r>
        <r>  0.0000  0.0021  0.0000 </r>
        <r>  0.0000  0.0055  0.0000 </r>
        <r>  0.0000  0.0058  0.0000 </r>
        <r>  0.0000  0.0046  0.0000 </r>
        <r>  0.0000  0.0042  0.0000 </r>
        <r>  0.0000  0.0041  0.0000 </r>
        <r>  0.0000  0.0027  0.0000 </r>
        <r>  0.0000  0.0017  0.0000 </r>
        <r>  0.0000  0.0015  0.0000 </r>
        <r>  0.0000  0.0022  0.0000 </r>
        <r>  0.0000  0.0068  0.0000 </r>
        <r>  0.0000  0.0084  0.0000 </r>
        <r>  0.0000  0.0031  0.0000 </r>
        <r>  0.0000  0.0097  0.0000 </r>
        <r>  0.0000  0.0054  0.0000 </r>
        <r>  0.0000  0.0065  0.0000 </r>
        <r>  0.0000  0.0022  0.0000 </r>
        <r>  0.0000  0.0017  0.0000 </r>
        <r>  0.0000  0.0045  0.0000 </r>
        <r>  0.0000  0.0019  0.0000 </r>
        <r>  0.0000  0.0046  0.0000 </r>
        <r>  0.0000  0.0082  0.0000 </r>
        <r>  0.0000  0.0024  0.0000 </r>
       </set>
       <set comment="band 286">
        <r>  0.0000  0.0007  0.0105 </r>
        <r>  0.0000  0.0003  0.0112 </r>
        <r>  0.0000  0.0005  0.0096 </r>
        <r>  0.0000  0.0005  0.0050 </r>
        <r>  0.0000  0.0009  0.0041 </r>
        <r>  0.0000  0.0006  0.0091 </r>
        <r>  0.0000  0.0002  0.0117 </r>
        <r>  0.0000  0.0003  0.0132 </r>
        <r>  0.0000  0.0002  0.0145 </r>
        <r>  0.0000  0.0006  0.0136 </r>
        <r>  0.0000  0.0007  0.0064 </r>
        <r>  0.0000  0.0002  0.0084 </r>
        <r>  0.0000  0.0009  0.0022 </r>
        <r>  0.0000  0.0008  0.0090 </r>
        <r>  0.0000  0.0004  0.0071 </r>
        <r>  0.0000  0.0003  0.0155 </r>
        <r>  0.0000  0.0004  0.0154 </r>
        <r>  0.0000  0.0003  0.0091 </r>
        <r>  0.0000  0.0006  0.0071 </r>
        <r>  0.0000  0.0004  0.0043 </r>
        <r>  0.0000  0.0006  0.0111 </r>
        <r>  0.0000  0.0006  0.0041 </r>
        <r>  0.0000  0.0008  0.0054 </r>
        <r>  0.0000  0.0011  0.0055 </r>
        <r>  0.0000  0.0004  0.0083 </r>
        <r>  0.0000  0.0004  0.0088 </r>
        <r>  0.0000  0.0003  0.0171 </r>
        <r>  0.0000  0.0026  0.0000 </r>
        <r>  0.0000  0.0030  0.0000 </r>
        <r>  0.0000  0.0031  0.0000 </r>
        <r>  0.0000  0.0046  0.0000 </r>
        <r>  0.0000  0.0052  0.0000 </r>
        <r>  0.0000  0.0034  0.0000 </r>
        <r>  0.0000  0.0092  0.0000 </r>
        <r>  0.0000  0.0050  0.0000 </r>
        <r>  0.0000  0.0062  0.0000 </r>
        <r>  0.0000  0.0017  0.0000 </r>
        <r>  0.0000  0.0019  0.0000 </r>
        <r>  0.0000  0.0022  0.0000 </r>
        <r>  0.0000  0.0044  0.0000 </r>
        <r>  0.0000  0.0053  0.0000 </r>
        <r>  0.0000  0.0026  0.0000 </r>
        <r>  0.0000  0.0046  0.0000 </r>
        <r>  0.0000  0.0042  0.0000 </r>
        <r>  0.0000  0.0071  0.0000 </r>
        <r>  0.0000  0.0021  0.0000 </r>
        <r>  0.0000  0.0023  0.0000 </r>
        <r>  0.0000  0.0030  0.0000 </r>
        <r>  0.0000  0.0018  0.0000 </r>
        <r>  0.0000  0.0050  0.0000 </r>
        <r>  0.0000  0.0055  0.0000 </r>
        <r>  0.0000  0.0031  0.0000 </r>
        <r>  0.0000  0.0074  0.0000 </r>
        <r>  0.0000  0.0064  0.0000 </r>
       </set>
      </set>
     </set>
    </set>
   </array>
  </projected>
 </calculation>
 <structure name="finalpos" >
  <crystal>
   <varray name="basis" >
    <v>      12.22634592       0.00000000       0.00000000 </v>
    <v>       0.00000000      12.22634592       0.00000000 </v>
    <v>       0.00000000       0.00000000      12.22634592 </v>
   </varray>
   <i name="volume">   1827.63740156 </i>
   <varray name="rec_basis" >
    <v>       0.08179059       0.00000000       0.00000000 </v>
    <v>       0.00000000       0.08179059       0.00000000 </v>
    <v>       0.00000000       0.00000000       0.08179059 </v>
   </varray>
  </crystal>
  <varray name="positions" >
   <v>       0.00000000       0.00000000       0.00000000 </v>
   <v>       0.00000000       0.00000000       0.33333333 </v>
   <v>       0.00000000       0.00000000       0.66666667 </v>
   <v>       0.00000000       0.33333333       0.00000000 </v>
   <v>       0.00000000       0.33333333       0.33333333 </v>
   <v>       0.00000000       0.33333333       0.66666667 </v>
   <v>       0.00000000       0.66666667       0.00000000 </v>
   <v>       0.00000000       0.66666667       0.33333333 </v>
   <v>       0.00000000       0.66666667       0.66666667 </v>
   <v>       0.33333333       0.00000000       0.00000000 </v>
   <v>       0.33333333       0.00000000       0.33333333 </v>
   <v>       0.33333333       0.00000000       0.66666667 </v>
   <v>       0.33333333       0.33333333       0.00000000 </v>
   <v>       0.33333333       0.33333333       0.33333333 </v>
   <v>       0.33333333       0.33333333       0.66666667 </v>
   <v>       0.33333333       0.66666667       0.00000000 </v>
   <v>       0.33333333       0.66666667       0.33333333 </v>
   <v>       0.33333333       0.66666667       0.66666667 </v>
   <v>       0.66666667       0.00000000       0.00000000 </v>
   <v>       0.66666667       0.00000000       0.33333333 </v>
   <v>       0.66666667       0.00000000       0.66666667 </v>
   <v>       0.66666667       0.33333333       0.00000000 </v>
   <v>       0.66666667       0.33333333       0.33333333 </v>
   <v>       0.66666667       0.33333333       0.66666667 </v>
   <v>       0.66666667       0.66666667       0.00000000 </v>
   <v>       0.66666667       0.66666667       0.33333333 </v>
   <v>       0.66666667       0.66666667       0.66666667 </v>
   <v>       0.16666667       0.16666667       0.16666667 </v>
   <v>       0.16666667       0.16666667       0.50000000 </v>
   <v>       0.16666667       0.16666667       0.83333333 </v>
   <v>       0.16666667       0.50000000       0.16666667 </v>
   <v>       0.16666667       0.50000000       0.50000000 </v>
   <v>       0.16666667       0.50000000       0.83333333 </v>
   <v>       0.16666667       0.83333333       0.16666667 </v>
   <v>       0.16666667       0.83333333       0.50000000 </v>
   <v>       0.16666667       0.83333333       0.83333333 </v>
   <v>       0.50000000       0.16666667       0.16666667 </v>
   <v>       0.50000000       0.16666667       0.50000000 </v>
   <v>       0.50000000       0.16666667       0.83333333 </v>
   <v>       0.50000000       0.50000000       0.16666667 </v>
   <v>       0.50000000       0.50000000       0.50000000 </v>
   <v>       0.50000000       0.50000000       0.83333333 </v>
   <v>       0.50000000       0.83333333       0.16666667 </v>
   <v>       0.50000000       0.83333333       0.50000000 </v>
   <v>       0.50000000       0.83333333       0.83333333 </v>
   <v>       0.83333333       0.16666667       0.16666667 </v>
   <v>       0.83333333       0.16666667       0.50000000 </v>
   <v>       0.83333333       0.16666667       0.83333333 </v>
   <v>       0.83333333       0.50000000       0.16666667 </v>
   <v>       0.83333333       0.50000000       0.50000000 </v>
   <v>       0.83333333       0.50000000       0.83333333 </v>
   <v>       0.83333333       0.83333333       0.16666667 </v>
   <v>       0.83333333       0.83333333       0.50000000 </v>
   <v>       0.83333333       0.83333333       0.83333333 </v>
  </varray>
 </structure>
</modeling>
