       N       E                     dE             d eps       ncg     rms          rms(c)
DAV:   1     0.203306323540E+03    0.20331E+03   -0.14352E+04  1848   0.155E+03
DAV:   2     0.165072925624E+01   -0.20166E+03   -0.19715E+03  1980   0.328E+02
DAV:   3    -0.156222089551E+02   -0.17273E+02   -0.17191E+02  2238   0.104E+02
DAV:   4    -0.159701120198E+02   -0.34790E+00   -0.34763E+00  2178   0.155E+01
DAV:   5    -0.159770463723E+02   -0.69344E-02   -0.69336E-02  2254   0.212E+00    0.996E+00
DAV:   6    -0.151512181814E+02    0.82583E+00   -0.21774E+00  2618   0.470E+01    0.768E+00
DAV:   7    -0.151839205168E+02   -0.32702E-01   -0.19417E+00  1956   0.818E+00    0.327E+00
DAV:   8    -0.151632394143E+02    0.20681E-01   -0.94985E-02  2556   0.440E+00    0.105E+00
DAV:   9    -0.151626917090E+02    0.54771E-03   -0.22888E-02  2542   0.263E+00    0.253E-01
DAV:  10    -0.151628112794E+02   -0.11957E-03   -0.11974E-03  2142   0.402E-01    0.180E-01
DAV:  11    -0.151629344284E+02   -0.12315E-03   -0.20915E-04  2172   0.211E-01    0.661E-02
DAV:  12    -0.151629369440E+02   -0.25156E-05   -0.54938E-05  2250   0.114E-01    0.208E-02
DAV:  13    -0.151629375901E+02   -0.64607E-06   -0.40818E-06  2178   0.162E-02    0.118E-02
DAV:  14    -0.151629381637E+02   -0.57365E-06   -0.14200E-06  2302   0.177E-02    0.478E-03
DAV:  15    -0.151629380588E+02    0.10496E-06   -0.28788E-07  1890   0.105E-02    0.178E-03
DAV:  16    -0.151629380314E+02    0.27386E-07   -0.40979E-08  1230   0.295E-03
   1 F= -.15162938E+02 E0= -.15162938E+02  d E =-.151629E+02
       N       E                     dE             d eps       ncg     rms          rms(c)
DAV:   1    -0.151629716262E+02   -0.33567E-04   -0.22954E-03  1902   0.356E-01    0.284E-02
DAV:   2    -0.151629608003E+02    0.10826E-04   -0.61561E-05  2638   0.117E-01    0.163E-02
DAV:   3    -0.151629551208E+02    0.56794E-05   -0.75722E-06  2192   0.323E-02    0.604E-03
DAV:   4    -0.151629544527E+02    0.66815E-06   -0.23483E-06  2296   0.137E-02    0.222E-03
DAV:   5    -0.151629544556E+02   -0.28995E-08   -0.42246E-07  1808   0.727E-03
   2 F= -.15162954E+02 E0= -.15162954E+02  d E =-.164242E-04
       N       E                     dE             d eps       ncg     rms          rms(c)
DAV:   1    -0.151630662482E+02   -0.11180E-03   -0.12985E-02  1872   0.847E-01    0.677E-02
DAV:   2    -0.151630034461E+02    0.62802E-04   -0.34950E-04  2626   0.277E-01    0.386E-02
DAV:   3    -0.151629724188E+02    0.31027E-04   -0.42924E-05  2178   0.767E-02    0.144E-02
DAV:   4    -0.151629690937E+02    0.33250E-05   -0.13350E-05  2278   0.327E-02    0.534E-03
DAV:   5    -0.151629691691E+02   -0.75392E-07   -0.24345E-06  2100   0.171E-02    0.252E-03
DAV:   6    -0.151629691485E+02    0.20615E-07   -0.13654E-07  1080   0.495E-03
   3 F= -.15162969E+02 E0= -.15162969E+02  d E =-.311171E-04
