 vasp.6.5.1 10Mar25 (build May 13 2025 11:33:44) complex                         
 executed on              LinuxNV date 2026.05.14  18:23:11
 running    2 mpi-ranks, on    1 nodes
 distrk:  each k-point on    2 cores,    1 groups
 distr:  one band on NCORE=   1 cores,    2 groups
 Offloading initialized ...    2 GPUs detected


--------------------------------------------------------------------------------------------------------


 INCAR:
   ALGO = Normal
   PREC = Normal
   LREAL = False
   EDIFF = 1e-07
   ENCUT = 359.74
   LASPH = True
   NELM = 100
   ISIF = 3
   IBRION = 2
   EDIFFG = -0.005
   NSW = 100
   ISMEAR = 0
   SIGMA = 0.1
   LWAVE = False
   LCHARG = False
   LORBIT = 10
   GGA = Ps
   KPAR = 1

 POTCAR:    PAW_PBE Zn 06Sep2000                  
 POTCAR:    PAW_PBE S 06Sep2000                   
 POTCAR:    PAW_PBE Zn 06Sep2000                  
   SHA256 =  501fddbd8274dd8e9725d4f3de27861d7f1e553a7e18441bc79fed8f346e7f23 Zn/POTCAR             
   COPYR  = (c) Copyright 06Sep2000 Georg Kresse                                                    
   COPYR  = This file is part of the software VASP. Any use, copying, and all other rights are regul
   COPYR  = If you do not have a valid VASP license, you may not use, copy or distribute this file. 
   VRHFIN =Zn: d10 p2                                                                               
   LEXCH  = PE                                                                                      
   EATOM  =  1748.8345 eV,  128.5357 Ry                                                             
                                                                                                    
   TITEL  = PAW_PBE Zn 06Sep2000                                                                    
   LULTRA =        F    use ultrasoft PP ?                                                          
   IUNSCR =        1    unscreen: 0-lin 1-nonlin 2-no                                               
   RPACOR =    2.000    partial core radius                                                         
   POMASS =   65.390; ZVAL   =   12.000    mass and valenz                                          
   RCORE  =    2.300    outmost cutoff radius                                                       
   RWIGS  =    2.400; RWIGS  =    1.270    wigner-seitz radius (au A)                               
   ENMAX  =  276.723; ENMIN  =  207.542 eV                                                          
   RCLOC  =    1.828    cutoff for local pot                                                        
   LCOR   =        T    correct aug charges                                                         
   LPAW   =        T    paw PP                                                                      
   EAUG   =  575.892                                                                                
   DEXC   =    0.000                                                                                
   RMAX   =    2.347    core radius for proj-oper                                                   
   RAUG   =    1.300    factor for augmentation sphere                                              
   RDEP   =    2.324    radius for radial grids                                                     
   RDEPT  =    1.788    core radius for aug-charge                                                  
                                                                                                    
   Atomic configuration                                                                             
    9 entries                                                                                       
     n  l   j            E        occ.                                                              
     1  0  0.50     -9524.6913   2.0000                                                             
     2  0  0.50     -1158.1882   2.0000                                                             
     2  1  1.50     -1003.8506   6.0000                                                             
     3  0  0.50      -129.2194   2.0000                                                             
     3  1  1.50       -83.3890   6.0000                                                             
     3  2  2.50       -10.1410  10.0000                                                             
     4  0  0.50        -5.9785   2.0000                                                             
     4  1  0.50        -4.0817   0.0000                                                             
     4  3  2.50        -1.3606   0.0000                                                             
   Description                                                                                      
     l       E           TYP  RCUT    TYP  RCUT                                                     
     2    -10.1410010     23  2.300                                                                 
     2    -11.5015836     23  2.300                                                                 
     0     -5.9785163     23  2.300                                                                 
     0      1.1858015     23  2.300                                                                 
     1     -2.7211652     23  2.300                                                                 
     1     13.2444212     23  2.300                                                                 
  local pseudopotential read in
  partial core-charges read in
  partial kinetic energy density read in
  atomic valenz-charges read in
  non local Contribution for L=            2  read in
    real space projection operators read in
  non local Contribution for L=            2  read in
    real space projection operators read in
  non local Contribution for L=            0  read in
    real space projection operators read in
  non local Contribution for L=            0  read in
    real space projection operators read in
  non local Contribution for L=            1  read in
    real space projection operators read in
  non local Contribution for L=            1  read in
    real space projection operators read in
    PAW grid and wavefunctions read in
 
   number of l-projection  operators is LMAX  =            6
   number of lm-projection operators is LMMAX =           18
 
 POTCAR:    PAW_PBE S 06Sep2000                   
   SHA256 =  0fc7481fb0695f01bdc6462160264c5c84044ae9ec85a907d398b887a2bc3132 S/POTCAR              
   COPYR  = (c) Copyright 06Sep2000 Georg Kresse                                                    
   COPYR  = This file is part of the software VASP. Any use, copying, and all other rights are regul
   COPYR  = If you do not have a valid VASP license, you may not use, copy or distribute this file. 
   VRHFIN =S : s2p4                                                                                 
   LEXCH  = PE                                                                                      
   EATOM  =   276.8230 eV,   20.3459 Ry                                                             
                                                                                                    
   TITEL  = PAW_PBE S 06Sep2000                                                                     
   LULTRA =        F    use ultrasoft PP ?                                                          
   IUNSCR =        1    unscreen: 0-lin 1-nonlin 2-no                                               
   RPACOR =    1.500    partial core radius                                                         
   POMASS =   32.066; ZVAL   =    6.000    mass and valenz                                          
   RCORE  =    1.900    outmost cutoff radius                                                       
   RWIGS  =    2.200; RWIGS  =    1.164    wigner-seitz radius (au A)                               
   ENMAX  =  258.689; ENMIN  =  194.016 eV                                                          
   ICORE  =        2    local potential                                                             
   LCOR   =        T    correct aug charges                                                         
   LPAW   =        T    paw PP                                                                      
   EAUG   =  335.092                                                                                
   DEXC   =    0.000                                                                                
   RMAX   =    1.942    core radius for proj-oper                                                   
   RAUG   =    1.300    factor for augmentation sphere                                              
   RDEP   =    1.954    radius for radial grids                                                     
   RDEPT  =    1.744    core radius for aug-charge                                                  
                                                                                                    
   Atomic configuration                                                                             
    6 entries                                                                                       
     n  l   j            E        occ.                                                              
     1  0  0.50     -2405.8406   2.0000                                                             
     2  0  0.50      -211.7007   2.0000                                                             
     2  1  1.50      -156.4958   6.0000                                                             
     3  0  0.50       -17.2562   2.0000                                                             
     3  1  0.50        -7.0085   4.0000                                                             
     3  2  1.50        -6.8029   0.0000                                                             
   Description                                                                                      
     l       E           TYP  RCUT    TYP  RCUT                                                     
     0    -17.2561641     23  1.900                                                                 
     0    -15.8743224     23  1.900                                                                 
     1     -7.0085400     23  1.900                                                                 
     1     -2.7779785     23  1.900                                                                 
     2     -6.8029130     23  1.900                                                                 
  local pseudopotential read in
  partial core-charges read in
  partial kinetic energy density read in
  atomic valenz-charges read in
  non local Contribution for L=            0  read in
    real space projection operators read in
  non local Contribution for L=            0  read in
    real space projection operators read in
  non local Contribution for L=            1  read in
    real space projection operators read in
  non local Contribution for L=            1  read in
    real space projection operators read in
    PAW grid and wavefunctions read in
 
   number of l-projection  operators is LMAX  =            4
   number of lm-projection operators is LMMAX =            8
 
 -----------------------------------------------------------------------------
|                                                                             |
|               ----> ADVICE to this user running VASP <----                  |
|                                                                             |
|     You enforced a specific xc type in the INCAR file but a different       |
|     type was found in the POTCAR file.                                      |
|     I HOPE YOU KNOW WHAT YOU ARE DOING!                                     |
|                                                                             |
 -----------------------------------------------------------------------------

  PAW_PBE Zn 06Sep2000                  :
 energy of atom  1       EATOM=-1748.8345
 kinetic energy error for atom=    0.0210 (will be added to EATOM!!)
  PAW_PBE S 06Sep2000                   :
 energy of atom  2       EATOM= -276.8230
 kinetic energy error for atom=    0.0050 (will be added to EATOM!!)
 
 
 POSCAR: Zn2 S2
  positions in direct lattice
  velocities in cartesian coordinates


 exchange-correlation table for PS
   RHO(1)=    0.500       N(1)  =     2000
   RHO(2)=  100.500       N(2)  =     4000
 


--------------------------------------------------------------------------------------------------------


 ion  position               nearest neighbor table
   1  0.667  0.333  0.500-   4 2.32   4 2.32   4 2.32   3 2.32
   2  0.333  0.667  0.000-   3 2.32   3 2.32   3 2.32   4 2.32
   3  0.667  0.333  0.875-   2 2.32   2 2.32   2 2.32   1 2.32
   4  0.333  0.667  0.375-   1 2.32   1 2.32   1 2.32   2 2.32
 
  LATTYP: Found a hexagonal cell.
 ALAT       =     3.7826247192
 C/A-ratio  =     1.6390453757
  
  Lattice vectors:
  
 A1 = (   3.7826247192,  -0.0000000000,   0.0000000000)
 A2 = (  -1.8913123596,   3.2758490998,   0.0000000000)
 A3 = (   0.0000000000,  -0.0000000000,   6.1998935541)


Analysis of symmetry for initial positions (statically):
=====================================================================
 Subroutine PRICEL returns:
 Original cell was already a primitive cell.
 

 Routine SETGRP: Setting up the symmetry group for a 
 hexagonal supercell.


 Subroutine GETGRP returns: Found 12 space group operations
 (whereof  6 operations were pure point group operations)
 out of a pool of 24 trial point group operations.


The static configuration has the point symmetry C_3v.
 The point group associated with its full space group is C_6v.


Analysis of symmetry for dynamics (positions and initial velocities):
=====================================================================
 Subroutine PRICEL returns:
 Original cell was already a primitive cell.
 

 Routine SETGRP: Setting up the symmetry group for a 
 hexagonal supercell.


 Subroutine GETGRP returns: Found 12 space group operations
 (whereof  6 operations were pure point group operations)
 out of a pool of 24 trial point group operations.


The dynamic configuration has the point symmetry C_3v.
 The point group associated with its full space group is C_6v.


 Subroutine INISYM returns: Found 12 space group operations
 (whereof  6 operations are pure point group operations),
 and found     1 'primitive' translations


----------------------------------------------------------------------------------------

                                     Primitive cell                                     

  volume of cell :      76.8248

  direct lattice vectors                    reciprocal lattice vectors
     3.782624719 -0.000000000  0.000000000     0.264366696  0.152632183  0.000000000
    -1.891312360  3.275849100  0.000000000     0.000000000  0.305264366  0.000000000
     0.000000000 -0.000000000  6.199893554    -0.000000000 -0.000000000  0.161293092

  length of vectors
     3.782624719  3.782624719  6.199893554     0.305264366  0.305264366  0.161293092

  position of ions in fractional coordinates (direct lattice)
     0.666666667  0.333333333  0.500179930
     0.333333333  0.666666667  0.000179930
     0.666666667  0.333333333  0.874820070
     0.333333333  0.666666667  0.374820070

  ion indices of the primitive-cell ions
   primitive index   ion index
                 1           1
                 2           2
                 3           3
                 4           4

----------------------------------------------------------------------------------------

 
 
 KPOINTS: Num irrep kpoints: 42                   

Automatic generation of k-mesh.
 Grid dimensions read from file:
 generate k-points for:   10   10    6

 Generating k-lattice:

  Cartesian coordinates                     Fractional coordinates (reciprocal lattice)
     0.026436670  0.015263218  0.000000000     0.100000000  0.000000000  0.000000000
     0.000000000  0.030526437  0.000000000    -0.000000000  0.100000000  0.000000000
    -0.000000000 -0.000000000  0.026882182     0.000000000  0.000000000  0.166666667

  Length of vectors
     0.030526437  0.030526437  0.026882182

  Shift w.r.t. Gamma in fractional coordinates (k-lattice)
     0.000000000  0.000000000  0.500000000

 
 Subroutine IBZKPT returns following result:
 ===========================================
 
 Found     42 irreducible k-points:
 
 Following reciprocal coordinates:
            Coordinates               Weight
  0.000000  0.000000  0.083333      2.000000
  0.100000  0.000000  0.083333     12.000000
  0.200000  0.000000  0.083333     12.000000
  0.300000  0.000000  0.083333     12.000000
  0.400000  0.000000  0.083333     12.000000
  0.500000  0.000000  0.083333      6.000000
  0.100000  0.100000  0.083333     12.000000
  0.200000  0.100000  0.083333     24.000000
  0.300000  0.100000  0.083333     24.000000
  0.400000  0.100000  0.083333     24.000000
  0.200000  0.200000  0.083333     12.000000
  0.300000  0.200000  0.083333     24.000000
  0.400000  0.200000  0.083333     12.000000
  0.300000  0.300000  0.083333     12.000000
  0.000000  0.000000  0.250000      2.000000
  0.100000  0.000000  0.250000     12.000000
  0.200000  0.000000  0.250000     12.000000
  0.300000  0.000000  0.250000     12.000000
  0.400000  0.000000  0.250000     12.000000
  0.500000  0.000000  0.250000      6.000000
  0.100000  0.100000  0.250000     12.000000
  0.200000  0.100000  0.250000     24.000000
  0.300000  0.100000  0.250000     24.000000
  0.400000  0.100000  0.250000     24.000000
  0.200000  0.200000  0.250000     12.000000
  0.300000  0.200000  0.250000     24.000000
  0.400000  0.200000  0.250000     12.000000
  0.300000  0.300000  0.250000     12.000000
  0.000000  0.000000  0.416667      2.000000
  0.100000  0.000000  0.416667     12.000000
  0.200000  0.000000  0.416667     12.000000
  0.300000  0.000000  0.416667     12.000000
  0.400000  0.000000  0.416667     12.000000
  0.500000  0.000000  0.416667      6.000000
  0.100000  0.100000  0.416667     12.000000
  0.200000  0.100000  0.416667     24.000000
  0.300000  0.100000  0.416667     24.000000
  0.400000  0.100000  0.416667     24.000000
  0.200000  0.200000  0.416667     12.000000
  0.300000  0.200000  0.416667     24.000000
  0.400000  0.200000  0.416667     12.000000
  0.300000  0.300000  0.416667     12.000000
 
 Following cartesian coordinates:
            Coordinates               Weight
  0.000000  0.000000  0.013441      2.000000
  0.026437  0.015263  0.013441     12.000000
  0.052873  0.030526  0.013441     12.000000
  0.079310  0.045790  0.013441     12.000000
  0.105747  0.061053  0.013441     12.000000
  0.132183  0.076316  0.013441      6.000000
  0.026437  0.045790  0.013441     12.000000
  0.052873  0.061053  0.013441     24.000000
  0.079310  0.076316  0.013441     24.000000
  0.105747  0.091579  0.013441     24.000000
  0.052873  0.091579  0.013441     12.000000
  0.079310  0.106843  0.013441     24.000000
  0.105747  0.122106  0.013441     12.000000
  0.079310  0.137369  0.013441     12.000000
  0.000000  0.000000  0.040323      2.000000
  0.026437  0.015263  0.040323     12.000000
  0.052873  0.030526  0.040323     12.000000
  0.079310  0.045790  0.040323     12.000000
  0.105747  0.061053  0.040323     12.000000
  0.132183  0.076316  0.040323      6.000000
  0.026437  0.045790  0.040323     12.000000
  0.052873  0.061053  0.040323     24.000000
  0.079310  0.076316  0.040323     24.000000
  0.105747  0.091579  0.040323     24.000000
  0.052873  0.091579  0.040323     12.000000
  0.079310  0.106843  0.040323     24.000000
  0.105747  0.122106  0.040323     12.000000
  0.079310  0.137369  0.040323     12.000000
  0.000000  0.000000  0.067205      2.000000
  0.026437  0.015263  0.067205     12.000000
  0.052873  0.030526  0.067205     12.000000
  0.079310  0.045790  0.067205     12.000000
  0.105747  0.061053  0.067205     12.000000
  0.132183  0.076316  0.067205      6.000000
  0.026437  0.045790  0.067205     12.000000
  0.052873  0.061053  0.067205     24.000000
  0.079310  0.076316  0.067205     24.000000
  0.105747  0.091579  0.067205     24.000000
  0.052873  0.091579  0.067205     12.000000
  0.079310  0.106843  0.067205     24.000000
  0.105747  0.122106  0.067205     12.000000
  0.079310  0.137369  0.067205     12.000000
 


--------------------------------------------------------------------------------------------------------




 Dimension of arrays:
   k-points           NKPTS =     42   k-points in BZ     NKDIM =     42   number of bands    NBANDS=     22
   number of dos      NEDOS =    301   number of ions     NIONS =      4
   non local maximal  LDIM  =      6   non local SUM 2l+1 LMDIM =     18
   total plane-waves  NPLWV =   9720
   max r-space proj   IRMAX =      1   max aug-charges    IRDMAX=   4185
   dimension x,y,z NGX =    18 NGY =   18 NGZ =   30
   dimension x,y,z NGXF=    36 NGYF=   36 NGZF=   60
   support grid    NGXF=    36 NGYF=   36 NGZF=   60
   ions per type =               2   2
   NGX,Y,Z   is equivalent  to a cutoff of   7.91,  7.91,  8.04 a.u.
   NGXF,Y,Z  is equivalent  to a cutoff of  15.82, 15.82, 16.09 a.u.

 SYSTEM =  unknown system                          
 POSCAR =  Zn2 S2                                  

 Startparameter for this run:
   NWRITE =      2    write-flag & timer
   PREC   = normal    normal or accurate (medium, high low for compatibility)
   ISTART =      0    job   : 0-new  1-cont  2-samecut
   ICHARG =      2    charge: 1-file 2-atom 10-const
   ISPIN  =      1    spin polarized calculation?
   LNONCOLLINEAR =      F non collinear calculations
   LSORBIT =      F    spin-orbit coupling
   INIWAV =      1    electr: 0-lowe 1-rand  2-diag
   LASPH  =      T    aspherical Exc in radial PAW
 Electronic Relaxation 1
   ENCUT  =  359.7 eV  26.44 Ry    5.14 a.u.   5.85  5.85  9.59*2*pi/ulx,y,z
   ENINI  =  359.7     initial cutoff
   ENAUG  =  575.9 eV  augmentation charge cutoff
   NELM   =    100;   NELMIN=  2; NELMDL=  0     # of ELM steps 
   EDIFF  = 0.1E-06   stopping-criterion for ELM
   LREAL  =      F    real-space projection
   NLSPLINE    = F    spline interpolate recip. space projectors
   LCOMPAT=      F    compatible to vasp.4.4
   GGA_COMPAT  = T    GGA compatible to vasp.4.4-vasp.4.6
   LMAXPAW     = -100 max onsite density
   LMAXMIX     =    2 max onsite mixed and CHGCAR
   VOSKOWN=      0    Vosko Wilk Nusair interpolation
   ROPT   =    0.00000   0.00000
 Ionic relaxation
   EDIFFG = -.5E-02   stopping-criterion for IOM
   NSW    =    100    number of steps for IOM
   NBLOCK =      1;   KBLOCK =    100    inner block; outer block 
   IBRION =      2    ionic relax: 0-MD 1-quasi-New 2-CG
   NFREE  =      1    steps in history (QN), initial steepest desc. (CG)
   ISIF   =      3    stress and relaxation
   IWAVPR =     11    prediction:  0-non 1-charg 2-wave 3-comb
   ISYM   =      2    0-nonsym 1-usesym 2-fastsym
   LCORR  =      T    Harris-Foulkes like correction to forces

   POTIM  = 0.5000    time-step for ionic-motion
   TEIN   =    0.0    initial temperature
   TEBEG  =    0.0;   TEEND  =   0.0 temperature during run
   SMASS  =  -3.00    Nose mass-parameter (am)
   estimated Nose-frequenzy (Omega)   =  0.10E-29 period in steps = 0.13E+47 mass=  -0.327E-27a.u.
   SCALEE = 1.0000    scale energy and forces
   NPACO  =    256;   APACO  = 10.0  distance and # of slots for P.C.
   PSTRESS=    0.0 pullay stress

  Mass of Ions in am
   POMASS =  65.39 32.07
  Ionic Valenz
   ZVAL   =  12.00  6.00
  Atomic Wigner-Seitz radii
   RWIGS  =  -1.00 -1.00
  virtual crystal weights 
   VCA    =   1.00  1.00
   NELECT =      36.0000    total number of electrons
   NUPDOWN=      -1.0000    fix difference up-down

 DOS related values:
   EMIN   =  10.00;   EMAX   =-10.00  energy-range for DOS
   EFERMI =   0.00;   METHOD = LEGACY      
   ISMEAR =     0;   SIGMA  =   0.10  broadening in eV -4-tet -1-fermi 0-gaus
   EFERMI_NEDOS =   21; number of points for ismear=-14 and -15

 Electronic relaxation 2 (details)
   IALGO  =     38    algorithm
   LDIAG  =      T    sub-space diagonalisation (order eigenvalues)
   LSUBROT=      F    optimize rotation matrix (better conditioning)
   LROBUST=      F    robust break criterion during scf (extrapolated energy error)
   ISEARCH=      0    line search for conjugate gradient (0, 1=use gradient)
   TURBO    =      0    0=normal 1=particle mesh
   IRESTART =      0    0=no restart 2=restart with 2 vectors
   NREBOOT  =      0    no. of reboots
   NMIN     =      0    reboot dimension
   EREF     =   0.00    reference energy to select bands
   IMIX   =      4    mixing-type and parameters
     AMIX     =   0.40;   BMIX     =  1.00
     AMIX_MAG =   1.60;   BMIX_MAG =  1.00
     AMIN     =   0.10
     WC   =   100.;   INIMIX=   1;  MIXPRE=   1;  MAXMIX= -45

 Intra band minimization:
   WEIMIN = 0.0010     energy-eigenvalue tresh-hold
   EBREAK =  0.11E-08  absolut break condition
   DEPER  =   0.30     relativ break condition  

   TIME   =   0.40     timestep for ELM

  volume/ion in A,a.u.               =      19.21       129.61
  Fermi-wavevector in a.u.,A,eV,Ry     =   1.271575  2.402928 21.999290  1.616902
  Thomas-Fermi vector in A             =   2.404500
 
 Write flags
   LWAVE        =      F    write WAVECAR
   LDOWNSAMPLE  =      F    k-point downsampling of WAVECAR
   LCHARG       =      F    write CHGCAR
   LVTOT        =      F    write LOCPOT, total local potential
   LVHAR        =      F    write LOCPOT, Hartree potential only
   WRT_POTENTIAL= false  ! write potential to hdf5 file
   LELF         =      F    write electronic localiz. function (ELF)
   LORBIT       =     10    0 simple, 1 ext, 2 COOP (PROOUT), +10 PAW based schemes


 Python interface
   PLUGINS active      =      F    recompile with -DPLUGINS to activate
 
 Dipole corrections
   LMONO      =      F    monopole corrections only (constant potential shift)
   LDIPOL     =      F    correct potential (dipole corrections)
   IDIPOL     =      0    1-x, 2-y, 3-z, 4-all directions 
   EPSILON    =  1.0000000 bulk dielectric constant
   LVACPOTAV  =      F  vacuum potentials using an averaging scheme for the charge density
   VACPOTFLAT =  0.1000000 required flatness to determine vacuum potential
 
Coulomb truncation method
  LTRUNCATE          =      F  Coulomb kernel truncation to be used

 
 Exchange correlation treatment:
   GGA     = PS    functional components
   XC_C    = 1    coefficients multiplying the functional components
   LIBXC   =     F    Libxc                    
   VOSKOWN =     0    Vosko Wilk Nusair interpolation
   LHFCALC =     F    Hartree Fock is set to
   LHFONE  =     F    Hartree Fock one center treatment
   AEXX    =    0.0000 exact exchange contribution

 Parameters of functionals:
   PS:
     No parameter
 
 Van der Waals corrections
   IVDW    =     0    specifies the selected vdW correction

 Linear response parameters
   LEPSILON=     F    determine dielectric tensor
   LRPA    =     F    only Hartree local field effects (RPA)
   LNABLA  =     F    use nabla operator in PAW spheres
   LVEL    =     F    velocity operator in full k-point grid
   CSHIFT  =0.1000    complex shift for real part using Kramers Kronig
   OMEGAMAX=  -1.0    maximum frequency
   DEG_THRESHOLD= 0.2000000E-02 threshold for treating states as degnerate
   RTIME   =   -0.100 relaxation time in fs
  (WPLASMAI=    0.000 imaginary part of plasma frequency in eV, 0.658/RTIME)
   DFIELD  = 0.0000000 0.0000000 0.0000000 field for delta impulse in time
 
  Optional k-point grid parameters
   LKPOINTS_OPT  =     F    use optional k-point grid
   KPOINTS_OPT_MODE=     1    mode for optional k-point grid
 
 Orbital magnetization related:
   ORBITALMAG=     F  switch on orbital magnetization
   LCHIMAG   =     F  perturbation theory with respect to B field
   DQ        =  0.001000  dq finite difference perturbation B field
   LLRAUG    =     F  two centre corrections for induced B field
   LBONE     =     F  B-component reconstruction in AE one-centre
   LVGVCALC  =     T  calculate vGv susceptibility
   LVGVAPPL  =     F  apply vGv susceptibility instead of pGv for G=0

 Random number generation:
   RANDOM_GENERATOR = DEFAULT
   PCG_SEED         = not used


--------------------------------------------------------------------------------------------------------


 conjugate gradient relaxation of ions
 charge density and potential will be updated during run
 non-spin polarized calculation
 Variant of blocked Davidson
 Davidson routine will perform the subspace rotation
 perform sub-space diagonalisation
    after iterative eigenvector-optimisation
 modified Broyden-mixing scheme, WC =      100.0
 initial mixing is a Kerker type mixing with AMIX =  0.4000 and BMIX =      1.0000
 Hartree-type preconditioning will be used
 using additional bands             4
 reciprocal scheme for non local part
 use partial core corrections
 calculate Harris-corrections to forces 
   (improved forces if not selfconsistent)
 use gradient corrections 
 use of overlap-Matrix (Vanderbilt PP)
 Gauss-broadening in eV      SIGMA  =   0.10


--------------------------------------------------------------------------------------------------------


  energy-cutoff  :      359.74
  volume of cell :       76.82
      direct lattice vectors                 reciprocal lattice vectors
     3.782624719 -0.000000000  0.000000000     0.264366696  0.152632183  0.000000000
    -1.891312360  3.275849100  0.000000000     0.000000000  0.305264366  0.000000000
     0.000000000 -0.000000000  6.199893554    -0.000000000 -0.000000000  0.161293092

  length of vectors
     3.782624719  3.782624719  6.199893554     0.305264366  0.305264366  0.161293092


 
 k-points in units of 2pi/SCALE and weight: Num irrep kpoints: 42                   
   0.00000000  0.00000000  0.01344109       0.003
   0.02643667  0.01526322  0.01344109       0.020
   0.05287334  0.03052644  0.01344109       0.020
   0.07931001  0.04578965  0.01344109       0.020
   0.10574668  0.06105287  0.01344109       0.020
   0.13218335  0.07631609  0.01344109       0.010
   0.02643667  0.04578965  0.01344109       0.020
   0.05287334  0.06105287  0.01344109       0.040
   0.07931001  0.07631609  0.01344109       0.040
   0.10574668  0.09157931  0.01344109       0.040
   0.05287334  0.09157931  0.01344109       0.020
   0.07931001  0.10684253  0.01344109       0.040
   0.10574668  0.12210575  0.01344109       0.020
   0.07931001  0.13736896  0.01344109       0.020
   0.00000000  0.00000000  0.04032327       0.003
   0.02643667  0.01526322  0.04032327       0.020
   0.05287334  0.03052644  0.04032327       0.020
   0.07931001  0.04578965  0.04032327       0.020
   0.10574668  0.06105287  0.04032327       0.020
   0.13218335  0.07631609  0.04032327       0.010
   0.02643667  0.04578965  0.04032327       0.020
   0.05287334  0.06105287  0.04032327       0.040
   0.07931001  0.07631609  0.04032327       0.040
   0.10574668  0.09157931  0.04032327       0.040
   0.05287334  0.09157931  0.04032327       0.020
   0.07931001  0.10684253  0.04032327       0.040
   0.10574668  0.12210575  0.04032327       0.020
   0.07931001  0.13736896  0.04032327       0.020
   0.00000000  0.00000000  0.06720545       0.003
   0.02643667  0.01526322  0.06720545       0.020
   0.05287334  0.03052644  0.06720545       0.020
   0.07931001  0.04578965  0.06720545       0.020
   0.10574668  0.06105287  0.06720545       0.020
   0.13218335  0.07631609  0.06720545       0.010
   0.02643667  0.04578965  0.06720545       0.020
   0.05287334  0.06105287  0.06720545       0.040
   0.07931001  0.07631609  0.06720545       0.040
   0.10574668  0.09157931  0.06720545       0.040
   0.05287334  0.09157931  0.06720545       0.020
   0.07931001  0.10684253  0.06720545       0.040
   0.10574668  0.12210575  0.06720545       0.020
   0.07931001  0.13736896  0.06720545       0.020
 
 k-points in reciprocal lattice and weights: Num irrep kpoints: 42                   
   0.00000000  0.00000000  0.08333333       0.003
   0.10000000  0.00000000  0.08333333       0.020
   0.20000000  0.00000000  0.08333333       0.020
   0.30000000  0.00000000  0.08333333       0.020
   0.40000000  0.00000000  0.08333333       0.020
   0.50000000  0.00000000  0.08333333       0.010
   0.10000000  0.10000000  0.08333333       0.020
   0.20000000  0.10000000  0.08333333       0.040
   0.30000000  0.10000000  0.08333333       0.040
   0.40000000  0.10000000  0.08333333       0.040
   0.20000000  0.20000000  0.08333333       0.020
   0.30000000  0.20000000  0.08333333       0.040
   0.40000000  0.20000000  0.08333333       0.020
   0.30000000  0.30000000  0.08333333       0.020
   0.00000000  0.00000000  0.25000000       0.003
   0.10000000  0.00000000  0.25000000       0.020
   0.20000000  0.00000000  0.25000000       0.020
   0.30000000  0.00000000  0.25000000       0.020
   0.40000000  0.00000000  0.25000000       0.020
   0.50000000  0.00000000  0.25000000       0.010
   0.10000000  0.10000000  0.25000000       0.020
   0.20000000  0.10000000  0.25000000       0.040
   0.30000000  0.10000000  0.25000000       0.040
   0.40000000  0.10000000  0.25000000       0.040
   0.20000000  0.20000000  0.25000000       0.020
   0.30000000  0.20000000  0.25000000       0.040
   0.40000000  0.20000000  0.25000000       0.020
   0.30000000  0.30000000  0.25000000       0.020
   0.00000000  0.00000000  0.41666667       0.003
   0.10000000  0.00000000  0.41666667       0.020
   0.20000000  0.00000000  0.41666667       0.020
   0.30000000  0.00000000  0.41666667       0.020
   0.40000000  0.00000000  0.41666667       0.020
   0.50000000  0.00000000  0.41666667       0.010
   0.10000000  0.10000000  0.41666667       0.020
   0.20000000  0.10000000  0.41666667       0.040
   0.30000000  0.10000000  0.41666667       0.040
   0.40000000  0.10000000  0.41666667       0.040
   0.20000000  0.20000000  0.41666667       0.020
   0.30000000  0.20000000  0.41666667       0.040
   0.40000000  0.20000000  0.41666667       0.020
   0.30000000  0.30000000  0.41666667       0.020
 
 position of ions in fractional coordinates (direct lattice) 
   0.66666667  0.33333333  0.50017993
   0.33333333  0.66666667  0.00017993
   0.66666667  0.33333333  0.87482007
   0.33333333  0.66666667  0.37482007
 
 position of ions in cartesian coordinates  (Angst):
   1.89131236  1.09194970  3.10106232
  -0.00000000  2.18389940  0.00111555
   1.89131236  1.09194970  5.42379131
  -0.00000000  2.18389940  2.32384454
 


--------------------------------------------------------------------------------------------------------


 k-point     1 :   0.0000 0.0000 0.0833  plane waves:    1177
 k-point     2 :   0.1000 0.0000 0.0833  plane waves:    1176
 k-point     3 :   0.2000 0.0000 0.0833  plane waves:    1189
 k-point     4 :   0.3000 0.0000 0.0833  plane waves:    1192
 k-point     5 :   0.4000 0.0000 0.0833  plane waves:    1195
 k-point     6 :   0.5000 0.0000 0.0833  plane waves:    1208
 k-point     7 :   0.1000 0.1000 0.0833  plane waves:    1188
 k-point     8 :   0.2000 0.1000 0.0833  plane waves:    1192
 k-point     9 :   0.3000 0.1000 0.0833  plane waves:    1197
 k-point    10 :   0.4000 0.1000 0.0833  plane waves:    1195
 k-point    11 :   0.2000 0.2000 0.0833  plane waves:    1196
 k-point    12 :   0.3000 0.2000 0.0833  plane waves:    1193
 k-point    13 :   0.4000 0.2000 0.0833  plane waves:    1189
 k-point    14 :   0.3000 0.3000 0.0833  plane waves:    1187
 k-point    15 :   0.0000 0.0000 0.2500  plane waves:    1177
 k-point    16 :   0.1000 0.0000 0.2500  plane waves:    1183
 k-point    17 :   0.2000 0.0000 0.2500  plane waves:    1187
 k-point    18 :   0.3000 0.0000 0.2500  plane waves:    1189
 k-point    19 :   0.4000 0.0000 0.2500  plane waves:    1196
 k-point    20 :   0.5000 0.0000 0.2500  plane waves:    1188
 k-point    21 :   0.1000 0.1000 0.2500  plane waves:    1183
 k-point    22 :   0.2000 0.1000 0.2500  plane waves:    1189
 k-point    23 :   0.3000 0.1000 0.2500  plane waves:    1194
 k-point    24 :   0.4000 0.1000 0.2500  plane waves:    1193
 k-point    25 :   0.2000 0.2000 0.2500  plane waves:    1198
 k-point    26 :   0.3000 0.2000 0.2500  plane waves:    1192
 k-point    27 :   0.4000 0.2000 0.2500  plane waves:    1187
 k-point    28 :   0.3000 0.3000 0.2500  plane waves:    1190
 k-point    29 :   0.0000 0.0000 0.4167  plane waves:    1190
 k-point    30 :   0.1000 0.0000 0.4167  plane waves:    1188
 k-point    31 :   0.2000 0.0000 0.4167  plane waves:    1175
 k-point    32 :   0.3000 0.0000 0.4167  plane waves:    1191
 k-point    33 :   0.4000 0.0000 0.4167  plane waves:    1197
 k-point    34 :   0.5000 0.0000 0.4167  plane waves:    1184
 k-point    35 :   0.1000 0.1000 0.4167  plane waves:    1177
 k-point    36 :   0.2000 0.1000 0.4167  plane waves:    1186
 k-point    37 :   0.3000 0.1000 0.4167  plane waves:    1187
 k-point    38 :   0.4000 0.1000 0.4167  plane waves:    1193
 k-point    39 :   0.2000 0.2000 0.4167  plane waves:    1180
 k-point    40 :   0.3000 0.2000 0.4167  plane waves:    1196
 k-point    41 :   0.4000 0.2000 0.4167  plane waves:    1197
 k-point    42 :   0.3000 0.3000 0.4167  plane waves:    1193

 maximum and minimum number of plane-waves per node :      1208     1175

 maximum number of plane-waves:      1208
 maximum index in each direction: 
   IXMAX=    5   IYMAX=    5   IZMAX=    9
   IXMIN=   -6   IYMIN=   -6   IZMIN=  -10


 serial   3D FFT for wavefunctions
 parallel 3D FFT for charge:
    minimum data exchange during FFTs selected (reduces bandwidth)


 total amount of memory used by VASP MPI-rank0    58068. kBytes
=======================================================================

   base                                    :      30000. kBytes
   nonl-proj                               :      14689. kBytes
   fftplans                                :       1381. kBytes
   grid                                    :       2623. kBytes
   one-center                              :         62. kBytes
   wavefun                                 :       9313. kBytes
 
     INWAV:  cpu time      0.0001: real time      0.0002
 Broyden mixing: mesh for mixing (old mesh)
   NGX = 11   NGY = 11   NGZ = 19
  (NGX  = 36   NGY  = 36   NGZ  = 60)
  gives a total of   2299 points

 initial charge density was supplied:
 charge density of overlapping atoms calculated
 number of electron      36.0000000 magnetization 
 keeping initial charge density in first step


--------------------------------------------------------------------------------------------------------


 Maximum index for augmentation-charges          1946 (set IRDMAX)


--------------------------------------------------------------------------------------------------------


 First call to EWALD:  gamma=   0.417
 Maximum number of real-space cells   3x   3x   2
 Maximum number of reciprocal cells   3x   3x   4

    FEWALD:  cpu time      0.0009: real time      0.0020


--------------------------------------- Ionic step        1  -------------------------------------------




--------------------------------------- Iteration      1(   1)  ---------------------------------------


    POTLOK:  cpu time      0.4292: real time      0.5252
    SETDIJ:  cpu time      0.0759: real time      0.0854
     EDDAV:  cpu time      0.8662: real time      2.5493
       DOS:  cpu time      0.0007: real time      0.0058
    --------------------------------------------
      LOOP:  cpu time      1.3720: real time      3.1670

 eigenvalue-minimisations  :  1848
 total energy-change (2. order) : 0.2033063E+03  (-0.1435182E+04)
 number of electron      36.0000000 magnetization 
 augmentation part       36.0000000 magnetization 

 Free energy of the ion-electron system (eV)
  ---------------------------------------------------
  alpha Z        PSCENC =       147.19195551
  Ewald energy   TEWEN  =     -2526.24305902
  -Hartree energ DENC   =     -1371.25645802
  -exchange      EXHF   =         0.00000000
  -V(xc)+E(xc)   XCENC  =       140.98162569
  PAW double counting   =      3343.44361914    -3692.01684003
  entropy T*S    EENTRO =        -0.00773959
  eigenvalues    EBANDS =       113.11118603
  atomic energy  EATOM  =      4048.10203383
  Solvation  Ediel_sol  =         0.00000000
  ---------------------------------------------------
  free energy    TOTEN  =       203.30632354 eV

  energy without entropy =      203.31406313  energy(sigma->0) =      203.31019333


--------------------------------------------------------------------------------------------------------




--------------------------------------- Iteration      1(   2)  ---------------------------------------


     EDDAV:  cpu time      0.7205: real time      0.7242
       DOS:  cpu time      0.0005: real time      0.0005
    --------------------------------------------
      LOOP:  cpu time      0.7210: real time      0.7234

 eigenvalue-minimisations  :  1980
 total energy-change (2. order) :-0.2016556E+03  (-0.1971488E+03)
 number of electron      36.0000000 magnetization 
 augmentation part       36.0000000 magnetization 

 Free energy of the ion-electron system (eV)
  ---------------------------------------------------
  alpha Z        PSCENC =       147.19195551
  Ewald energy   TEWEN  =     -2526.24305902
  -Hartree energ DENC   =     -1371.25645802
  -exchange      EXHF   =         0.00000000
  -V(xc)+E(xc)   XCENC  =       140.98162569
  PAW double counting   =      3343.44361914    -3692.01684003
  entropy T*S    EENTRO =        -0.00070672
  eigenvalues    EBANDS =       -88.55144112
  atomic energy  EATOM  =      4048.10203383
  Solvation  Ediel_sol  =         0.00000000
  ---------------------------------------------------
  free energy    TOTEN  =         1.65072926 eV

  energy without entropy =        1.65143598  energy(sigma->0) =        1.65108262


--------------------------------------------------------------------------------------------------------




--------------------------------------- Iteration      1(   3)  ---------------------------------------


     EDDAV:  cpu time      0.7898: real time      0.7920
       DOS:  cpu time      0.0005: real time      0.0005
    --------------------------------------------
      LOOP:  cpu time      0.7903: real time      0.7925

 eigenvalue-minimisations  :  2238
 total energy-change (2. order) :-0.1727294E+02  (-0.1719063E+02)
 number of electron      36.0000000 magnetization 
 augmentation part       36.0000000 magnetization 

 Free energy of the ion-electron system (eV)
  ---------------------------------------------------
  alpha Z        PSCENC =       147.19195551
  Ewald energy   TEWEN  =     -2526.24305902
  -Hartree energ DENC   =     -1371.25645802
  -exchange      EXHF   =         0.00000000
  -V(xc)+E(xc)   XCENC  =       140.98162569
  PAW double counting   =      3343.44361914    -3692.01684003
  entropy T*S    EENTRO =        -0.00000000
  eigenvalues    EBANDS =      -105.82508605
  atomic energy  EATOM  =      4048.10203383
  Solvation  Ediel_sol  =         0.00000000
  ---------------------------------------------------
  free energy    TOTEN  =       -15.62220896 eV

  energy without entropy =      -15.62220896  energy(sigma->0) =      -15.62220896


--------------------------------------------------------------------------------------------------------




--------------------------------------- Iteration      1(   4)  ---------------------------------------


     EDDAV:  cpu time      0.7731: real time      0.7753
       DOS:  cpu time      0.0005: real time      0.0005
    --------------------------------------------
      LOOP:  cpu time      0.7735: real time      0.7757

 eigenvalue-minimisations  :  2178
 total energy-change (2. order) :-0.3479031E+00  (-0.3476289E+00)
 number of electron      36.0000000 magnetization 
 augmentation part       36.0000000 magnetization 

 Free energy of the ion-electron system (eV)
  ---------------------------------------------------
  alpha Z        PSCENC =       147.19195551
  Ewald energy   TEWEN  =     -2526.24305902
  -Hartree energ DENC   =     -1371.25645802
  -exchange      EXHF   =         0.00000000
  -V(xc)+E(xc)   XCENC  =       140.98162569
  PAW double counting   =      3343.44361914    -3692.01684003
  entropy T*S    EENTRO =        -0.00000000
  eigenvalues    EBANDS =      -106.17298911
  atomic energy  EATOM  =      4048.10203383
  Solvation  Ediel_sol  =         0.00000000
  ---------------------------------------------------
  free energy    TOTEN  =       -15.97011202 eV

  energy without entropy =      -15.97011202  energy(sigma->0) =      -15.97011202


--------------------------------------------------------------------------------------------------------




--------------------------------------- Iteration      1(   5)  ---------------------------------------


     EDDAV:  cpu time      0.7921: real time      0.7943
       DOS:  cpu time      0.0005: real time      0.0005
    CHARGE:  cpu time      0.0552: real time      0.0612
    MIXING:  cpu time      0.0007: real time      0.0007
    --------------------------------------------
      LOOP:  cpu time      0.8485: real time      0.8566

 eigenvalue-minimisations  :  2254
 total energy-change (2. order) :-0.6934353E-02  (-0.6933605E-02)
 number of electron      36.0000288 magnetization 
 augmentation part       14.1857631 magnetization 

 Broyden mixing:
  rms(total) = 0.99566E+00    rms(broyden)= 0.99561E+00
  rms(prec ) = 0.12252E+01
  weight for this iteration     100.00

 Free energy of the ion-electron system (eV)
  ---------------------------------------------------
  alpha Z        PSCENC =       147.19195551
  Ewald energy   TEWEN  =     -2526.24305902
  -Hartree energ DENC   =     -1371.25645802
  -exchange      EXHF   =         0.00000000
  -V(xc)+E(xc)   XCENC  =       140.98162569
  PAW double counting   =      3343.44361914    -3692.01684003
  entropy T*S    EENTRO =        -0.00000000
  eigenvalues    EBANDS =      -106.17992347
  atomic energy  EATOM  =      4048.10203383
  Solvation  Ediel_sol  =         0.00000000
  ---------------------------------------------------
  free energy    TOTEN  =       -15.97704637 eV

  energy without entropy =      -15.97704637  energy(sigma->0) =      -15.97704637


--------------------------------------------------------------------------------------------------------




--------------------------------------- Iteration      1(   6)  ---------------------------------------


    POTLOK:  cpu time      0.0037: real time      0.0037
    SETDIJ:  cpu time      0.0753: real time      0.0755
     EDDAV:  cpu time      0.8864: real time      0.8889
       DOS:  cpu time      0.0005: real time      0.0005
    CHARGE:  cpu time      0.0538: real time      0.0540
    MIXING:  cpu time      0.0008: real time      0.0021
    --------------------------------------------
      LOOP:  cpu time      1.0205: real time      1.0247

 eigenvalue-minimisations  :  2618
 total energy-change (2. order) : 0.8258282E+00  (-0.2177375E+00)
 number of electron      36.0000290 magnetization 
 augmentation part       14.4282220 magnetization 

 Broyden mixing:
  rms(total) = 0.76831E+00    rms(broyden)= 0.76830E+00
  rms(prec ) = 0.81626E+00
  weight for this iteration     100.00

 eigenvalues of (default mixing * dielectric matrix)
  average eigenvalue GAMMA=   2.0940
  2.0940

 Free energy of the ion-electron system (eV)
  ---------------------------------------------------
  alpha Z        PSCENC =       147.19195551
  Ewald energy   TEWEN  =     -2526.24305902
  -Hartree energ DENC   =     -1355.24413981
  -exchange      EXHF   =         0.00000000
  -V(xc)+E(xc)   XCENC  =       140.74730337
  PAW double counting   =      3616.73054055    -3959.62466533
  entropy T*S    EENTRO =        -0.00000000
  eigenvalues    EBANDS =      -126.81118728
  atomic energy  EATOM  =      4048.10203383
  Solvation  Ediel_sol  =         0.00000000
  ---------------------------------------------------
  free energy    TOTEN  =       -15.15121818 eV

  energy without entropy =      -15.15121818  energy(sigma->0) =      -15.15121818


--------------------------------------------------------------------------------------------------------




--------------------------------------- Iteration      1(   7)  ---------------------------------------


    POTLOK:  cpu time      0.0035: real time      0.0035
    SETDIJ:  cpu time      0.0747: real time      0.0749
     EDDAV:  cpu time      0.7124: real time      0.7144
       DOS:  cpu time      0.0005: real time      0.0005
    CHARGE:  cpu time      0.0535: real time      0.0537
    MIXING:  cpu time      0.0008: real time      0.0030
    --------------------------------------------
      LOOP:  cpu time      0.8453: real time      0.8499

 eigenvalue-minimisations  :  1956
 total energy-change (2. order) :-0.3270234E-01  (-0.1941719E+00)
 number of electron      36.0000288 magnetization 
 augmentation part       14.4318774 magnetization 

 Broyden mixing:
  rms(total) = 0.32737E+00    rms(broyden)= 0.32737E+00
  rms(prec ) = 0.35198E+00
  weight for this iteration     100.00

 eigenvalues of (default mixing * dielectric matrix)
  average eigenvalue GAMMA=   1.6975
  0.9190  2.4760

 Free energy of the ion-electron system (eV)
  ---------------------------------------------------
  alpha Z        PSCENC =       147.19195551
  Ewald energy   TEWEN  =     -2526.24305902
  -Hartree energ DENC   =     -1357.18273699
  -exchange      EXHF   =         0.00000000
  -V(xc)+E(xc)   XCENC  =       141.16418672
  PAW double counting   =      3998.65930478    -4346.83496472
  entropy T*S    EENTRO =        -0.00000000
  eigenvalues    EBANDS =      -120.04064062
  atomic energy  EATOM  =      4048.10203383
  Solvation  Ediel_sol  =         0.00000000
  ---------------------------------------------------
  free energy    TOTEN  =       -15.18392052 eV

  energy without entropy =      -15.18392052  energy(sigma->0) =      -15.18392052


--------------------------------------------------------------------------------------------------------




--------------------------------------- Iteration      1(   8)  ---------------------------------------


    POTLOK:  cpu time      0.0035: real time      0.0035
    SETDIJ:  cpu time      0.0750: real time      0.0752
     EDDAV:  cpu time      0.8688: real time      0.8712
       DOS:  cpu time      0.0005: real time      0.0005
    CHARGE:  cpu time      0.0535: real time      0.0536
    MIXING:  cpu time      0.0006: real time      0.0006
    --------------------------------------------
      LOOP:  cpu time      1.0019: real time      1.0046

 eigenvalue-minimisations  :  2556
 total energy-change (2. order) : 0.2068110E-01  (-0.9498457E-02)
 number of electron      36.0000288 magnetization 
 augmentation part       14.4051781 magnetization 

 Broyden mixing:
  rms(total) = 0.10535E+00    rms(broyden)= 0.10535E+00
  rms(prec ) = 0.11405E+00
  weight for this iteration     100.00

 eigenvalues of (default mixing * dielectric matrix)
  average eigenvalue GAMMA=   1.5612
  2.4297  1.1270  1.1270

 Free energy of the ion-electron system (eV)
  ---------------------------------------------------
  alpha Z        PSCENC =       147.19195551
  Ewald energy   TEWEN  =     -2526.24305902
  -Hartree energ DENC   =     -1356.32742940
  -exchange      EXHF   =         0.00000000
  -V(xc)+E(xc)   XCENC  =       141.08740458
  PAW double counting   =      4203.06741196    -4552.68577768
  entropy T*S    EENTRO =        -0.00000000
  eigenvalues    EBANDS =      -119.35577919
  atomic energy  EATOM  =      4048.10203383
  Solvation  Ediel_sol  =         0.00000000
  ---------------------------------------------------
  free energy    TOTEN  =       -15.16323941 eV

  energy without entropy =      -15.16323941  energy(sigma->0) =      -15.16323941


--------------------------------------------------------------------------------------------------------




--------------------------------------- Iteration      1(   9)  ---------------------------------------


    POTLOK:  cpu time      0.0034: real time      0.0034
    SETDIJ:  cpu time      0.0748: real time      0.0750
     EDDAV:  cpu time      0.8670: real time      0.8695
       DOS:  cpu time      0.0005: real time      0.0005
    CHARGE:  cpu time      0.0534: real time      0.0536
    MIXING:  cpu time      0.0006: real time      0.0006
    --------------------------------------------
      LOOP:  cpu time      0.9998: real time      1.0026

 eigenvalue-minimisations  :  2542
 total energy-change (2. order) : 0.5477053E-03  (-0.2288848E-02)
 number of electron      36.0000289 magnetization 
 augmentation part       14.4161315 magnetization 

 Broyden mixing:
  rms(total) = 0.25328E-01    rms(broyden)= 0.25327E-01
  rms(prec ) = 0.26046E-01
  weight for this iteration     100.00

 eigenvalues of (default mixing * dielectric matrix)
  average eigenvalue GAMMA=   1.2674
  2.3712  1.1181  1.1181  0.4622

 Free energy of the ion-electron system (eV)
  ---------------------------------------------------
  alpha Z        PSCENC =       147.19195551
  Ewald energy   TEWEN  =     -2526.24305902
  -Hartree energ DENC   =     -1354.50637966
  -exchange      EXHF   =         0.00000000
  -V(xc)+E(xc)   XCENC  =       141.02982071
  PAW double counting   =      4322.17231191    -4671.66707410
  entropy T*S    EENTRO =        -0.00000000
  eigenvalues    EBANDS =      -121.24230088
  atomic energy  EATOM  =      4048.10203383
  Solvation  Ediel_sol  =         0.00000000
  ---------------------------------------------------
  free energy    TOTEN  =       -15.16269171 eV

  energy without entropy =      -15.16269171  energy(sigma->0) =      -15.16269171


--------------------------------------------------------------------------------------------------------




--------------------------------------- Iteration      1(  10)  ---------------------------------------


    POTLOK:  cpu time      0.0035: real time      0.0035
    SETDIJ:  cpu time      0.0749: real time      0.0751
     EDDAV:  cpu time      0.7619: real time      0.7641
       DOS:  cpu time      0.0005: real time      0.0005
    CHARGE:  cpu time      0.0534: real time      0.0536
    MIXING:  cpu time      0.0007: real time      0.0007
    --------------------------------------------
      LOOP:  cpu time      0.8949: real time      0.8974

 eigenvalue-minimisations  :  2142
 total energy-change (2. order) :-0.1195704E-03  (-0.1197364E-03)
 number of electron      36.0000289 magnetization 
 augmentation part       14.4149561 magnetization 

 Broyden mixing:
  rms(total) = 0.18020E-01    rms(broyden)= 0.18020E-01
  rms(prec ) = 0.18795E-01
  weight for this iteration     100.00

 eigenvalues of (default mixing * dielectric matrix)
  average eigenvalue GAMMA=   1.5746
  2.2962  2.2962  1.0440  1.0440  1.1929

 Free energy of the ion-electron system (eV)
  ---------------------------------------------------
  alpha Z        PSCENC =       147.19195551
  Ewald energy   TEWEN  =     -2526.24305902
  -Hartree energ DENC   =     -1354.65917056
  -exchange      EXHF   =         0.00000000
  -V(xc)+E(xc)   XCENC  =       141.03371008
  PAW double counting   =      4310.71007922    -4660.22933540
  entropy T*S    EENTRO =        -0.00000000
  eigenvalues    EBANDS =      -121.06902494
  atomic energy  EATOM  =      4048.10203383
  Solvation  Ediel_sol  =         0.00000000
  ---------------------------------------------------
  free energy    TOTEN  =       -15.16281128 eV

  energy without entropy =      -15.16281128  energy(sigma->0) =      -15.16281128


--------------------------------------------------------------------------------------------------------




--------------------------------------- Iteration      1(  11)  ---------------------------------------


    POTLOK:  cpu time      0.0034: real time      0.0034
    SETDIJ:  cpu time      0.0749: real time      0.0751
     EDDAV:  cpu time      0.7713: real time      0.7735
       DOS:  cpu time      0.0005: real time      0.0005
    CHARGE:  cpu time      0.0535: real time      0.0537
    MIXING:  cpu time      0.0007: real time      0.0007
    --------------------------------------------
      LOOP:  cpu time      0.9042: real time      0.9068

 eigenvalue-minimisations  :  2172
 total energy-change (2. order) :-0.1231490E-03  (-0.2091533E-04)
 number of electron      36.0000289 magnetization 
 augmentation part       14.4133884 magnetization 

 Broyden mixing:
  rms(total) = 0.66113E-02    rms(broyden)= 0.66112E-02
  rms(prec ) = 0.69247E-02
  weight for this iteration     100.00

 eigenvalues of (default mixing * dielectric matrix)
  average eigenvalue GAMMA=   1.5249
  2.6515  2.3658  1.2370  1.0357  1.0357  0.8240

 Free energy of the ion-electron system (eV)
  ---------------------------------------------------
  alpha Z        PSCENC =       147.19195551
  Ewald energy   TEWEN  =     -2526.24305902
  -Hartree energ DENC   =     -1354.91533145
  -exchange      EXHF   =         0.00000000
  -V(xc)+E(xc)   XCENC  =       141.04241852
  PAW double counting   =      4292.31692697    -4641.85844589
  entropy T*S    EENTRO =        -0.00000000
  eigenvalues    EBANDS =      -120.79943289
  atomic energy  EATOM  =      4048.10203383
  Solvation  Ediel_sol  =         0.00000000
  ---------------------------------------------------
  free energy    TOTEN  =       -15.16293443 eV

  energy without entropy =      -15.16293443  energy(sigma->0) =      -15.16293443


--------------------------------------------------------------------------------------------------------




--------------------------------------- Iteration      1(  12)  ---------------------------------------


    POTLOK:  cpu time      0.0035: real time      0.0035
    SETDIJ:  cpu time      0.0748: real time      0.0749
     EDDAV:  cpu time      0.7931: real time      0.7953
       DOS:  cpu time      0.0005: real time      0.0005
    CHARGE:  cpu time      0.0535: real time      0.0536
    MIXING:  cpu time      0.0007: real time      0.0007
    --------------------------------------------
      LOOP:  cpu time      0.9259: real time      0.9285

 eigenvalue-minimisations  :  2250
 total energy-change (2. order) :-0.2515610E-05  (-0.5493797E-05)
 number of electron      36.0000289 magnetization 
 augmentation part       14.4138152 magnetization 

 Broyden mixing:
  rms(total) = 0.20814E-02    rms(broyden)= 0.20813E-02
  rms(prec ) = 0.21644E-02
  weight for this iteration     100.00

 eigenvalues of (default mixing * dielectric matrix)
  average eigenvalue GAMMA=   1.3873
  2.6413  2.3567  1.2631  1.0409  1.0409  0.6843  0.6843

 Free energy of the ion-electron system (eV)
  ---------------------------------------------------
  alpha Z        PSCENC =       147.19195551
  Ewald energy   TEWEN  =     -2526.24305902
  -Hartree energ DENC   =     -1354.85442672
  -exchange      EXHF   =         0.00000000
  -V(xc)+E(xc)   XCENC  =       141.04156806
  PAW double counting   =      4297.80053715    -4647.35791124
  entropy T*S    EENTRO =        -0.00000000
  eigenvalues    EBANDS =      -120.84363451
  atomic energy  EATOM  =      4048.10203383
  Solvation  Ediel_sol  =         0.00000000
  ---------------------------------------------------
  free energy    TOTEN  =       -15.16293694 eV

  energy without entropy =      -15.16293694  energy(sigma->0) =      -15.16293694


--------------------------------------------------------------------------------------------------------




--------------------------------------- Iteration      1(  13)  ---------------------------------------


    POTLOK:  cpu time      0.0035: real time      0.0035
    SETDIJ:  cpu time      0.0749: real time      0.0750
     EDDAV:  cpu time      0.7727: real time      0.7750
       DOS:  cpu time      0.0005: real time      0.0005
    CHARGE:  cpu time      0.0533: real time      0.0534
    MIXING:  cpu time      0.0007: real time      0.0007
    --------------------------------------------
      LOOP:  cpu time      0.9055: real time      0.9081

 eigenvalue-minimisations  :  2178
 total energy-change (2. order) :-0.6460659E-06  (-0.4081765E-06)
 number of electron      36.0000289 magnetization 
 augmentation part       14.4137793 magnetization 

 Broyden mixing:
  rms(total) = 0.11751E-02    rms(broyden)= 0.11751E-02
  rms(prec ) = 0.12131E-02
  weight for this iteration     100.00

 eigenvalues of (default mixing * dielectric matrix)
  average eigenvalue GAMMA=   1.6394
  2.7952  2.7952  2.1232  1.3230  1.0038  1.0038  1.0657  1.0054

 Free energy of the ion-electron system (eV)
  ---------------------------------------------------
  alpha Z        PSCENC =       147.19195551
  Ewald energy   TEWEN  =     -2526.24305902
  -Hartree energ DENC   =     -1354.86275702
  -exchange      EXHF   =         0.00000000
  -V(xc)+E(xc)   XCENC  =       141.04214505
  PAW double counting   =      4297.26520895    -4646.82946739
  entropy T*S    EENTRO =        -0.00000000
  eigenvalues    EBANDS =      -120.82899750
  atomic energy  EATOM  =      4048.10203383
  Solvation  Ediel_sol  =         0.00000000
  ---------------------------------------------------
  free energy    TOTEN  =       -15.16293759 eV

  energy without entropy =      -15.16293759  energy(sigma->0) =      -15.16293759


--------------------------------------------------------------------------------------------------------




--------------------------------------- Iteration      1(  14)  ---------------------------------------


    POTLOK:  cpu time      0.0035: real time      0.0035
    SETDIJ:  cpu time      0.0751: real time      0.0753
     EDDAV:  cpu time      0.8019: real time      0.8041
       DOS:  cpu time      0.0005: real time      0.0005
    CHARGE:  cpu time      0.0535: real time      0.0537
    MIXING:  cpu time      0.0007: real time      0.0007
    --------------------------------------------
      LOOP:  cpu time      0.9351: real time      0.9377

 eigenvalue-minimisations  :  2302
 total energy-change (2. order) :-0.5736488E-06  (-0.1420035E-06)
 number of electron      36.0000289 magnetization 
 augmentation part       14.4138951 magnetization 

 Broyden mixing:
  rms(total) = 0.47782E-03    rms(broyden)= 0.47782E-03
  rms(prec ) = 0.50151E-03
  weight for this iteration     100.00

 eigenvalues of (default mixing * dielectric matrix)
  average eigenvalue GAMMA=   1.5642
  2.9864  2.4961  2.3571  1.3370  0.9255  1.0384  1.0384  0.9493  0.9493

 Free energy of the ion-electron system (eV)
  ---------------------------------------------------
  alpha Z        PSCENC =       147.19195551
  Ewald energy   TEWEN  =     -2526.24305902
  -Hartree energ DENC   =     -1354.86023016
  -exchange      EXHF   =         0.00000000
  -V(xc)+E(xc)   XCENC  =       141.04199039
  PAW double counting   =      4296.19431889    -4645.75857218
  entropy T*S    EENTRO =        -0.00000000
  eigenvalues    EBANDS =      -120.83137543
  atomic energy  EATOM  =      4048.10203383
  Solvation  Ediel_sol  =         0.00000000
  ---------------------------------------------------
  free energy    TOTEN  =       -15.16293816 eV

  energy without entropy =      -15.16293816  energy(sigma->0) =      -15.16293816


--------------------------------------------------------------------------------------------------------




--------------------------------------- Iteration      1(  15)  ---------------------------------------


    POTLOK:  cpu time      0.0035: real time      0.0035
    SETDIJ:  cpu time      0.0750: real time      0.0751
     EDDAV:  cpu time      0.7063: real time      0.7083
       DOS:  cpu time      0.0005: real time      0.0005
    CHARGE:  cpu time      0.0535: real time      0.0536
    MIXING:  cpu time      0.0007: real time      0.0007
    --------------------------------------------
      LOOP:  cpu time      0.8394: real time      0.8417

 eigenvalue-minimisations  :  1890
 total energy-change (2. order) : 0.1049618E-06  (-0.2878785E-07)
 number of electron      36.0000289 magnetization 
 augmentation part       14.4138409 magnetization 

 Broyden mixing:
  rms(total) = 0.17838E-03    rms(broyden)= 0.17838E-03
  rms(prec ) = 0.18723E-03
  weight for this iteration     100.00

 eigenvalues of (default mixing * dielectric matrix)
  average eigenvalue GAMMA=   1.5798
  3.0014  2.7459  2.3766  1.3038  1.3038  1.1802  1.0309  1.0309  0.9561  0.8685

 Free energy of the ion-electron system (eV)
  ---------------------------------------------------
  alpha Z        PSCENC =       147.19195551
  Ewald energy   TEWEN  =     -2526.24305902
  -Hartree energ DENC   =     -1354.86154575
  -exchange      EXHF   =         0.00000000
  -V(xc)+E(xc)   XCENC  =       141.04203299
  PAW double counting   =      4296.49510535    -4646.06309540
  entropy T*S    EENTRO =        -0.00000000
  eigenvalues    EBANDS =      -120.82636557
  atomic energy  EATOM  =      4048.10203383
  Solvation  Ediel_sol  =         0.00000000
  ---------------------------------------------------
  free energy    TOTEN  =       -15.16293806 eV

  energy without entropy =      -15.16293806  energy(sigma->0) =      -15.16293806


--------------------------------------------------------------------------------------------------------




--------------------------------------- Iteration      1(  16)  ---------------------------------------


    POTLOK:  cpu time      0.0035: real time      0.0035
    SETDIJ:  cpu time      0.0751: real time      0.0753
     EDDAV:  cpu time      0.5325: real time      0.5340
       DOS:  cpu time      0.0005: real time      0.0005
    --------------------------------------------
      LOOP:  cpu time      0.6116: real time      0.6133

 eigenvalue-minimisations  :  1230
 total energy-change (2. order) : 0.2738557E-07  (-0.4097942E-08)
 number of electron      36.0000289 magnetization 
 augmentation part       14.4138409 magnetization 

 Free energy of the ion-electron system (eV)
  ---------------------------------------------------
  alpha Z        PSCENC =       147.19195551
  Ewald energy   TEWEN  =     -2526.24305902
  -Hartree energ DENC   =     -1354.86070066
  -exchange      EXHF   =         0.00000000
  -V(xc)+E(xc)   XCENC  =       141.04204370
  PAW double counting   =      4296.59774939    -4646.16554628
  entropy T*S    EENTRO =        -0.00000000
  eigenvalues    EBANDS =      -120.82741450
  atomic energy  EATOM  =      4048.10203383
  Solvation  Ediel_sol  =         0.00000000
  ---------------------------------------------------
  free energy    TOTEN  =       -15.16293803 eV

  energy without entropy =      -15.16293803  energy(sigma->0) =      -15.16293803


--------------------------------------------------------------------------------------------------------




 average (electrostatic) potential at core
  the test charge radii are     0.9521  0.9698
  (the norm of the test charge is              1.0000)
       1 -35.8854       2 -35.8854       3 -88.4928       4 -88.4928
 
 
 
 E-fermi :   2.7209     XC(G=0):  -9.9690     alpha+bet : -8.2754

 val. band max:        2.2694372110   @ k =   0.0000   0.0000   0.0833
 cond. band min:       4.6143729200   @ k =   0.0000   0.0000   0.0833
 fundamental gap:      2.3449357090
 Fermi energy:         2.7209484083

 k-point     1 :       0.0000    0.0000    0.0833
  band No.  band energies     occupation 
      1     -11.0733      2.00000
      2     -10.1069      2.00000
      3      -4.1925      2.00000
      4      -4.1762      2.00000
      5      -4.1762      2.00000
      6      -4.0939      2.00000
      7      -4.0939      2.00000
      8      -3.7049      2.00000
      9      -3.7049      2.00000
     10      -3.6487      2.00000
     11      -3.6235      2.00000
     12      -3.6235      2.00000
     13      -3.0348      2.00000
     14       1.3601      2.00000
     15       1.3602      2.00000
     16       2.0295      2.00000
     17       2.2694      2.00000
     18       2.2694      2.00000
     19       4.6144      0.00000
     20       5.3194      0.00000
     21       8.4940      0.00000
     22       8.4940      0.00000

 k-point     2 :       0.1000    0.0000    0.0833
  band No.  band energies     occupation 
      1     -11.0019      2.00000
      2     -10.0656      2.00000
      3      -4.1924      2.00000
      4      -4.1693      2.00000
      5      -4.1618      2.00000
      6      -4.0880      2.00000
      7      -4.0732      2.00000
      8      -3.7219      2.00000
      9      -3.7099      2.00000
     10      -3.7058      2.00000
     11      -3.6203      2.00000
     12      -3.5374      2.00000
     13      -2.9611      2.00000
     14       0.8014      2.00000
     15       1.1925      2.00000
     16       1.5519      2.00000
     17       2.0727      2.00000
     18       2.1779      2.00000
     19       5.1374      0.00000
     20       5.8279      0.00000
     21       8.1616      0.00000
     22       8.7027      0.00000

 k-point     3 :       0.2000    0.0000    0.0833
  band No.  band energies     occupation 
      1     -10.8018      2.00000
      2      -9.9585      2.00000
      3      -4.2046      2.00000
      4      -4.1410      2.00000
      5      -4.1268      2.00000
      6      -4.0574      2.00000
      7      -4.0176      2.00000
      8      -3.7615      2.00000
      9      -3.7305      2.00000
     10      -3.7017      2.00000
     11      -3.6124      2.00000
     12      -3.4604      2.00000
     13      -2.7450      2.00000
     14      -0.2834      2.00000
     15       0.4972      2.00000
     16       0.8026      2.00000
     17       1.8003      2.00000
     18       1.9342      2.00000
     19       5.8890      0.00000
     20       6.3813      0.00000
     21       8.0397      0.00000
     22       8.7889      0.00000

 k-point     4 :       0.3000    0.0000    0.0833
  band No.  band energies     occupation 
      1     -10.5173      2.00000
      2      -9.8357      2.00000
      3      -4.2064      2.00000
      4      -4.1126      2.00000
      5      -4.0915      2.00000
      6      -3.9785      2.00000
      7      -3.9456      2.00000
      8      -3.7950      2.00000
      9      -3.7261      2.00000
     10      -3.6819      2.00000
     11      -3.6017      2.00000
     12      -3.3823      2.00000
     13      -2.5283      2.00000
     14      -1.2181      2.00000
     15      -0.5417      2.00000
     16       0.3809      2.00000
     17       1.3592      2.00000
     18       1.6401      2.00000
     19       6.0549      0.00000
     20       6.3996      0.00000
     21       8.0206      0.00000
     22       8.7077      0.00000

 k-point     5 :       0.4000    0.0000    0.0833
  band No.  band energies     occupation 
      1     -10.2331      2.00000
      2      -9.7639      2.00000
      3      -4.1913      2.00000
      4      -4.0709      2.00000
      5      -4.0582      2.00000
      6      -3.8863      2.00000
      7      -3.8704      2.00000
      8      -3.8440      2.00000
      9      -3.6831      2.00000
     10      -3.6514      2.00000
     11      -3.5907      2.00000
     12      -3.3048      2.00000
     13      -2.6837      2.00000
     14      -1.6609      2.00000
     15      -1.1314      2.00000
     16       0.0687      2.00000
     17       0.8344      2.00000
     18       1.4113      2.00000
     19       5.8736      0.00000
     20       6.3497      0.00000
     21       7.6222      0.00000
     22       9.1121      0.00000

 k-point     6 :       0.5000    0.0000    0.0833
  band No.  band energies     occupation 
      1     -10.0949      2.00000
      2      -9.7589      2.00000
      3      -4.1843      2.00000
      4      -4.0651      2.00000
      5      -3.9837      2.00000
      6      -3.9218      2.00000
      7      -3.8640      2.00000
      8      -3.7905      2.00000
      9      -3.6358      2.00000
     10      -3.5855      2.00000
     11      -3.5254      2.00000
     12      -3.4867      2.00000
     13      -2.7150      2.00000
     14      -2.0178      2.00000
     15      -1.0515      2.00000
     16      -0.0461      2.00000
     17       0.5477      2.00000
     18       1.3260      2.00000
     19       5.8130      0.00000
     20       6.2799      0.00000
     21       7.4717      0.00000
     22       9.1589      0.00000

 k-point     7 :       0.1000    0.1000    0.0833
  band No.  band energies     occupation 
      1     -10.8660      2.00000
      2      -9.9913      2.00000
      3      -4.1957      2.00000
      4      -4.1460      2.00000
      5      -4.1432      2.00000
      6      -4.0743      2.00000
      7      -4.0327      2.00000
      8      -3.7517      2.00000
      9      -3.7286      2.00000
     10      -3.7035      2.00000
     11      -3.6153      2.00000
     12      -3.4785      2.00000
     13      -2.8134      2.00000
     14       0.0942      2.00000
     15       0.6129      2.00000
     16       1.0304      2.00000
     17       1.9009      2.00000
     18       1.9371      2.00000
     19       5.7633      0.00000
     20       6.4761      0.00000
     21       7.8440      0.00000
     22       8.7658      0.00000

 k-point     8 :       0.2000    0.1000    0.0833
  band No.  band energies     occupation 
      1     -10.6223      2.00000
      2      -9.8759      2.00000
      3      -4.1902      2.00000
      4      -4.1222      2.00000
      5      -4.1084      2.00000
      6      -4.0280      2.00000
      7      -3.9645      2.00000
      8      -3.7709      2.00000
      9      -3.7412      2.00000
     10      -3.6955      2.00000
     11      -3.6058      2.00000
     12      -3.4117      2.00000
     13      -2.5777      2.00000
     14      -0.8002      2.00000
     15      -0.2449      2.00000
     16       0.4025      2.00000
     17       1.5469      2.00000
     18       1.5841      2.00000
     19       6.3697      0.00000
     20       6.7925      0.00000
     21       8.0494      0.00000
     22       8.3385      0.00000

 k-point     9 :       0.3000    0.1000    0.0833
  band No.  band energies     occupation 
      1     -10.3321      2.00000
      2      -9.7799      2.00000
      3      -4.1760      2.00000
      4      -4.0889      2.00000
      5      -4.0669      2.00000
      6      -3.9395      2.00000
      7      -3.8924      2.00000
      8      -3.8105      2.00000
      9      -3.7193      2.00000
     10      -3.6746      2.00000
     11      -3.5914      2.00000
     12      -3.3155      2.00000
     13      -2.5494      2.00000
     14      -1.4068      2.00000
     15      -0.9731      2.00000
     16      -0.1046      2.00000
     17       1.0668      2.00000
     18       1.2444      2.00000
     19       6.4156      0.00000
     20       6.7441      0.00000
     21       7.6899      0.00000
     22       8.7535      0.00000

 k-point    10 :       0.4000    0.1000    0.0833
  band No.  band energies     occupation 
      1     -10.1023      2.00000
      2      -9.7552      2.00000
      3      -4.1702      2.00000
      4      -4.0677      2.00000
      5      -3.9815      2.00000
      6      -3.8797      2.00000
      7      -3.8662      2.00000
      8      -3.8082      2.00000
      9      -3.6604      2.00000
     10      -3.6469      2.00000
     11      -3.5599      2.00000
     12      -3.3556      2.00000
     13      -2.6940      2.00000
     14      -1.8876      2.00000
     15      -1.0624      2.00000
     16      -0.3002      2.00000
     17       0.5883      2.00000
     18       1.0531      2.00000
     19       6.3347      0.00000
     20       6.6061      0.00000
     21       7.4260      0.00000
     22       9.0328      0.00000

 k-point    11 :       0.2000    0.2000    0.0833
  band No.  band energies     occupation 
      1     -10.3689      2.00000
      2      -9.7875      2.00000
      3      -4.1350      2.00000
      4      -4.1201      2.00000
      5      -4.0573      2.00000
      6      -3.9813      2.00000
      7      -3.8975      2.00000
      8      -3.7662      2.00000
      9      -3.7558      2.00000
     10      -3.6909      2.00000
     11      -3.5910      2.00000
     12      -3.3243      2.00000
     13      -2.4899      2.00000
     14      -1.0462      2.00000
     15      -1.0330      2.00000
     16      -0.3042      2.00000
     17       1.0109      2.00000
     18       1.1791      2.00000
     19       6.9821      0.00000
     20       7.3968      0.00000
     21       7.7141      0.00000
     22       8.1228      0.00000

 k-point    12 :       0.3000    0.2000    0.0833
  band No.  band energies     occupation 
      1     -10.1137      2.00000
      2      -9.7498      2.00000
      3      -4.1503      2.00000
      4      -4.0508      2.00000
      5      -3.9608      2.00000
      6      -3.9148      2.00000
      7      -3.8443      2.00000
      8      -3.7874      2.00000
      9      -3.7247      2.00000
     10      -3.6832      2.00000
     11      -3.5622      2.00000
     12      -3.2619      2.00000
     13      -2.5892      2.00000
     14      -1.6780      2.00000
     15      -1.0392      2.00000
     16      -0.7389      2.00000
     17       0.5814      2.00000
     18       0.6926      2.00000
     19       6.8420      0.00000
     20       7.4167      0.00000
     21       7.6478      0.00000
     22       8.9647      0.00000

 k-point    13 :       0.4000    0.2000    0.0833
  band No.  band energies     occupation 
      1      -9.9809      2.00000
      2      -9.7664      2.00000
      3      -4.1567      2.00000
      4      -4.0353      2.00000
      5      -3.9189      2.00000
      6      -3.8450      2.00000
      7      -3.8447      2.00000
      8      -3.7732      2.00000
      9      -3.6767      2.00000
     10      -3.6737      2.00000
     11      -3.4802      2.00000
     12      -3.4107      2.00000
     13      -2.5406      2.00000
     14      -1.9906      2.00000
     15      -1.2894      2.00000
     16      -0.4850      2.00000
     17       0.3109      2.00000
     18       0.4735      2.00000
     19       6.6352      0.00000
     20       7.4938      0.00000
     21       7.6436      0.00000
     22       9.3415      0.00000

 k-point    14 :       0.3000    0.3000    0.0833
  band No.  band energies     occupation 
      1      -9.9228      2.00000
      2      -9.7831      2.00000
      3      -4.1584      2.00000
      4      -3.9918      2.00000
      5      -3.9385      2.00000
      6      -3.8377      2.00000
      7      -3.7935      2.00000
      8      -3.7484      2.00000
      9      -3.7026      2.00000
     10      -3.6931      2.00000
     11      -3.4968      2.00000
     12      -3.3443      2.00000
     13      -2.3976      2.00000
     14      -2.0239      2.00000
     15      -1.5867      2.00000
     16      -0.3825      2.00000
     17       0.1376      2.00000
     18       0.2120      2.00000
     19       6.4828      0.00000
     20       7.9237      0.00000
     21       8.2047      0.00000
     22       9.5553      0.00000

 k-point    15 :       0.0000    0.0000    0.2500
  band No.  band energies     occupation 
      1     -10.9620      2.00000
      2     -10.2587      2.00000
      3      -4.2021      2.00000
      4      -4.1688      2.00000
      5      -4.1688      2.00000
      6      -4.1087      2.00000
      7      -4.1086      2.00000
      8      -3.9802      2.00000
      9      -3.6913      2.00000
     10      -3.6913      2.00000
[...]
      6      -4.0048      2.00000
      7      -4.0035      2.00000
      8      -3.9871      2.00000
      9      -3.6607      2.00000
     10      -3.6568      2.00000
     11      -3.6359      2.00000
     12      -3.6025      2.00000
     13      -1.7789      2.00000
     14      -1.3829      2.00000
     15       0.0432      2.00000
     16       0.8016      2.00000
     17       0.8124      2.00000
     18       1.1336      2.00000
     19       5.9891      0.00000
     20       6.4612      0.00000
     21       7.6953      0.00000
     22       8.2054      0.00000

 k-point    33 :       0.4000    0.0000    0.4167
  band No.  band energies     occupation 
      1     -10.0599      2.00000
      2      -9.9337      2.00000
      3      -4.2210      2.00000
      4      -4.1854      2.00000
      5      -4.0073      2.00000
      6      -3.9570      2.00000
      7      -3.9115      2.00000
      8      -3.8942      2.00000
      9      -3.6373      2.00000
     10      -3.6222      2.00000
     11      -3.5934      2.00000
     12      -3.5160      2.00000
     13      -2.4814      2.00000
     14      -2.1976      2.00000
     15       0.1539      2.00000
     16       0.5180      2.00000
     17       0.7973      2.00000
     18       0.8712      2.00000
     19       5.6346      0.00000
     20       6.0608      0.00000
     21       7.4366      0.00000
     22       7.8139      0.00000

 k-point    34 :       0.5000    0.0000    0.4167
  band No.  band energies     occupation 
      1      -9.9639      2.00000
      2      -9.8733      2.00000
      3      -4.2158      2.00000
      4      -4.1795      2.00000
      5      -3.9952      2.00000
      6      -3.9401      2.00000
      7      -3.8793      2.00000
      8      -3.8354      2.00000
      9      -3.6266      2.00000
     10      -3.6149      2.00000
     11      -3.4588      2.00000
     12      -3.4438      2.00000
     13      -2.8335      2.00000
     14      -2.6140      2.00000
     15       0.2604      2.00000
     16       0.4138      2.00000
     17       0.7746      2.00000
     18       0.7787      2.00000
     19       5.5217      0.00000
     20       5.9010      0.00000
     21       7.3641      0.00000
     22       7.5760      0.00000

 k-point    35 :       0.1000    0.1000    0.4167
  band No.  band energies     occupation 
      1     -10.5761      2.00000
      2     -10.3440      2.00000
      3      -4.2184      2.00000
      4      -4.1786      2.00000
      5      -4.1167      2.00000
      6      -4.1073      2.00000
      7      -4.0738      2.00000
      8      -4.0679      2.00000
      9      -3.6754      2.00000
     10      -3.6704      2.00000
     11      -3.6464      2.00000
     12      -3.6378      2.00000
     13      -1.2465      2.00000
     14      -0.3953      2.00000
     15       0.6180      2.00000
     16       1.0663      2.00000
     17       1.2604      2.00000
     18       1.5023      2.00000
     19       6.7266      0.00000
     20       6.8133      0.00000
     21       7.7208      0.00000
     22       8.0082      0.00000

 k-point    36 :       0.2000    0.1000    0.4167
  band No.  band energies     occupation 
      1     -10.3675      2.00000
      2     -10.1684      2.00000
      3      -4.2164      2.00000
      4      -4.1795      2.00000
      5      -4.0731      2.00000
      6      -4.0554      2.00000
      7      -4.0195      2.00000
      8      -4.0138      2.00000
      9      -3.6731      2.00000
     10      -3.6632      2.00000
     11      -3.6361      2.00000
     12      -3.6136      2.00000
     13      -1.5169      2.00000
     14      -1.0207      2.00000
     15       0.1448      2.00000
     16       0.6940      2.00000
     17       0.9112      2.00000
     18       1.0864      2.00000
     19       6.5287      0.00000
     20       7.0107      0.00000
     21       7.7932      0.00000
     22       8.1997      0.00000

 k-point    37 :       0.3000    0.1000    0.4167
  band No.  band energies     occupation 
      1     -10.1337      2.00000
      2      -9.9854      2.00000
      3      -4.2032      2.00000
      4      -4.1695      2.00000
      5      -4.0216      2.00000
      6      -3.9758      2.00000
      7      -3.9566      2.00000
      8      -3.9493      2.00000
      9      -3.6581      2.00000
     10      -3.6495      2.00000
     11      -3.6025      2.00000
     12      -3.5493      2.00000
     13      -2.1460      2.00000
     14      -1.8276      2.00000
     15       0.0546      2.00000
     16       0.3843      2.00000
     17       0.6247      2.00000
     18       0.9348      2.00000
     19       6.0895      0.00000
     20       6.5962      0.00000
     21       7.6817      0.00000
     22       8.1720      0.00000

 k-point    38 :       0.4000    0.1000    0.4167
  band No.  band energies     occupation 
      1      -9.9678      2.00000
      2      -9.8742      2.00000
      3      -4.1924      2.00000
      4      -4.1550      2.00000
      5      -4.0040      2.00000
      6      -3.9451      2.00000
      7      -3.8827      2.00000
      8      -3.8568      2.00000
      9      -3.6419      2.00000
     10      -3.6359      2.00000
     11      -3.4964      2.00000
     12      -3.4293      2.00000
     13      -2.7084      2.00000
     14      -2.4699      2.00000
     15      -0.0534      2.00000
     16       0.3690      2.00000
     17       0.4714      2.00000
     18       0.8994      2.00000
     19       5.8449      0.00000
     20       6.3149      0.00000
     21       7.5317      0.00000
     22       7.8920      0.00000

 k-point    39 :       0.2000    0.2000    0.4167
  band No.  band energies     occupation 
      1     -10.1618      2.00000
      2     -10.0059      2.00000
      3      -4.1755      2.00000
      4      -4.1514      2.00000
      5      -4.0269      2.00000
      6      -4.0015      2.00000
      7      -3.9915      2.00000
      8      -3.9680      2.00000
      9      -3.6712      2.00000
     10      -3.6565      2.00000
     11      -3.5998      2.00000
     12      -3.5535      2.00000
     13      -1.9580      2.00000
     14      -1.6207      2.00000
     15       0.0262      2.00000
     16       0.1746      2.00000
     17       0.4547      2.00000
     18       0.9384      2.00000
     19       6.5850      0.00000
     20       7.0279      0.00000
     21       8.2894      0.00000
     22       8.3314      0.00000

 k-point    40 :       0.3000    0.2000    0.4167
  band No.  band energies     occupation 
      1      -9.9740      2.00000
      2      -9.8758      2.00000
      3      -4.1401      2.00000
      4      -4.1166      2.00000
      5      -4.0072      2.00000
      6      -3.9575      2.00000
      7      -3.9108      2.00000
      8      -3.8952      2.00000
      9      -3.6697      2.00000
     10      -3.6593      2.00000
     11      -3.5122      2.00000
     12      -3.4336      2.00000
     13      -2.4605      2.00000
     14      -2.2133      2.00000
     15      -0.5059      2.00000
     16      -0.1004      2.00000
     17       0.4614      2.00000
     18       0.9365      2.00000
     19       6.4263      0.00000
     20       6.8482      0.00000
     21       8.2064      0.00000
     22       8.4648      0.00000

 k-point    41 :       0.4000    0.2000    0.4167
  band No.  band energies     occupation 
      1      -9.8905      2.00000
      2      -9.8326      2.00000
      3      -4.1319      2.00000
      4      -4.0932      2.00000
      5      -4.0206      2.00000
      6      -3.9507      2.00000
      7      -3.8463      2.00000
      8      -3.8332      2.00000
      9      -3.6693      2.00000
     10      -3.6685      2.00000
     11      -3.3978      2.00000
     12      -3.3529      2.00000
     13      -2.7115      2.00000
     14      -2.5402      2.00000
     15      -0.6984      2.00000
     16      -0.2660      2.00000
     17       0.6003      2.00000
     18       0.8974      2.00000
     19       6.3382      0.00000
     20       6.7764      0.00000
     21       8.1890      0.00000
     22       8.3025      0.00000

 k-point    42 :       0.3000    0.3000    0.4167
  band No.  band energies     occupation 
      1      -9.8582      2.00000
      2      -9.8205      2.00000
      3      -4.0818      2.00000
      4      -4.0741      2.00000
      5      -4.0302      2.00000
      6      -3.9652      2.00000
      7      -3.8229      2.00000
      8      -3.8131      2.00000
      9      -3.6958      2.00000
     10      -3.6907      2.00000
     11      -3.3797      2.00000
     12      -3.3196      2.00000
     13      -2.6234      2.00000
     14      -2.5001      2.00000
     15      -1.0380      2.00000
     16      -0.5908      2.00000
     17       0.6815      2.00000
     18       0.8763      2.00000
     19       6.6872      0.00000
     20       6.8457      0.00000
     21       8.0528      0.00000
     22       8.9077      0.00000


--------------------------------------------------------------------------------------------------------


 soft charge-density along one line, spin component            1
         0         1         2         3         4         5         6         7         8         9
 total charge-density along one line
 
 pseudopotential strength for first ion, spin component:            1
 -9.716  -0.000  -0.000   0.000  -0.000 -10.087  -0.000  -0.000
 -0.000  -9.715  -0.000  -0.000   0.000  -0.000 -10.086  -0.000
 -0.000  -0.000  -9.715   0.000   0.000  -0.000  -0.000 -10.086
  0.000  -0.000   0.000  -9.715  -0.000   0.000  -0.000   0.000
 -0.000   0.000   0.000  -0.000  -9.716  -0.000   0.000   0.000
-10.087  -0.000  -0.000   0.000  -0.000 -10.383  -0.000  -0.000
 -0.000 -10.086  -0.000  -0.000   0.000  -0.000 -10.382  -0.000
 -0.000  -0.000 -10.086   0.000   0.000  -0.000  -0.000 -10.383
  0.000  -0.000   0.000 -10.086  -0.000   0.000  -0.000   0.000
 -0.000   0.000   0.000  -0.000 -10.087  -0.000   0.000   0.000
  0.000   0.000  -0.000  -0.000  -0.000   0.000   0.000  -0.000
  0.000   0.000  -0.000  -0.000  -0.000   0.000   0.000  -0.000
 -0.000   0.002   0.000   0.000  -0.002  -0.000   0.002  -0.000
  0.000   0.000  -0.002  -0.000  -0.000   0.000   0.000  -0.002
 -0.002   0.000  -0.000   0.002  -0.000  -0.002   0.000   0.000
 -0.000   0.001   0.000   0.000  -0.001  -0.000   0.001   0.000
  0.000   0.000  -0.001  -0.000  -0.000   0.000   0.000  -0.001
 -0.001   0.000  -0.000   0.001  -0.000  -0.001   0.000  -0.000
 total augmentation occupancy for first ion, spin component:            1
  3.625   0.000  -0.000  -0.729   0.000  -1.643  -0.000   0.000   0.727  -0.000  -0.000  -0.000   0.000   0.000  -0.594  -0.000
  0.000   3.115   0.000   0.000  -0.729  -0.000  -1.135  -0.000  -0.000   0.728   0.000   0.000   0.425  -0.000   0.000  -0.064
 -0.000   0.000   4.131   0.000  -0.000   0.000  -0.000  -2.145  -0.000   0.000   0.004   0.000   0.000  -0.724   0.000  -0.000
 -0.729   0.000   0.000   3.115  -0.000   0.728  -0.000  -0.000  -1.135   0.000  -0.000   0.000   0.000   0.000   0.425  -0.000
  0.000  -0.729  -0.000  -0.000   3.625  -0.000   0.727   0.000   0.000  -1.643  -0.000  -0.000  -0.594   0.000  -0.000   0.090
 -1.643  -0.000   0.000   0.728   0.000   1.654   0.000  -0.000  -0.726   0.000   0.000   0.000  -0.000  -0.000   0.578   0.000
 -0.000  -1.135  -0.000  -0.000   0.727   0.000   1.148   0.000   0.000  -0.726  -0.000   0.000  -0.413   0.000  -0.000   0.072
  0.000  -0.000  -2.145  -0.000   0.000  -0.000   0.000   2.152   0.000  -0.000  -0.004  -0.000  -0.000   0.703  -0.000   0.000
  0.727  -0.000  -0.000  -1.135   0.000  -0.726   0.000   0.000   1.148  -0.000   0.000  -0.000  -0.000  -0.000  -0.413   0.000
 -0.000   0.728   0.000   0.000  -1.643   0.000  -0.726  -0.000  -0.000   1.654   0.000   0.000   0.578  -0.000   0.000  -0.100
 -0.000   0.000   0.004  -0.000  -0.000   0.000  -0.000  -0.004   0.000   0.000   2.657  -0.644   0.000  -0.003  -0.000  -0.000
 -0.000  -0.000   0.000   0.000  -0.000   0.000   0.000  -0.000  -0.000   0.000  -0.644   0.183   0.000   0.001   0.000   0.000
  0.000   0.425   0.000   0.000  -0.594  -0.000  -0.413  -0.000  -0.000   0.578   0.000  -0.000   0.387  -0.000   0.000  -0.068
  0.000  -0.000  -0.724   0.000   0.000  -0.000   0.000   0.703  -0.000  -0.000  -0.003   0.001  -0.000   0.386   0.000   0.000
 -0.594   0.000   0.000   0.425  -0.000   0.578  -0.000  -0.000  -0.413   0.000  -0.000   0.000   0.000   0.000   0.387  -0.000
 -0.000  -0.064  -0.000  -0.000   0.090   0.000   0.072   0.000   0.000  -0.100  -0.000   0.000  -0.068   0.000  -0.000   0.014
 -0.000   0.000   0.110  -0.000  -0.000   0.000  -0.000  -0.122   0.000   0.000   0.001  -0.000   0.000  -0.068  -0.000  -0.000
  0.090  -0.000  -0.000  -0.064   0.000  -0.100   0.000   0.000   0.072  -0.000   0.000   0.000  -0.000  -0.000  -0.068   0.000


------------------------ aborting loop because EDIFF is reached ----------------------------------------





 total charge

# of ion       s       p       d       tot
------------------------------------------
    1        0.532   0.505   9.798  10.834
    2        0.532   0.505   9.798  10.834
    3        1.308   2.422   0.000   3.731
    4        1.308   2.422   0.000   3.731
--------------------------------------------------
tot          3.680   5.855  19.596  29.130
 
    CHARGE:  cpu time      0.0587: real time      0.0588
    FORLOC:  cpu time      0.0002: real time      0.0002
    FORNL :  cpu time      0.1185: real time      0.1188
    STRESS:  cpu time      1.2491: real time      1.2523
    FORCOR:  cpu time      0.0030: real time      0.0031
    FORHAR:  cpu time      0.0008: real time      0.0008
    MIXING:  cpu time      0.0007: real time      0.0007
    OFIELD:  cpu time      0.0000: real time      0.0000

  FORCE on cell =-STRESS in cart. coord.  units (eV):
  Direction    XX          YY          ZZ          XY          YZ          ZX
  --------------------------------------------------------------------------------------
  Alpha Z   147.15734   147.15734   147.15734
  Ewald    -852.00077  -852.00077  -822.08855     0.00000     0.00000    -0.00000
  Hartree   444.68907   444.68907   465.55344    -0.00000    -0.00000    -0.00000
  E(xc)    -184.36986  -184.36984  -184.34489     0.00001    -0.00000    -0.00000
  Local      17.13855    17.13555   -33.38929    -0.00260    -0.00001    -0.00000
  n-local    77.56901    79.45460    78.44944    -3.44371    -0.60813    -0.58197
  augment    44.94504    44.94789    44.99179     0.00247     0.00001     0.00000
  Kinetic   301.08532   306.76021   303.67196    -5.99409    -0.81753    -1.05558
  Fock        0.00000     0.00000     0.00000     0.00000     0.00000     0.00000
  -------------------------------------------------------------------------------------
  Total      -0.00611    -0.00611     0.00124    -0.00000     0.00000    -0.00000
  in kB      -0.12746    -0.12746     0.02578    -0.00000     0.00000    -0.00000
  external pressure =       -0.08 kB  Pullay stress =        0.00 kB


 VOLUME and BASIS-vectors are now :
 -----------------------------------------------------------------------------
  energy-cutoff  :      359.74
  volume of cell :       76.84
      direct lattice vectors                 reciprocal lattice vectors
     3.781583874 -0.000000000  0.000000000     0.264439461  0.152674194  0.000000000
    -1.890791937  3.274947701 -0.000000000     0.000000000  0.305348388  0.000000000
     0.000000000 -0.000000000  6.204766233    -0.000000000  0.000000000  0.161166426

  length of vectors
     3.781583874  3.781583874  6.204766233     0.305348388  0.305348388  0.161166426


 FORCES acting on ions
    electron-ion (+dipol)            ewald-force                    non-local-force                 convergence-correction
 -----------------------------------------------------------------------------------------------
   0.133E-05 -.505E-05 -.427E+01   -.574E-07 0.405E-07 0.418E+01   0.000E+00 -.173E-16 0.860E-01   0.119E-08 -.663E-09 0.180E-02
   -.504E-05 -.136E-05 -.427E+01   0.574E-07 -.405E-07 0.418E+01   0.867E-17 0.139E-16 0.860E-01   -.117E-08 0.699E-09 0.180E-02
   0.115E-04 -.118E-05 0.417E+01   -.536E-07 0.376E-07 -.418E+01   0.694E-17 0.278E-16 0.184E-01   -.105E-08 0.625E-09 -.508E-03
   -.686E-05 0.944E-05 0.417E+01   0.536E-07 -.376E-07 -.418E+01   -.694E-17 -.139E-16 0.184E-01   0.106E-08 -.594E-09 -.508E-03
 -----------------------------------------------------------------------------------------------
   0.932E-06 0.185E-05 -.213E+00   0.207E-14 0.616E-14 0.000E+00   0.867E-17 0.104E-16 0.209E+00   0.396E-10 0.663E-10 0.258E-02
 
 
 POSITION                                       TOTAL-FORCE (eV/Angst)
 -----------------------------------------------------------------------------------
      1.89079      1.09165      3.10487         0.000000      0.000000     -0.001174
     -0.00000      2.18330      0.00249        -0.000000      0.000000     -0.001174
      1.89079      1.09165      5.42668         0.000000     -0.000000      0.001174
     -0.00000      2.18330      2.32430        -0.000000     -0.000000      0.001174
 -----------------------------------------------------------------------------------
    total drift:                                0.000001      0.000002     -0.001634


--------------------------------------------------------------------------------------------------------



  FREE ENERGIE OF THE ION-ELECTRON SYSTEM (eV)
  ---------------------------------------------------
  free  energy   TOTEN  =       -15.16296915 eV

  energy  without entropy=      -15.16296915  energy(sigma->0) =      -15.16296915
 d Force = 0.8536278E-05[-0.453E-05, 0.216E-04]  d Energy = 0.1469294E-04-0.616E-05
 d Force = 0.1601662E-01[ 0.162E-01, 0.159E-01]  d Ewald  =-0.1086780E+00 0.125E+00
 


--------------------------------------------------------------------------------------------------------


    POTLOK:  cpu time      0.0790: real time      0.0792


--------------------------------------------------------------------------------------------------------




--------------------------------------------------------------------------------------------------------


  
 reached required accuracy - stopping structural energy minimisation
     LOOP+:  cpu time      6.7338: real time      6.7528
    4ORBIT:  cpu time      0.0000: real time      0.0015



 total charge

# of ion       s       p       d       tot
------------------------------------------
    1        0.532   0.505   9.798  10.834
    2        0.532   0.505   9.798  10.834
    3        1.308   2.422   0.000   3.731
    4        1.308   2.422   0.000   3.731
--------------------------------------------------
tot          3.680   5.855  19.596  29.130
 

 total amount of memory used by VASP MPI-rank0    58068. kBytes
=======================================================================

   base                                    :      30000. kBytes
   nonl-proj                               :      14689. kBytes
   fftplans                                :       1381. kBytes
   grid                                    :       2623. kBytes
   one-center                              :         62. kBytes
   wavefun                                 :       9313. kBytes
 
  
  
 General timing and accounting informations for this job:
 ========================================================
  
                  Total CPU time used (sec):       33.344
                            User time (sec):       30.209
                          System time (sec):        3.135
                         Elapsed time (sec):       39.903
  
                   Maximum memory used (kb):     1786424.
                   Average memory used (kb):          N/A
  
                          Minor page faults:       222104
                          Major page faults:         8479
                 Voluntary context switches:        27667
