<?xml version="1.0" encoding="ISO-8859-1"?>
<modeling>
 <generator>
  <i name="program" type="string">vasp </i>
  <i name="version" type="string">6.5.1  </i>
  <i name="subversion" type="string">10Mar25 (build May 13 2025 11:33:44) complex                          parallel </i>
  <i name="platform" type="string">LinuxNV </i>
  <i name="date" type="string">2026 05 14 </i>
  <i name="time" type="string">18:23:11 </i>
 </generator>
 <incar>
  <i type="string" name="PREC">Normal</i>
  <i type="string" name="ALGO">Normal</i>
  <i type="int" name="NELM">   100</i>
  <i type="int" name="IBRION">     2</i>
  <i name="EDIFF">      0.00000010</i>
  <i name="EDIFFG">     -0.00500000</i>
  <i type="int" name="NSW">   100</i>
  <i type="int" name="ISIF">     3</i>
  <i name="ENCUT">    359.74000000</i>
  <i type="logical" name="LREAL"> F  </i>
  <i type="int" name="ISMEAR">     0</i>
  <i name="SIGMA">      0.10000000</i>
  <i type="logical" name="LWAVE"> F  </i>
  <i type="logical" name="LCHARG"> F  </i>
  <i type="int" name="LORBIT">    10</i>
  <i type="logical" name="LASPH"> T  </i>
  <i type="string" name="GGA">Ps</i>
 </incar>
 <primitive_cell>
  <structure name="primitive_cell" >
   <crystal>
    <varray name="basis" >
     <v>       3.78262472      -0.00000000       0.00000000 </v>
     <v>      -1.89131236       3.27584910       0.00000000 </v>
     <v>       0.00000000      -0.00000000       6.19989355 </v>
    </varray>
    <i name="volume">     76.82478924 </i>
    <varray name="rec_basis" >
     <v>       0.26436670       0.15263218       0.00000000 </v>
     <v>       0.00000000       0.30526437       0.00000000 </v>
     <v>      -0.00000000      -0.00000000       0.16129309 </v>
    </varray>
   </crystal>
   <varray name="positions" >
    <v>       0.66666667       0.33333333       0.50017993 </v>
    <v>       0.33333333       0.66666667       0.00017993 </v>
    <v>       0.66666667       0.33333333       0.87482007 </v>
    <v>       0.33333333       0.66666667       0.37482007 </v>
   </varray>
  </structure>
  <varray name="primitive_index" >
   <v type="int" >        1 </v>
   <v type="int" >        2 </v>
   <v type="int" >        3 </v>
   <v type="int" >        4 </v>
  </varray>
 </primitive_cell>
 <kpoints>
  <generation param="Gamma">
   <v type="int" name="divisions">      10       10        6 </v>
   <v name="usershift">      0.00000000       0.00000000       0.50000000 </v>
   <v name="genvec1">      0.10000000       0.00000000       0.00000000 </v>
   <v name="genvec2">     -0.00000000       0.10000000       0.00000000 </v>
   <v name="genvec3">      0.00000000       0.00000000       0.16666667 </v>
   <v name="shift">      0.00000000       0.00000000       0.50000000 </v>
  </generation>
  <varray name="kpointlist" >
   <v>       0.00000000       0.00000000       0.08333333 </v>
   <v>       0.10000000       0.00000000       0.08333333 </v>
   <v>       0.20000000       0.00000000       0.08333333 </v>
   <v>       0.30000000       0.00000000       0.08333333 </v>
   <v>       0.40000000       0.00000000       0.08333333 </v>
   <v>       0.50000000       0.00000000       0.08333333 </v>
   <v>       0.10000000       0.10000000       0.08333333 </v>
   <v>       0.20000000       0.10000000       0.08333333 </v>
   <v>       0.30000000       0.10000000       0.08333333 </v>
   <v>       0.40000000       0.10000000       0.08333333 </v>
   <v>       0.20000000       0.20000000       0.08333333 </v>
   <v>       0.30000000       0.20000000       0.08333333 </v>
   <v>       0.40000000       0.20000000       0.08333333 </v>
   <v>       0.30000000       0.30000000       0.08333333 </v>
   <v>       0.00000000       0.00000000       0.25000000 </v>
   <v>       0.10000000       0.00000000       0.25000000 </v>
   <v>       0.20000000       0.00000000       0.25000000 </v>
   <v>       0.30000000       0.00000000       0.25000000 </v>
   <v>       0.40000000       0.00000000       0.25000000 </v>
   <v>       0.50000000       0.00000000       0.25000000 </v>
   <v>       0.10000000       0.10000000       0.25000000 </v>
   <v>       0.20000000       0.10000000       0.25000000 </v>
   <v>       0.30000000       0.10000000       0.25000000 </v>
   <v>       0.40000000       0.10000000       0.25000000 </v>
   <v>       0.20000000       0.20000000       0.25000000 </v>
   <v>       0.30000000       0.20000000       0.25000000 </v>
   <v>       0.40000000       0.20000000       0.25000000 </v>
   <v>       0.30000000       0.30000000       0.25000000 </v>
   <v>       0.00000000       0.00000000       0.41666667 </v>
   <v>       0.10000000       0.00000000       0.41666667 </v>
   <v>       0.20000000       0.00000000       0.41666667 </v>
   <v>       0.30000000       0.00000000       0.41666667 </v>
   <v>       0.40000000       0.00000000       0.41666667 </v>
   <v>       0.50000000       0.00000000       0.41666667 </v>
   <v>       0.10000000       0.10000000       0.41666667 </v>
   <v>       0.20000000       0.10000000       0.41666667 </v>
   <v>       0.30000000       0.10000000       0.41666667 </v>
   <v>       0.40000000       0.10000000       0.41666667 </v>
   <v>       0.20000000       0.20000000       0.41666667 </v>
   <v>       0.30000000       0.20000000       0.41666667 </v>
   <v>       0.40000000       0.20000000       0.41666667 </v>
   <v>       0.30000000       0.30000000       0.41666667 </v>
  </varray>
  <varray name="weights" >
   <v>       0.00333333 </v>
   <v>       0.02000000 </v>
   <v>       0.02000000 </v>
   <v>       0.02000000 </v>
   <v>       0.02000000 </v>
   <v>       0.01000000 </v>
   <v>       0.02000000 </v>
   <v>       0.04000000 </v>
   <v>       0.04000000 </v>
   <v>       0.04000000 </v>
   <v>       0.02000000 </v>
   <v>       0.04000000 </v>
   <v>       0.02000000 </v>
   <v>       0.02000000 </v>
   <v>       0.00333333 </v>
   <v>       0.02000000 </v>
   <v>       0.02000000 </v>
   <v>       0.02000000 </v>
   <v>       0.02000000 </v>
   <v>       0.01000000 </v>
   <v>       0.02000000 </v>
   <v>       0.04000000 </v>
   <v>       0.04000000 </v>
   <v>       0.04000000 </v>
   <v>       0.02000000 </v>
   <v>       0.04000000 </v>
   <v>       0.02000000 </v>
   <v>       0.02000000 </v>
   <v>       0.00333333 </v>
   <v>       0.02000000 </v>
   <v>       0.02000000 </v>
   <v>       0.02000000 </v>
   <v>       0.02000000 </v>
   <v>       0.01000000 </v>
   <v>       0.02000000 </v>
   <v>       0.04000000 </v>
   <v>       0.04000000 </v>
   <v>       0.04000000 </v>
   <v>       0.02000000 </v>
   <v>       0.04000000 </v>
   <v>       0.02000000 </v>
   <v>       0.02000000 </v>
  </varray>
 </kpoints>
 <parameters>
  <separator name="general" >
   <i type="string" name="SYSTEM">unknown system</i>
   <i type="logical" name="LCOMPAT"> F  </i>
  </separator>
  <separator name="electronic" >
   <i type="string" name="PREC">normal</i>
   <i name="ENMAX">    359.74000000</i>
   <i name="ENAUG">    575.89200000</i>
   <i name="EDIFF">      0.00000010</i>
   <i type="int" name="IALGO">    38</i>
   <i type="int" name="IWAVPR">    11</i>
   <i type="int" name="NBANDS">    22</i>
   <i type="int" name="NBANDSLOW">    -1</i>
   <i type="int" name="NBANDSHIGH">    -1</i>
   <i name="NELECT">     36.00000000</i>
   <i type="int" name="TURBO">     0</i>
   <i type="int" name="IRESTART">     0</i>
   <i type="int" name="NREBOOT">     0</i>
   <i type="int" name="NMIN">     0</i>
   <i name="EREF">      0.00000000</i>
   <separator name="electronic smearing" >
    <i type="int" name="ISMEAR">     0</i>
    <i name="SIGMA">      0.10000000</i>
    <i name="KSPACING">      0.50000000</i>
    <i type="logical" name="KGAMMA"> T  </i>
    <i type="logical" name="KBLOWUP"> T  </i>
   </separator>
   <separator name="electronic projectors" >
    <i type="logical" name="LREAL"> F  </i>
    <v name="ROPT">      0.00000000      0.00000000</v>
    <i type="int" name="LMAXPAW">  -100</i>
    <i type="int" name="LMAXMIX">     2</i>
    <i type="logical" name="NLSPLINE"> F  </i>
   </separator>
   <separator name="electronic startup" >
    <i type="int" name="ISTART">     0</i>
    <i type="int" name="ICHARG">     2</i>
    <i type="int" name="INIWAV">     1</i>
   </separator>
   <separator name="electronic spin" >
    <i type="int" name="ISPIN">     1</i>
    <i type="logical" name="LNONCOLLINEAR"> F  </i>
    <v name="MAGMOM">      1.00000000      1.00000000      1.00000000      1.00000000</v>
    <i name="NUPDOWN">     -1.00000000</i>
    <i type="logical" name="LSORBIT"> F  </i>
    <v name="SAXIS">      0.00000000      0.00000000      1.00000000</v>
    <i type="logical" name="LSPIRAL"> F  </i>
    <v name="QSPIRAL">      0.00000000      0.00000000      0.00000000</v>
    <i type="logical" name="LZEROZ"> F  </i>
   </separator>
   <separator name="electronic exchange-correlation" >
    <i type="logical" name="LASPH"> T  </i>
   </separator>
   <separator name="electronic convergence" >
    <i type="int" name="NELM">   100</i>
    <i type="int" name="NELMDL">     0</i>
    <i type="int" name="NELMIN">     2</i>
    <i name="ENINI">    359.74000000</i>
    <separator name="electronic convergence detail" >
     <i type="logical" name="LDIAG"> T  </i>
     <i type="logical" name="LSUBROT"> F  </i>
     <i type="logical" name="LROBUST"> F  </i>
     <i type="int" name="ISEARCH">     0</i>
     <i name="WEIMIN">      0.00100000</i>
     <i name="EBREAK">      0.00000000</i>
     <i name="DEPER">      0.30000000</i>
     <i type="int" name="NRMM">     4</i>
     <i name="TIME">      0.40000000</i>
    </separator>
   </separator>
   <separator name="electronic mixer" >
    <i name="AMIX">      0.40000000</i>
    <i name="BMIX">      1.00000000</i>
    <i name="AMIN">      0.10000000</i>
    <i name="AMIX_MAG">      1.60000000</i>
    <i name="BMIX_MAG">      1.00000000</i>
    <separator name="electronic mixer details" >
     <i type="int" name="IMIX">     4</i>
     <i type="logical" name="MIXFIRST"> F  </i>
     <i type="int" name="MAXMIX">   -45</i>
     <i name="WC">    100.00000000</i>
     <i type="int" name="INIMIX">     1</i>
     <i type="int" name="MIXPRE">     1</i>
     <i type="int" name="MREMOVE">     5</i>
    </separator>
   </separator>
   <separator name="electronic dipolcorrection" >
    <i type="logical" name="LDIPOL"> F  </i>
    <i type="logical" name="LMONO"> F  </i>
    <i type="int" name="IDIPOL">     0</i>
    <i name="EPSILON">      1.00000000</i>
    <v name="DIPOL">   -100.00000000   -100.00000000   -100.00000000</v>
    <i name="EFIELD">      0.00000000</i>
    <i type="logical" name="LVACPOTAV"> F  </i>
   </separator>
  </separator>
  <separator name="grids" >
   <i type="int" name="NGX">    18</i>
   <i type="int" name="NGY">    18</i>
   <i type="int" name="NGZ">    30</i>
   <i type="int" name="NGXF">    36</i>
   <i type="int" name="NGYF">    36</i>
   <i type="int" name="NGZF">    60</i>
   <i type="logical" name="ADDGRID"> F  </i>
  </separator>
  <separator name="ionic" >
   <i type="int" name="NSW">   100</i>
   <i type="int" name="IBRION">     2</i>
   <i type="int" name="MDALGO">     0</i>
   <i type="int" name="ISIF">     3</i>
   <i name="PSTRESS">      0.00000000</i>
   <i name="EDIFFG">     -0.00500000</i>
   <i type="int" name="NFREE">     1</i>
   <i name="POTIM">      0.50000000</i>
   <i name="SMASS">     -3.00000000</i>
   <i name="SCALEE">      1.00000000</i>
  </separator>
  <separator name="ionic md" >
   <i name="TEBEG">      0.00010000</i>
   <i name="TEEND">      0.00010000</i>
   <i type="int" name="NBLOCK">     1</i>
   <i type="int" name="KBLOCK">   100</i>
   <i type="int" name="NPACO">   256</i>
   <i name="APACO">     10.00000000</i>
  </separator>
  <separator name="symmetry" >
   <i type="int" name="ISYM">     2</i>
   <i name="SYMPREC">      0.00001000</i>
  </separator>
  <separator name="dos" >
   <i type="int" name="LORBIT">    10</i>
   <v name="RWIGS">     -1.00000000     -1.00000000</v>
   <i type="int" name="NEDOS">   301</i>
   <i name="EMIN">     10.00000000</i>
   <i name="EMAX">    -10.00000000</i>
   <i name="EFERMI">      0.00000000</i>
  </separator>
  <separator name="writing" >
   <i type="int" name="NWRITE">     2</i>
   <i type="logical" name="LWAVE"> F  </i>
   <i type="logical" name="LDOWNSAMPLE"> F  </i>
   <i type="logical" name="LCHARG"> F  </i>
   <i type="logical" name="LPARD"> F  </i>
   <i type="logical" name="LVTOT"> F  </i>
   <i type="logical" name="LVHAR"> F  </i>
   <i type="logical" name="LELF"> F  </i>
   <i type="logical" name="LOPTICS"> F  </i>
   <v name="STM">      0.00000000      0.00000000      0.00000000      0.00000000      0.00000000      0.00000000      0.00000000</v>
  </separator>
  <separator name="performance" >
   <i type="int" name="NPAR">     2</i>
   <i type="int" name="NSIM">     4</i>
   <i type="int" name="NBLK">    -1</i>
   <i type="logical" name="LPLANE"> T  </i>
   <i type="logical" name="LSCALAPACK"> T  </i>
   <i type="logical" name="LSCAAWARE"> F  </i>
   <i type="logical" name="LSCALU"> F  </i>
   <i type="logical" name="LASYNC"> F  </i>
   <i type="logical" name="LORBITALREAL"> F  </i>
  </separator>
  <separator name="miscellaneous" >
   <i type="int" name="IDIOT">     3</i>
   <i type="int" name="PHON_NSTRUCT">    -1</i>
   <i type="logical" name="LMUSIC"> F  </i>
   <v name="POMASS">     65.39000000     32.06600000</v>
   <v name="DARWINR">      0.00000000      0.00000000</v>
   <v name="DARWINV">      1.00000000      1.00000000</v>
   <i type="logical" name="LCORR"> T  </i>
  </separator>
  <i type="logical" name="GGA_COMPAT"> T  </i>
  <i type="logical" name="LBERRY"> F  </i>
  <i type="int" name="ICORELEVEL">     0</i>
  <i type="logical" name="LDAU"> F  </i>
  <i type="int" name="I_CONSTRAINED_M">     0</i>
  <separator name="electronic exchange-correlation" >
   <i type="string" name="GGA    ">PS</i>
   <i type="string" name="XC_C">1</i>
   <i type="int" name="VOSKOWN">     0</i>
   <i type="logical" name="LHFCALC"> F  </i>
   <i type="string" name="PRECFOCK"></i>
   <i type="logical" name="LSYMGRAD"> F  </i>
   <i type="logical" name="LHFONE"> F  </i>
   <i type="logical" name="LRHFCALC"> F  </i>
   <i type="logical" name="LTHOMAS"> F  </i>
   <i type="logical" name="LMODELHF"> F  </i>
   <i type="logical" name="LFOCKACE"> F  </i>
   <i name="ENCUT4O">     -1.00000000</i>
   <i type="int" name="EXXOEP">     0</i>
   <i type="int" name="FOURORBIT">     0</i>
   <i name="AEXX">      0.00000000</i>
   <i name="HFALPHA">      0.00000000</i>
   <i name="MCALPHA">      0.00000000</i>
   <i name="ALDAX">      1.00000000</i>
   <i name="AGGAX">      1.00000000</i>
   <i name="AMGGAX">      1.00000000</i>
   <i name="ALDAC">      1.00000000</i>
   <i name="AGGAC">      1.00000000</i>
   <i name="AMGGAC">      1.00000000</i>
   <i type="int" name="NKREDX">     1</i>
   <i type="int" name="NKREDY">     1</i>
   <i type="int" name="NKREDZ">     1</i>
   <i type="logical" name="SHIFTRED"> F  </i>
   <i type="logical" name="ODDONLY"> F  </i>
   <i type="logical" name="EVENONLY"> F  </i>
   <i type="int" name="LMAXFOCK">     0</i>
   <i type="int" name="NMAXFOCKAE">     0</i>
   <i type="logical" name="LFOCKAEDFT"> F  </i>
   <i name="HFSCREEN">      0.00000000</i>
   <i name="HFSCREENC">      0.00000000</i>
   <i type="int" name="NBANDSGWLOW">     0</i>
  </separator>
  <separator name="vdW DFT" >
   <i type="logical" name="LUSE_VDW"> F  </i>
   <i type="int" name="IVDW_NL">    -1</i>
   <i type="logical" name="LSPIN_VDW"> F  </i>
   <i name="ZAB_VDW">     -0.84910000</i>
   <i name="GAMMA_VDW">      1.39626340</i>
   <i name="ALPHA_VDW">      0.00000000</i>
   <i name="PARAM1">      0.12340000</i>
   <i name="PARAM2">      1.00000000</i>
   <i name="BPARAM">      6.30000000</i>
   <i name="CPARAM">      0.00930000</i>
  </separator>
  <separator name="model GW" >
   <i type="int" name="MODEL_GW">     0</i>
   <i name="MODEL_EPS0">     11.52371839</i>
   <i name="MODEL_ALPHA">      1.00000000</i>
  </separator>
  <separator name="linear response parameters" >
   <i type="logical" name="LEPSILON"> F  </i>
   <i type="logical" name="LRPA"> F  </i>
   <i type="logical" name="LNABLA"> F  </i>
   <i type="logical" name="LVEL"> F  </i>
   <i name="CSHIFT">      0.10000000</i>
   <i name="OMEGAMAX">     -1.00000000</i>
   <i name="DEG_THRESHOLD">      0.00200000</i>
   <i name="RTIME">     -0.10000000</i>
   <i name="WPLASMAI">      0.00000000</i>
   <v name="DFIELD">      0.00000000      0.00000000      0.00000000</v>
   <v name="WPLASMA">      0.00000000      0.00000000      0.00000000      0.00000000      0.00000000      0.00000000      0.00000000      0.00000000      0.00000000</v>
  </separator>
  <separator name="orbital magnetization" >
   <i type="logical" name="NUCIND"> F  </i>
   <v name="MAGPOS">      0.00000000      0.00000000      0.00000000</v>
   <i type="logical" name="LNICSALL"> T  </i>
   <i type="logical" name="ORBITALMAG"> F  </i>
   <i type="logical" name="LMAGBLOCH"> F  </i>
   <i type="logical" name="LCHIMAG"> F  </i>
   <i type="logical" name="LGAUGE"> T  </i>
   <i type="int" name="MAGATOM">     0</i>
   <v name="MAGDIPOL">      0.00000000      0.00000000      0.00000000</v>
   <v name="AVECCONST">      0.00000000      0.00000000      0.00000000</v>
  </separator>
  <separator name="response functions" >
   <i type="logical" name="LALL_IN_ONE"> F  </i>
   <i type="int" name="IALL_IN_ONE">    -1</i>
   <i type="int" name="NBANDS_WAVE">    -1</i>
   <i type="logical" name="LFINITE_TEMPERATURE"> F  </i>
   <i type="logical" name="LADDER"> F  </i>
   <i type="logical" name="LRPAFORCE"> F  </i>
   <i type="logical" name="LFXC"> F  </i>
   <i type="logical" name="LHARTREE"> T  </i>
   <i type="int" name="IBSE">     2</i>
   <v type="int" name="KPOINT">    -1     0     0     0</v>
   <i type="logical" name="LTCTC"> F  </i>
   <i type="logical" name="LTCTE"> F  </i>
   <i type="logical" name="LTETE"> F  </i>
   <i type="logical" name="LTRIPLET"> F  </i>
   <i type="logical" name="LFXCEPS"> F  </i>
   <i type="logical" name="LFXHEG"> F  </i>
   <i type="int" name="NATURALO">     2</i>
   <i type="logical" name="LHOLEGF"> F  </i>
   <i type="logical" name="L2ORDER"> F  </i>
   <i type="logical" name="LDMP1"> F  </i>
   <i type="logical" name="LMP2LT"> F  </i>
   <i type="logical" name="LSMP2LT"> F  </i>
   <i type="logical" name="LGWLF"> F  </i>
   <i name="ENCUTGW">     -1.60000002</i>
   <i name="ENCUTGWSOFT">     -1.60000002</i>
   <i name="ENCUTLF">     -1.00000000</i>
   <i type="logical" name="ESF_SPLINES"> F  </i>
   <i name="ESF_CONV">      0.01000000</i>
   <i type="int" name="ESF_NINTER">    15</i>
   <i type="int" name="LMAXMP2">    -1</i>
   <i name="SCISSOR">      0.00000000</i>
   <i type="int" name="NOMEGA">     0</i>
   <i type="int" name="NOMEGAR">     0</i>
   <i type="int" name="NBANDSGW">    -1</i>
   <i type="int" name="NBANDSO">    -1</i>
   <i type="int" name="NBANDSV">    -1</i>
   <i type="int" name="NELMGW">     1</i>
   <i type="int" name="NELMHF">     1</i>
   <i type="int" name="DIM">     3</i>
   <i type="int" name="IESPILON">     4</i>
   <i type="int" name="ANTIRES">     0</i>
   <i name="OMEGAMAX">    -30.00000000</i>
   <i name="OMEGAMIN">    -30.00000000</i>
   <i name="OMEGATL">   -200.00000000</i>
   <i type="int" name="OMEGAGRID">     0</i>
   <i name="CSHIFT">     -0.10000000</i>
   <i type="logical" name="LSELFENERGY"> F  </i>
   <i type="logical" name="LSPECTRAL"> F  </i>
   <i type="logical" name="LSPECTRALGW"> F  </i>
   <i type="logical" name="LSINGLES"> F  </i>
   <i type="logical" name="LFERMIGW"> F  </i>
   <i type="logical" name="ODDONLYGW"> F  </i>
   <i type="logical" name="EVENONLYGW"> F  </i>
   <i type="int" name="NKREDLFX">     1</i>
   <i type="int" name="NKREDLFY">     1</i>
   <i type="int" name="NKREDLFZ">     1</i>
   <i type="int" name="MAXMEM">  2800</i>
   <i type="int" name="TELESCOPE">     0</i>
   <i type="int" name="NTAUPAR">    -1</i>
   <i type="int" name="NOMEGAPAR">    -1</i>
   <i name="DAMP_NEWTON">      0.80000001</i>
   <i name="LAMBDA">      1.00000000</i>
  </separator>
  <separator name="External order field" >
   <i name="OFIELD_KAPPA">      0.00000000</i>
   <v name="OFIELD_K">      0.00000000      0.00000000      0.00000000</v>
   <i name="OFIELD_Q6_NEAR">      0.00000000</i>
   <i name="OFIELD_Q6_FAR">      0.00000000</i>
   <i name="OFIELD_A">      0.00000000</i>
  </separator>
  <separator name="optional k-points parameters" >
   <i type="int" name="KPOINTS_OPT_MODE">     1</i>
   <i type="logical" name="LKPOINTS_OPT"> F  </i>
  </separator>
 </parameters>
 <atominfo>
  <atoms>       4 </atoms>
  <types>       2 </types>
  <array name="atoms" >
   <dimension dim="1">ion</dimension>
   <field type="string">element</field>
   <field type="int">atomtype</field>
   <set>
    <rc><c>Zn</c><c>   1</c></rc>
    <rc><c>Zn</c><c>   1</c></rc>
    <rc><c>S </c><c>   2</c></rc>
    <rc><c>S </c><c>   2</c></rc>
   </set>
  </array>
  <array name="atomtypes" >
   <dimension dim="1">type</dimension>
   <field type="int">atomspertype</field>
   <field type="string">element</field>
   <field>mass</field>
   <field>valence</field>
   <field type="string">pseudopotential</field>
   <set>
    <rc><c>   2</c><c>Zn</c><c>     65.39000000</c><c>     12.00000000</c><c>  PAW_PBE Zn 06Sep2000                  </c></rc>
    <rc><c>   2</c><c>S </c><c>     32.06600000</c><c>      6.00000000</c><c>  PAW_PBE S 06Sep2000                   </c></rc>
   </set>
  </array>
 </atominfo>
 <structure name="initialpos" >
  <crystal>
   <varray name="basis" >
    <v>       3.78262472      -0.00000000       0.00000000 </v>
    <v>      -1.89131236       3.27584910       0.00000000 </v>
    <v>       0.00000000      -0.00000000       6.19989355 </v>
   </varray>
   <i name="volume">     76.82478924 </i>
   <varray name="rec_basis" >
    <v>       0.26436670       0.15263218       0.00000000 </v>
    <v>       0.00000000       0.30526437       0.00000000 </v>
    <v>      -0.00000000      -0.00000000       0.16129309 </v>
   </varray>
  </crystal>
  <varray name="positions" >
   <v>       0.66666667       0.33333333       0.50017993 </v>
   <v>       0.33333333       0.66666667       0.00017993 </v>
   <v>       0.66666667       0.33333333       0.87482007 </v>
   <v>       0.33333333       0.66666667       0.37482007 </v>
  </varray>
 </structure>
 <calculation>
  <scstep>
   <time name="dav">    0.87    2.55</time>
   <time name="total">    1.37    3.17</time>
   <energy>
    <i name="alphaZ">    147.19195551 </i>
    <i name="ewald">  -2526.24305902 </i>
    <i name="hartreedc">  -1371.25645802 </i>
    <i name="XCdc">    140.98162569 </i>
    <i name="pawpsdc">   3343.44361914 </i>
    <i name="pawaedc">  -3692.01684003 </i>
    <i name="eentropy">     -0.00773959 </i>
    <i name="bandstr">    113.11118603 </i>
    <i name="atom">   4048.10203383 </i>
    <i name="e_fr_energy">    203.30632354 </i>
    <i name="e_wo_entrp">    203.31406313 </i>
    <i name="e_0_energy">    203.31019333 </i>
   </energy>
  </scstep>
  <scstep>
   <time name="dav">    0.72    0.72</time>
   <time name="total">    0.72    0.72</time>
   <energy>
    <i name="e_fr_energy">      1.65072926 </i>
    <i name="e_wo_entrp">      1.65143598 </i>
    <i name="e_0_energy">      1.65108262 </i>
   </energy>
  </scstep>
  <scstep>
   <time name="dav">    0.79    0.79</time>
   <time name="total">    0.79    0.79</time>
   <energy>
    <i name="e_fr_energy">    -15.62220896 </i>
    <i name="e_wo_entrp">    -15.62220896 </i>
    <i name="e_0_energy">    -15.62220896 </i>
   </energy>
  </scstep>
  <scstep>
   <time name="dav">    0.77    0.78</time>
   <time name="total">    0.77    0.78</time>
   <energy>
    <i name="e_fr_energy">    -15.97011202 </i>
    <i name="e_wo_entrp">    -15.97011202 </i>
    <i name="e_0_energy">    -15.97011202 </i>
   </energy>
  </scstep>
  <scstep>
   <time name="dav">    0.79    0.79</time>
   <time name="total">    0.85    0.86</time>
   <energy>
    <i name="e_fr_energy">    -15.97704637 </i>
    <i name="e_wo_entrp">    -15.97704637 </i>
    <i name="e_0_energy">    -15.97704637 </i>
   </energy>
  </scstep>
  <scstep>
   <time name="dav">    0.89    0.89</time>
   <time name="total">    1.02    1.02</time>
   <energy>
    <i name="e_fr_energy">    -15.15121818 </i>
    <i name="e_wo_entrp">    -15.15121818 </i>
    <i name="e_0_energy">    -15.15121818 </i>
   </energy>
  </scstep>
  <scstep>
   <time name="dav">    0.71    0.71</time>
   <time name="total">    0.85    0.85</time>
   <energy>
    <i name="e_fr_energy">    -15.18392052 </i>
    <i name="e_wo_entrp">    -15.18392052 </i>
    <i name="e_0_energy">    -15.18392052 </i>
   </energy>
  </scstep>
  <scstep>
   <time name="dav">    0.87    0.87</time>
   <time name="total">    1.00    1.00</time>
   <energy>
    <i name="e_fr_energy">    -15.16323941 </i>
    <i name="e_wo_entrp">    -15.16323941 </i>
    <i name="e_0_energy">    -15.16323941 </i>
   </energy>
  </scstep>
  <scstep>
   <time name="dav">    0.87    0.87</time>
   <time name="total">    1.00    1.00</time>
   <energy>
    <i name="e_fr_energy">    -15.16269171 </i>
    <i name="e_wo_entrp">    -15.16269171 </i>
    <i name="e_0_energy">    -15.16269171 </i>
   </energy>
  </scstep>
  <scstep>
   <time name="dav">    0.76    0.76</time>
   <time name="total">    0.89    0.90</time>
   <energy>
    <i name="e_fr_energy">    -15.16281128 </i>
    <i name="e_wo_entrp">    -15.16281128 </i>
    <i name="e_0_energy">    -15.16281128 </i>
   </energy>
  </scstep>
  <scstep>
   <time name="dav">    0.77    0.77</time>
   <time name="total">    0.90    0.91</time>
   <energy>
    <i name="e_fr_energy">    -15.16293443 </i>
    <i name="e_wo_entrp">    -15.16293443 </i>
    <i name="e_0_energy">    -15.16293443 </i>
   </energy>
  </scstep>
  <scstep>
   <time name="dav">    0.79    0.80</time>
   <time name="total">    0.93    0.93</time>
   <energy>
    <i name="e_fr_energy">    -15.16293694 </i>
    <i name="e_wo_entrp">    -15.16293694 </i>
    <i name="e_0_energy">    -15.16293694 </i>
   </energy>
  </scstep>
  <scstep>
   <time name="dav">    0.77    0.78</time>
   <time name="total">    0.91    0.91</time>
   <energy>
    <i name="e_fr_energy">    -15.16293759 </i>
    <i name="e_wo_entrp">    -15.16293759 </i>
    <i name="e_0_energy">    -15.16293759 </i>
   </energy>
  </scstep>
  <scstep>
   <time name="dav">    0.80    0.80</time>
   <time name="total">    0.94    0.94</time>
   <energy>
    <i name="e_fr_energy">    -15.16293816 </i>
    <i name="e_wo_entrp">    -15.16293816 </i>
    <i name="e_0_energy">    -15.16293816 </i>
   </energy>
  </scstep>
  <scstep>
   <time name="dav">    0.71    0.71</time>
   <time name="total">    0.84    0.84</time>
   <energy>
    <i name="e_fr_energy">    -15.16293806 </i>
    <i name="e_wo_entrp">    -15.16293806 </i>
    <i name="e_0_energy">    -15.16293806 </i>
   </energy>
  </scstep>
  <scstep>
   <time name="dav">    0.53    0.53</time>
   <time name="total">    0.61    0.61</time>
   <energy>
    <i name="alphaZ">    147.19195551 </i>
    <i name="ewald">  -2526.24305902 </i>
    <i name="hartreedc">  -1354.86070066 </i>
    <i name="XCdc">    141.04204370 </i>
    <i name="pawpsdc">   4296.59774939 </i>
    <i name="pawaedc">  -4646.16554628 </i>
    <i name="eentropy">     -0.00000000 </i>
    <i name="bandstr">   -120.82741450 </i>
    <i name="atom">   4048.10203383 </i>
    <i name="e_fr_energy">    -15.16293803 </i>
    <i name="e_wo_entrp">    -15.16293803 </i>
    <i name="e_0_energy">    -15.16293803 </i>
   </energy>
  </scstep>
  <structure>
   <crystal>
    <varray name="basis" >
     <v>       3.78262472      -0.00000000       0.00000000 </v>
     <v>      -1.89131236       3.27584910       0.00000000 </v>
     <v>       0.00000000      -0.00000000       6.19989355 </v>
    </varray>
    <i name="volume">     76.82478924 </i>
    <varray name="rec_basis" >
     <v>       0.26436670       0.15263218       0.00000000 </v>
     <v>       0.00000000       0.30526437       0.00000000 </v>
     <v>      -0.00000000      -0.00000000       0.16129309 </v>
    </varray>
   </crystal>
   <varray name="positions" >
    <v>       0.66666667       0.33333333       0.50017993 </v>
    <v>       0.33333333       0.66666667       0.00017993 </v>
    <v>       0.66666667       0.33333333       0.87482007 </v>
    <v>       0.33333333       0.66666667       0.37482007 </v>
   </varray>
  </structure>
  <varray name="forces" >
   <v>      -0.00000000       0.00000000       0.00840707 </v>
   <v>       0.00000000       0.00000000       0.00840707 </v>
   <v>       0.00000000      -0.00000000      -0.00840707 </v>
   <v>      -0.00000000       0.00000000      -0.00840707 </v>
  </varray>
  <varray name="stress" >
   <v>      -0.14085761      -0.00000000       0.00000000 </v>
   <v>      -0.00000000      -0.14085761      -0.00000000 </v>
   <v>       0.00000000      -0.00000000       0.40231927 </v>
  </varray>
  <energy>
   <i name="e_fr_energy">    -15.16293803 </i>
   <i name="e_wo_entrp">    -15.16293803 </i>
   <i name="e_0_energy">    -15.16293803 </i>
  </energy>
  <time name="totalsc">   16.11   18.07</time>
 </calculation>
 <calculation>
  <scstep>
   <time name="dav">    0.70    0.70</time>
   <time name="total">    0.83    0.83</time>
   <energy>
    <i name="alphaZ">    147.18169467 </i>
    <i name="ewald">  -2526.19704604 </i>
    <i name="hartreedc">  -1354.81794479 </i>
    <i name="XCdc">    141.03824017 </i>
    <i name="pawpsdc">   4296.66097403 </i>
    <i name="pawaedc">  -4646.22815877 </i>
    <i name="eentropy">     -0.00000000 </i>
    <i name="bandstr">   -120.90276472 </i>
    <i name="atom">   4048.10203383 </i>
    <i name="e_fr_energy">    -15.16297163 </i>
    <i name="e_wo_entrp">    -15.16297163 </i>
    <i name="e_0_energy">    -15.16297163 </i>
   </energy>
  </scstep>
  <scstep>
   <time name="dav">    0.89    0.90</time>
   <time name="total">    1.03    1.03</time>
   <energy>
    <i name="e_fr_energy">    -15.16296080 </i>
    <i name="e_wo_entrp">    -15.16296080 </i>
    <i name="e_0_energy">    -15.16296080 </i>
   </energy>
  </scstep>
  <scstep>
   <time name="dav">    0.78    0.78</time>
   <time name="total">    0.91    0.91</time>
   <energy>
    <i name="e_fr_energy">    -15.16295512 </i>
    <i name="e_wo_entrp">    -15.16295512 </i>
    <i name="e_0_energy">    -15.16295512 </i>
   </energy>
  </scstep>
  <scstep>
   <time name="dav">    0.81    0.81</time>
   <time name="total">    0.94    0.94</time>
   <energy>
    <i name="e_fr_energy">    -15.16295445 </i>
    <i name="e_wo_entrp">    -15.16295445 </i>
    <i name="e_0_energy">    -15.16295445 </i>
   </energy>
  </scstep>
  <scstep>
   <time name="dav">    0.67    0.67</time>
   <time name="total">    0.75    0.75</time>
   <energy>
    <i name="alphaZ">    147.18169467 </i>
    <i name="ewald">  -2526.19704604 </i>
    <i name="hartreedc">  -1354.88102873 </i>
    <i name="XCdc">    141.04132866 </i>
    <i name="pawpsdc">   4296.42989826 </i>
    <i name="pawaedc">  -4645.99604314 </i>
    <i name="eentropy">     -0.00000000 </i>
    <i name="bandstr">   -120.84379197 </i>
    <i name="atom">   4048.10203383 </i>
    <i name="e_fr_energy">    -15.16295446 </i>
    <i name="e_wo_entrp">    -15.16295446 </i>
    <i name="e_0_energy">    -15.16295446 </i>
   </energy>
  </scstep>
  <structure>
   <crystal>
    <varray name="basis" >
     <v>       3.78231659      -0.00000000       0.00000000 </v>
     <v>      -1.89115829       3.27558225      -0.00000000 </v>
     <v>       0.00000000      -0.00000000       6.20133606 </v>
    </varray>
    <i name="volume">     76.83014512 </i>
    <varray name="rec_basis" >
     <v>       0.26438823       0.15264462       0.00000000 </v>
     <v>       0.00000000       0.30528924       0.00000000 </v>
     <v>      -0.00000000       0.00000000       0.16125557 </v>
    </varray>
   </crystal>
   <varray name="positions" >
    <v>       0.66666667       0.33333333       0.50024535 </v>
    <v>       0.33333333       0.66666667       0.00024535 </v>
    <v>       0.66666667       0.33333333       0.87475465 </v>
    <v>       0.33333333       0.66666667       0.37475465 </v>
   </varray>
  </structure>
  <varray name="forces" >
   <v>       0.00000000      -0.00000000       0.00559732 </v>
   <v>      -0.00000000      -0.00000000       0.00559732 </v>
   <v>       0.00000000       0.00000000      -0.00559732 </v>
   <v>      -0.00000000       0.00000000      -0.00559732 </v>
  </varray>
  <varray name="stress" >
   <v>      -0.16532500      -0.00000000      -0.00000000 </v>
   <v>      -0.00000000      -0.16532500      -0.00000000 </v>
   <v>       0.00000000       0.00000000       0.28352588 </v>
  </varray>
  <energy>
   <i name="e_fr_energy">    -15.16295446 </i>
   <i name="e_wo_entrp">    -15.16295446 </i>
   <i name="e_0_energy">    -15.16295446 </i>
  </energy>
  <time name="totalsc">    6.15    6.17</time>
 </calculation>
 <calculation>
  <scstep>
   <time name="dav">    0.69    0.69</time>
   <time name="total">    0.82    0.83</time>
   <energy>
    <i name="alphaZ">    147.15733780 </i>
    <i name="ewald">  -2526.08836805 </i>
    <i name="hartreedc">  -1354.78050453 </i>
    <i name="XCdc">    141.03239867 </i>
    <i name="pawpsdc">   4296.43912507 </i>
    <i name="pawaedc">  -4646.00474454 </i>
    <i name="eentropy">     -0.00000000 </i>
    <i name="bandstr">   -121.02034450 </i>
    <i name="atom">   4048.10203383 </i>
    <i name="e_fr_energy">    -15.16306625 </i>
    <i name="e_wo_entrp">    -15.16306625 </i>
    <i name="e_0_energy">    -15.16306625 </i>
   </energy>
  </scstep>
  <scstep>
   <time name="dav">    0.89    0.89</time>
   <time name="total">    1.02    1.02</time>
   <energy>
    <i name="e_fr_energy">    -15.16300345 </i>
    <i name="e_wo_entrp">    -15.16300345 </i>
    <i name="e_0_energy">    -15.16300345 </i>
   </energy>
  </scstep>
  <scstep>
   <time name="dav">    0.77    0.78</time>
   <time name="total">    0.91    0.91</time>
   <energy>
    <i name="e_fr_energy">    -15.16297242 </i>
    <i name="e_wo_entrp">    -15.16297242 </i>
    <i name="e_0_energy">    -15.16297242 </i>
   </energy>
  </scstep>
  <scstep>
   <time name="dav">    0.80    0.80</time>
   <time name="total">    0.93    0.94</time>
   <energy>
    <i name="e_fr_energy">    -15.16296909 </i>
    <i name="e_wo_entrp">    -15.16296909 </i>
    <i name="e_0_energy">    -15.16296909 </i>
   </energy>
  </scstep>
  <scstep>
   <time name="dav">    0.75    0.75</time>
   <time name="total">    0.88    0.89</time>
   <energy>
    <i name="e_fr_energy">    -15.16296917 </i>
    <i name="e_wo_entrp">    -15.16296917 </i>
    <i name="e_0_energy">    -15.16296917 </i>
   </energy>
  </scstep>
  <scstep>
   <time name="dav">    0.49    0.49</time>
   <time name="total">    0.57    0.57</time>
   <energy>
    <i name="alphaZ">    147.15733780 </i>
    <i name="ewald">  -2526.08836805 </i>
    <i name="hartreedc">  -1354.93003652 </i>
    <i name="XCdc">    141.03979149 </i>
    <i name="pawpsdc">   4295.97492801 </i>
    <i name="pawaedc">  -4645.53785681 </i>
    <i name="eentropy">     -0.00000000 </i>
    <i name="bandstr">   -120.88079890 </i>
    <i name="atom">   4048.10203383 </i>
    <i name="e_fr_energy">    -15.16296915 </i>
    <i name="e_wo_entrp">    -15.16296915 </i>
    <i name="e_0_energy">    -15.16296915 </i>
   </energy>
  </scstep>
  <structure>
   <crystal>
    <varray name="basis" >
     <v>       3.78158387      -0.00000000       0.00000000 </v>
     <v>      -1.89079194       3.27494770      -0.00000000 </v>
     <v>       0.00000000      -0.00000000       6.20476623 </v>
    </varray>
    <i name="volume">     76.84286172 </i>
    <varray name="rec_basis" >
     <v>       0.26443946       0.15267419       0.00000000 </v>
     <v>       0.00000000       0.30534839       0.00000000 </v>
     <v>      -0.00000000       0.00000000       0.16116643 </v>
    </varray>
   </crystal>
   <varray name="positions" >
    <v>       0.66666667       0.33333333       0.50040087 </v>
    <v>       0.33333333       0.66666667       0.00040087 </v>
    <v>       0.66666667       0.33333333       0.87459913 </v>
    <v>       0.33333333       0.66666667       0.37459913 </v>
   </varray>
  </structure>
  <varray name="forces" >
   <v>       0.00000000       0.00000000      -0.00117425 </v>
   <v>      -0.00000000       0.00000000      -0.00117425 </v>
   <v>       0.00000000      -0.00000000       0.00117425 </v>
   <v>      -0.00000000      -0.00000000       0.00117425 </v>
  </varray>
  <varray name="stress" >
   <v>      -0.12745650      -0.00000000      -0.00000000 </v>
   <v>      -0.00000000      -0.12745650       0.00000000 </v>
   <v>       0.00000000       0.00000000       0.02578191 </v>
  </varray>
  <energy>
   <i name="e_fr_energy">    -15.16296915 </i>
   <i name="e_wo_entrp">    -15.16296915 </i>
   <i name="e_0_energy">    -15.16296915 </i>
  </energy>
  <time name="totalsc">    6.73    6.75</time>
  <eigenvalues>
   <array>
    <dimension dim="1">band</dimension>
    <dimension dim="2">kpoint</dimension>
    <dimension dim="3">spin</dimension>
    <field>eigene</field>
    <field>occ</field>
    <set>
     <set comment="spin 1">
      <set comment="kpoint 1">
       <r>  -11.0738    1.0000 </r>
       <r>  -10.1094    1.0000 </r>
       <r>   -4.1959    1.0000 </r>
       <r>   -4.1766    1.0000 </r>
       <r>   -4.1766    1.0000 </r>
       <r>   -4.0938    1.0000 </r>
       <r>   -4.0938    1.0000 </r>
       <r>   -3.7065    1.0000 </r>
       <r>   -3.7065    1.0000 </r>
       <r>   -3.6527    1.0000 </r>
       <r>   -3.6255    1.0000 </r>
       <r>   -3.6255    1.0000 </r>
       <r>   -3.0411    1.0000 </r>
       <r>    1.3613    1.0000 </r>
       <r>    1.3613    1.0000 </r>
       <r>    2.0220    1.0000 </r>
       <r>    2.2696    1.0000 </r>
       <r>    2.2696    1.0000 </r>
       <r>    4.6096    0.0000 </r>
       <r>    5.3290    0.0000 </r>
       <r>    8.4977    0.0000 </r>
       <r>    8.4977    0.0000 </r>
      </set>
      <set comment="kpoint 2">
       <r>  -11.0024    1.0000 </r>
       <r>  -10.0679    1.0000 </r>
       <r>   -4.1938    1.0000 </r>
       <r>   -4.1717    1.0000 </r>
       <r>   -4.1623    1.0000 </r>
       <r>   -4.0879    1.0000 </r>
       <r>   -4.0731    1.0000 </r>
       <r>   -3.7240    1.0000 </r>
       <r>   -3.7118    1.0000 </r>
       <r>   -3.7073    1.0000 </r>
       <r>   -3.6223    1.0000 </r>
       <r>   -3.5407    1.0000 </r>
       <r>   -2.9675    1.0000 </r>
       <r>    0.8029    1.0000 </r>
       <r>    1.1939    1.0000 </r>
       <r>    1.5506    1.0000 </r>
       <r>    2.0667    1.0000 </r>
       <r>    2.1782    1.0000 </r>
       <r>    5.1321    0.0000 </r>
       <r>    5.8369    0.0000 </r>
       <r>    8.1639    0.0000 </r>
       <r>    8.7053    0.0000 </r>
      </set>
      <set comment="kpoint 3">
       <r>  -10.8022    1.0000 </r>
       <r>   -9.9606    1.0000 </r>
       <r>   -4.2052    1.0000 </r>
       <r>   -4.1438    1.0000 </r>
       <r>   -4.1277    1.0000 </r>
       <r>   -4.0577    1.0000 </r>
       <r>   -4.0177    1.0000 </r>
       <r>   -3.7633    1.0000 </r>
       <r>   -3.7320    1.0000 </r>
       <r>   -3.7031    1.0000 </r>
       <r>   -3.6143    1.0000 </r>
       <r>   -3.4638    1.0000 </r>
       <r>   -2.7515    1.0000 </r>
       <r>   -0.2822    1.0000 </r>
       <r>    0.4970    1.0000 </r>
       <r>    0.8043    1.0000 </r>
       <r>    1.7939    1.0000 </r>
       <r>    1.9351    1.0000 </r>
       <r>    5.8828    0.0000 </r>
       <r>    6.3881    0.0000 </r>
       <r>    8.0393    0.0000 </r>
       <r>    8.7849    0.0000 </r>
      </set>
      <set comment="kpoint 4">
       <r>  -10.5177    1.0000 </r>
       <r>   -9.8374    1.0000 </r>
       <r>   -4.2071    1.0000 </r>
       <r>   -4.1152    1.0000 </r>
       <r>   -4.0927    1.0000 </r>
       <r>   -3.9793    1.0000 </r>
       <r>   -3.9460    1.0000 </r>
       <r>   -3.7970    1.0000 </r>
       <r>   -3.7274    1.0000 </r>
       <r>   -3.6831    1.0000 </r>
       <r>   -3.6036    1.0000 </r>
       <r>   -3.3853    1.0000 </r>
       <r>   -2.5332    1.0000 </r>
       <r>   -1.2189    1.0000 </r>
       <r>   -0.5417    1.0000 </r>
       <r>    0.3831    1.0000 </r>
       <r>    1.3532    1.0000 </r>
       <r>    1.6416    1.0000 </r>
       <r>    6.0562    0.0000 </r>
       <r>    6.3972    0.0000 </r>
       <r>    8.0150    0.0000 </r>
       <r>    8.7003    0.0000 </r>
      </set>
      <set comment="kpoint 5">
       <r>  -10.2334    1.0000 </r>
       <r>   -9.7653    1.0000 </r>
       <r>   -4.1923    1.0000 </r>
       <r>   -4.0724    1.0000 </r>
       <r>   -4.0609    1.0000 </r>
       <r>   -3.8869    1.0000 </r>
       <r>   -3.8719    1.0000 </r>
       <r>   -3.8458    1.0000 </r>
       <r>   -3.6845    1.0000 </r>
       <r>   -3.6525    1.0000 </r>
       <r>   -3.5924    1.0000 </r>
       <r>   -3.3066    1.0000 </r>
       <r>   -2.6851    1.0000 </r>
       <r>   -1.6623    1.0000 </r>
       <r>   -1.1341    1.0000 </r>
       <r>    0.0713    1.0000 </r>
       <r>    0.8284    1.0000 </r>
       <r>    1.4133    1.0000 </r>
       <r>    5.8773    0.0000 </r>
       <r>    6.3454    0.0000 </r>
       <r>    7.6152    0.0000 </r>
       <r>    9.0945    0.0000 </r>
      </set>
      <set comment="kpoint 6">
       <r>  -10.0953    1.0000 </r>
       <r>   -9.7600    1.0000 </r>
       <r>   -4.1853    1.0000 </r>
       <r>   -4.0667    1.0000 </r>
       <r>   -3.9858    1.0000 </r>
       <r>   -3.9257    1.0000 </r>
       <r>   -3.8648    1.0000 </r>
       <r>   -3.7917    1.0000 </r>
       <r>   -3.6369    1.0000 </r>
       <r>   -3.5872    1.0000 </r>
       <r>   -3.5257    1.0000 </r>
       <r>   -3.4877    1.0000 </r>
       <r>   -2.7172    1.0000 </r>
       <r>   -2.0170    1.0000 </r>
       <r>   -1.0562    1.0000 </r>
       <r>   -0.0434    1.0000 </r>
       <r>    0.5415    1.0000 </r>
       <r>    1.3282    1.0000 </r>
       <r>    5.8176    0.0000 </r>
       <r>    6.2748    0.0000 </r>
       <r>    7.4645    0.0000 </r>
       <r>    9.1514    0.0000 </r>
      </set>
      <set comment="kpoint 7">
       <r>  -10.8665    1.0000 </r>
       <r>   -9.9935    1.0000 </r>
       <r>   -4.1964    1.0000 </r>
       <r>   -4.1490    1.0000 </r>
       <r>   -4.1440    1.0000 </r>
       <r>   -4.0742    1.0000 </r>
       <r>   -4.0328    1.0000 </r>
       <r>   -3.7535    1.0000 </r>
       <r>   -3.7301    1.0000 </r>
       <r>   -3.7050    1.0000 </r>
       <r>   -3.6172    1.0000 </r>
       <r>   -3.4819    1.0000 </r>
       <r>   -2.8199    1.0000 </r>
       <r>    0.0958    1.0000 </r>
       <r>    0.6130    1.0000 </r>
       <r>    1.0313    1.0000 </r>
       <r>    1.8944    1.0000 </r>
       <r>    1.9378    1.0000 </r>
       <r>    5.7568    0.0000 </r>
       <r>    6.4846    0.0000 </r>
       <r>    7.8453    0.0000 </r>
       <r>    8.7633    0.0000 </r>
      </set>
      <set comment="kpoint 8">
       <r>  -10.6227    1.0000 </r>
       <r>   -9.8778    1.0000 </r>
       <r>   -4.1908    1.0000 </r>
       <r>   -4.1238    1.0000 </r>
       <r>   -4.1108    1.0000 </r>
       <r>   -4.0283    1.0000 </r>
       <r>   -3.9649    1.0000 </r>
       <r>   -3.7726    1.0000 </r>
       <r>   -3.7426    1.0000 </r>
       <r>   -3.6969    1.0000 </r>
       <r>   -3.6077    1.0000 </r>
       <r>   -3.4148    1.0000 </r>
       <r>   -2.5837    1.0000 </r>
       <r>   -0.7996    1.0000 </r>
       <r>   -0.2451    1.0000 </r>
       <r>    0.4045    1.0000 </r>
       <r>    1.5435    1.0000 </r>
       <r>    1.5825    1.0000 </r>
       <r>    6.3631    0.0000 </r>
       <r>    6.7975    0.0000 </r>
       <r>    8.0473    0.0000 </r>
       <r>    8.3341    0.0000 </r>
      </set>
      <set comment="kpoint 9">
       <r>  -10.3325    1.0000 </r>
       <r>   -9.7814    1.0000 </r>
       <r>   -4.1770    1.0000 </r>
       <r>   -4.0905    1.0000 </r>
       <r>   -4.0693    1.0000 </r>
       <r>   -3.9400    1.0000 </r>
       <r>   -3.8931    1.0000 </r>
       <r>   -3.8126    1.0000 </r>
       <r>   -3.7207    1.0000 </r>
       <r>   -3.6759    1.0000 </r>
       <r>   -3.5931    1.0000 </r>
       <r>   -3.3179    1.0000 </r>
       <r>   -2.5520    1.0000 </r>
       <r>   -1.4089    1.0000 </r>
       <r>   -0.9738    1.0000 </r>
       <r>   -0.1025    1.0000 </r>
       <r>    1.0613    1.0000 </r>
       <r>    1.2458    1.0000 </r>
       <r>    6.4161    0.0000 </r>
       <r>    6.7418    0.0000 </r>
       <r>    7.6822    0.0000 </r>
       <r>    8.7479    0.0000 </r>
      </set>
      <set comment="kpoint 10">
       <r>  -10.1027    1.0000 </r>
       <r>   -9.7564    1.0000 </r>
       <r>   -4.1715    1.0000 </r>
       <r>   -4.0693    1.0000 </r>
       <r>   -3.9842    1.0000 </r>
       <r>   -3.8823    1.0000 </r>
       <r>   -3.8673    1.0000 </r>
       <r>   -3.8091    1.0000 </r>
       <r>   -3.6618    1.0000 </r>
       <r>   -3.6481    1.0000 </r>
       <r>   -3.5611    1.0000 </r>
       <r>   -3.3566    1.0000 </r>
       <r>   -2.6956    1.0000 </r>
       <r>   -1.8874    1.0000 </r>
       <r>   -1.0661    1.0000 </r>
       <r>   -0.2983    1.0000 </r>
       <r>    0.5825    1.0000 </r>
       <r>    1.0548    1.0000 </r>
       <r>    6.3383    0.0000 </r>
       <r>    6.6007    0.0000 </r>
       <r>    7.4190    0.0000 </r>
       <r>    9.0261    0.0000 </r>
      </set>
      <set comment="kpoint 11">
       <r>  -10.3693    1.0000 </r>
       <r>   -9.7891    1.0000 </r>
       <r>   -4.1367    1.0000 </r>
       <r>   -4.1207    1.0000 </r>
       <r>   -4.0602    1.0000 </r>
       <r>   -3.9818    1.0000 </r>
       <r>   -3.8983    1.0000 </r>
       <r>   -3.7677    1.0000 </r>
       <r>   -3.7574    1.0000 </r>
       <r>   -3.6924    1.0000 </r>
       <r>   -3.5927    1.0000 </r>
       <r>   -3.3269    1.0000 </r>
       <r>   -2.4934    1.0000 </r>
       <r>   -1.0466    1.0000 </r>
       <r>   -1.0344    1.0000 </r>
       <r>   -0.3022    1.0000 </r>
       <r>    1.0121    1.0000 </r>
       <r>    1.1736    1.0000 </r>
       <r>    6.9746    0.0000 </r>
       <r>    7.3929    0.0000 </r>
       <r>    7.7142    0.0000 </r>
       <r>    8.1215    0.0000 </r>
      </set>
      <set comment="kpoint 12">
       <r>  -10.1142    1.0000 </r>
       <r>   -9.7509    1.0000 </r>
       <r>   -4.1523    1.0000 </r>
       <r>   -4.0521    1.0000 </r>
       <r>   -3.9635    1.0000 </r>
       <r>   -3.9157    1.0000 </r>
       <r>   -3.8455    1.0000 </r>
       <r>   -3.7891    1.0000 </r>
       <r>   -3.7264    1.0000 </r>
       <r>   -3.6846    1.0000 </r>
       <r>   -3.5635    1.0000 </r>
       <r>   -3.2635    1.0000 </r>
       <r>   -2.5902    1.0000 </r>
       <r>   -1.6785    1.0000 </r>
       <r>   -1.0394    1.0000 </r>
       <r>   -0.7404    1.0000 </r>
       <r>    0.5821    1.0000 </r>
       <r>    0.6880    1.0000 </r>
       <r>    6.8328    0.0000 </r>
       <r>    7.4121    0.0000 </r>
       <r>    7.6487    0.0000 </r>
       <r>    8.9608    0.0000 </r>
      </set>
      <set comment="kpoint 13">
       <r>   -9.9814    1.0000 </r>
       <r>   -9.7673    1.0000 </r>
       <r>   -4.1588    1.0000 </r>
       <r>   -4.0366    1.0000 </r>
       <r>   -3.9212    1.0000 </r>
       <r>   -3.8478    1.0000 </r>
       <r>   -3.8460    1.0000 </r>
       <r>   -3.7743    1.0000 </r>
       <r>   -3.6787    1.0000 </r>
       <r>   -3.6749    1.0000 </r>
       <r>   -3.4810    1.0000 </r>
       <r>   -3.4113    1.0000 </r>
       <r>   -2.5418    1.0000 </r>
       <r>   -1.9902    1.0000 </r>
       <r>   -1.2888    1.0000 </r>
       <r>   -0.4880    1.0000 </r>
       <r>    0.3069    1.0000 </r>
       <r>    0.4736    1.0000 </r>
       <r>    6.6253    0.0000 </r>
       <r>    7.4970    0.0000 </r>
       <r>    7.6379    0.0000 </r>
       <r>    9.3338    0.0000 </r>
      </set>
      <set comment="kpoint 14">
       <r>   -9.9234    1.0000 </r>
       <r>   -9.7839    1.0000 </r>
       <r>   -4.1608    1.0000 </r>
       <r>   -3.9934    1.0000 </r>
       <r>   -3.9402    1.0000 </r>
       <r>   -3.8391    1.0000 </r>
       <r>   -3.7958    1.0000 </r>
       <r>   -3.7502    1.0000 </r>
       <r>   -3.7044    1.0000 </r>
       <r>   -3.6944    1.0000 </r>
       <r>   -3.4975    1.0000 </r>
       <r>   -3.3452    1.0000 </r>
       <r>   -2.3981    1.0000 </r>
       <r>   -2.0240    1.0000 </r>
       <r>   -1.5849    1.0000 </r>
       <r>   -0.3869    1.0000 </r>
       <r>    0.1390    1.0000 </r>
       <r>    0.2071    1.0000 </r>
       <r>    6.4723    0.0000 </r>
       <r>    7.9177    0.0000 </r>
       <r>    8.2023    0.0000 </r>
       <r>    9.5543    0.0000 </r>
      </set>
      <set comment="kpoint 15">
       <r>  -10.9627    1.0000 </r>
       <r>  -10.2609    1.0000 </r>
       <r>   -4.2054    1.0000 </r>
       <r>   -4.1692    1.0000 </r>
       <r>   -4.1691    1.0000 </r>
       <r>   -4.1086    1.0000 </r>
       <r>   -4.1086    1.0000 </r>
       <r>   -3.9837    1.0000 </r>
       <r>   -3.6929    1.0000 </r>
       <r>   -3.6929    1.0000 </r>
       <r>   -3.6334    1.0000 </r>
       <r>   -3.6334    1.0000 </r>
       <r>   -2.2450    1.0000 </r>
       <r>    1.0594    1.0000 </r>
       <r>    1.4737    1.0000 </r>
       <r>    1.4737    1.0000 </r>
       <r>    2.1372    1.0000 </r>
       <r>    2.1372    1.0000 </r>
       <r>    5.3698    0.0000 </r>
       <r>    5.4668    0.0000 </r>
       <r>    8.4391    0.0000 </r>
       <r>    8.5854    0.0000 </r>
      </set>
      <set comment="kpoint 16">
       <r>  -10.8940    1.0000 </r>
       <r>  -10.2134    1.0000 </r>
       <r>   -4.2091    1.0000 </r>
       <r>   -4.1598    1.0000 </r>
       <r>   -4.1538    1.0000 </r>
       <r>   -4.1080    1.0000 </r>
       <r>   -4.0887    1.0000 </r>
       <r>   -3.9726    1.0000 </r>
       <r>   -3.6993    1.0000 </r>
       <r>   -3.6937    1.0000 </r>
       <r>   -3.6313    1.0000 </r>
       <r>   -3.6208    1.0000 </r>
       <r>   -2.1935    1.0000 </r>
       <r>    0.8226    1.0000 </r>
       <r>    0.9622    1.0000 </r>
       <r>    1.3138    1.0000 </r>
       <r>    1.8345    1.0000 </r>
       <r>    2.0320    1.0000 </r>
       <r>    5.7542    0.0000 </r>
       <r>    5.9718    0.0000 </r>
       <r>    8.0935    0.0000 </r>
       <r>    8.7198    0.0000 </r>
      </set>
      <set comment="kpoint 17">
       <r>  -10.7020    1.0000 </r>
       <r>  -10.0879    1.0000 </r>
       <r>   -4.2202    1.0000 </r>
       <r>   -4.1459    1.0000 </r>
       <r>   -4.1157    1.0000 </r>
       <r>   -4.0774    1.0000 </r>
       <r>   -4.0354    1.0000 </r>
       <r>   -3.9425    1.0000 </r>
       <r>   -3.7116    1.0000 </r>
       <r>   -3.6903    1.0000 </r>
       <r>   -3.6253    1.0000 </r>
       <r>   -3.5863    1.0000 </r>
       <r>   -2.0820    1.0000 </r>
       <r>   -0.1297    1.0000 </r>
       <r>    0.1412    1.0000 </r>
       <r>    0.9394    1.0000 </r>
       <r>    1.5216    1.0000 </r>
       <r>    1.7623    1.0000 </r>
       <r>    6.0572    0.0000 </r>
       <r>    6.6229    0.0000 </r>
       <r>    8.0605    0.0000 </r>
       <r>    8.3871    0.0000 </r>
      </set>
      <set comment="kpoint 18">
       <r>  -10.4326    1.0000 </r>
       <r>   -9.9346    1.0000 </r>
       <r>   -4.2232    1.0000 </r>
       <r>   -4.1371    1.0000 </r>
       <r>   -4.0750    1.0000 </r>
       <r>   -3.9930    1.0000 </r>
       <r>   -3.9674    1.0000 </r>
       <r>   -3.9053    1.0000 </r>
       <r>   -3.7071    1.0000 </r>
       <r>   -3.6737    1.0000 </r>
       <r>   -3.6160    1.0000 </r>
       <r>   -3.5234    1.0000 </r>
       <r>   -2.1671    1.0000 </r>
       <r>   -1.0515    1.0000 </r>
       <r>   -0.6094    1.0000 </r>
       <r>    0.5326    1.0000 </r>
       <r>    1.2836    1.0000 </r>
       <r>    1.4466    1.0000 </r>
       <r>    5.8194    0.0000 </r>
       <r>    6.5453    0.0000 </r>
       <r>    7.9300    0.0000 </r>
       <r>    8.4740    0.0000 </r>
      </set>
      <set comment="kpoint 19">
       <r>  -10.1699    1.0000 </r>
       <r>   -9.8261    1.0000 </r>
       <r>   -4.2113    1.0000 </r>
       <r>   -4.1113    1.0000 </r>
       <r>   -4.0491    1.0000 </r>
       <r>   -3.9125    1.0000 </r>
       <r>   -3.9025    1.0000 </r>
       <r>   -3.8668    1.0000 </r>
       <r>   -3.6498    1.0000 </r>
       <r>   -3.6475    1.0000 </r>
       <r>   -3.6051    1.0000 </r>
       <r>   -3.4084    1.0000 </r>
       <r>   -2.6555    1.0000 </r>
       <r>   -1.8634    1.0000 </r>
       <r>   -0.6256    1.0000 </r>
       <r>    0.2311    1.0000 </r>
       <r>    0.9801    1.0000 </r>
       <r>    1.2047    1.0000 </r>
       <r>    5.6420    0.0000 </r>
       <r>    6.1548    0.0000 </r>
       <r>    7.8652    0.0000 </r>
       <r>    8.3100    0.0000 </r>
      </set>
      <set comment="kpoint 20">
       <r>  -10.0464    1.0000 </r>
       <r>   -9.7998    1.0000 </r>
       <r>   -4.2049    1.0000 </r>
       <r>   -4.0865    1.0000 </r>
       <r>   -4.0411    1.0000 </r>
       <r>   -3.9106    1.0000 </r>
       <r>   -3.8920    1.0000 </r>
       <r>   -3.7972    1.0000 </r>
       <r>   -3.6336    1.0000 </r>
       <r>   -3.5996    1.0000 </r>
       <r>   -3.4772    1.0000 </r>
       <r>   -3.4702    1.0000 </r>
       <r>   -2.8582    1.0000 </r>
       <r>   -2.2939    1.0000 </r>
       <r>   -0.4771    1.0000 </r>
       <r>    0.1204    1.0000 </r>
       <r>    0.7924    1.0000 </r>
       <r>    1.1150    1.0000 </r>
       <r>    5.6347    0.0000 </r>
       <r>    5.9392    0.0000 </r>
       <r>    7.9080    0.0000 </r>
       <r>    8.1589    0.0000 </r>
      </set>
      <set comment="kpoint 21">
       <r>  -10.7634    1.0000 </r>
       <r>  -10.1268    1.0000 </r>
       <r>   -4.2132    1.0000 </r>
       <r>   -4.1387    1.0000 </r>
       <r>   -4.1371    1.0000 </r>
       <r>   -4.0971    1.0000 </r>
       <r>   -4.0494    1.0000 </r>
       <r>   -3.9526    1.0000 </r>
       <r>   -3.7090    1.0000 </r>
       <r>   -3.6919    1.0000 </r>
       <r>   -3.6275    1.0000 </r>
       <r>   -3.5967    1.0000 </r>
       <r>   -2.1091    1.0000 </r>
       <r>    0.2716    1.0000 </r>
       <r>    0.2986    1.0000 </r>
       <r>    0.9973    1.0000 </r>
       <r>    1.6246    1.0000 </r>
       <r>    1.7704    1.0000 </r>
       <r>    6.1597    0.0000 </r>
       <r>    6.6095    0.0000 </r>
       <r>    7.8923    0.0000 </r>
       <r>    8.5687    0.0000 </r>
      </set>
      <set comment="kpoint 22">
       <r>  -10.5314    1.0000 </r>
       <r>   -9.9868    1.0000 </r>
       <r>   -4.2089    1.0000 </r>
       <r>   -4.1329    1.0000 </r>
       <r>   -4.0963    1.0000 </r>
       <r>   -4.0443    1.0000 </r>
       <r>   -3.9851    1.0000 </r>
       <r>   -3.9209    1.0000 </r>
       <r>   -3.7173    1.0000 </r>
       <r>   -3.6810    1.0000 </r>
       <r>   -3.6189    1.0000 </r>
       <r>   -3.5472    1.0000 </r>
       <r>   -2.0679    1.0000 </r>
       <r>   -0.6341    1.0000 </r>
       <r>   -0.3945    1.0000 </r>
       <r>    0.4857    1.0000 </r>
       <r>    1.3425    1.0000 </r>
       <r>    1.4516    1.0000 </r>
       <r>    6.2484    0.0000 </r>
       <r>    7.0143    0.0000 </r>
       <r>    7.9768    0.0000 </r>
       <r>    8.3558    0.0000 </r>
      </set>
      <set comment="kpoint 23">
       <r>  -10.2603    1.0000 </r>
       <r>   -9.8561    1.0000 </r>
       <r>   -4.1937    1.0000 </r>
       <r>   -4.1142    1.0000 </r>
       <r>   -4.0560    1.0000 </r>
       <r>   -3.9526    1.0000 </r>
       <r>   -3.9188    1.0000 </r>
       <r>   -3.8943    1.0000 </r>
       <r>   -3.6990    1.0000 </r>
       <r>   -3.6609    1.0000 </r>
       <r>   -3.6019    1.0000 </r>
       <r>   -3.4495    1.0000 </r>
       <r>   -2.3917    1.0000 </r>
       <r>   -1.4887    1.0000 </r>
       <r>   -0.6484    1.0000 </r>
       <r>    0.0576    1.0000 </r>
       <r>    0.9789    1.0000 </r>
       <r>    1.1891    1.0000 </r>
       <r>    6.0470    0.0000 </r>
       <r>    6.7880    0.0000 </r>
       <r>    7.9055    0.0000 </r>
       <r>    8.3540    0.0000 </r>
      </set>
      <set comment="kpoint 24">
       <r>  -10.0525    1.0000 </r>
       <r>   -9.7980    1.0000 </r>
       <r>   -4.1846    1.0000 </r>
       <r>   -4.0716    1.0000 </r>
       <r>   -4.0427    1.0000 </r>
       <r>   -3.8984    1.0000 </r>
       <r>   -3.8903    1.0000 </r>
       <r>   -3.8245    1.0000 </r>
       <r>   -3.6495    1.0000 </r>
       <r>   -3.6373    1.0000 </r>
       <r>   -3.5437    1.0000 </r>
       <r>   -3.3689    1.0000 </r>
       <r>   -2.7894    1.0000 </r>
       <r>   -2.1505    1.0000 </r>
       <r>   -0.5762    1.0000 </r>
       <r>   -0.0576    1.0000 </r>
       <r>    0.7226    1.0000 </r>
       <r>    0.9318    1.0000 </r>
       <r>    5.9474    0.0000 </r>
       <r>    6.4902    0.0000 </r>
       <r>    8.0316    0.0000 </r>
       <r>    8.1806    0.0000 </r>
      </set>
      <set comment="kpoint 25">
       <r>  -10.2942    1.0000 </r>
       <r>   -9.8687    1.0000 </r>
       <r>   -4.1551    1.0000 </r>
       <r>   -4.1305    1.0000 </r>
       <r>   -4.0468    1.0000 </r>
       <r>   -3.9944    1.0000 </r>
       <r>   -3.9259    1.0000 </r>
       <r>   -3.9001    1.0000 </r>
       <r>   -3.7195    1.0000 </r>
       <r>   -3.6672    1.0000 </r>
       <r>   -3.6001    1.0000 </r>
       <r>   -3.4603    1.0000 </r>
       <r>   -2.2523    1.0000 </r>
       <r>   -1.2722    1.0000 </r>
       <r>   -0.5470    1.0000 </r>
       <r>   -0.2280    1.0000 </r>
       <r>    0.7786    1.0000 </r>
       <r>    1.2378    1.0000 </r>
       <r>    6.5705    0.0000 </r>
       <r>    7.3218    0.0000 </r>
       <r>    8.0771    0.0000 </r>
       <r>    8.2591    0.0000 </r>
      </set>
      <set comment="kpoint 26">
       <r>  -10.0622    1.0000 </r>
       <r>   -9.7952    1.0000 </r>
       <r>   -4.1405    1.0000 </r>
       <r>   -4.0826    1.0000 </r>
       <r>   -3.9942    1.0000 </r>
       <r>   -3.9262    1.0000 </r>
       <r>   -3.8819    1.0000 </r>
       <r>   -3.8529    1.0000 </r>
       <r>   -3.6992    1.0000 </r>
       <r>   -3.6639    1.0000 </r>
       <r>   -3.5533    1.0000 </r>
       <r>   -3.3343    1.0000 </r>
       <r>   -2.5937    1.0000 </r>
       <r>   -1.9068    1.0000 </r>
       <r>   -0.8367    1.0000 </r>
       <r>   -0.2646    1.0000 </r>
       <r>    0.3308    1.0000 </r>
       <r>    0.9316    1.0000 </r>
       <r>    6.5979    0.0000 </r>
       <r>    7.3069    0.0000 </r>
       <r>    7.8495    0.0000 </r>
       <r>    8.4950    0.0000 </r>
      </set>
      <set comment="kpoint 27">
       <r>   -9.9467    1.0000 </r>
       <r>   -9.7892    1.0000 </r>
       <r>   -4.1427    1.0000 </r>
       <r>   -4.0493    1.0000 </r>
       <r>   -4.0043    1.0000 </r>
       <r>   -3.8834    1.0000 </r>
       <r>   -3.8500    1.0000 </r>
       <r>   -3.8074    1.0000 </r>
       <r>   -3.6715    1.0000 </r>
       <r>   -3.6693    1.0000 </r>
       <r>   -3.4494    1.0000 </r>
       <r>   -3.3641    1.0000 </r>
       <r>   -2.6915    1.0000 </r>
       <r>   -2.2544    1.0000 </r>
       <r>   -1.0588    1.0000 </r>
       <r>   -0.0037    1.0000 </r>
       <r>    0.1474    1.0000 </r>
       <r>    0.7048    1.0000 </r>
       <r>    6.5113    0.0000 </r>
       <r>    7.4445    0.0000 </r>
       <r>    7.7534    0.0000 </r>
       <r>    8.3315    0.0000 </r>
      </set>
      <set comment="kpoint 28">
       <r>   -9.8978    1.0000 </r>
       <r>   -9.7952    1.0000 </r>
       <r>   -4.1282    1.0000 </r>
       <r>   -4.0345    1.0000 </r>
       <r>   -3.9886    1.0000 </r>
       <r>   -3.8842    1.0000 </r>
       <r>   -3.8166    1.0000 </r>
       <r>   -3.7878    1.0000 </r>
       <r>   -3.7003    1.0000 </r>
       <r>   -3.6885    1.0000 </r>
       <r>   -3.4511    1.0000 </r>
       <r>   -3.3147    1.0000 </r>
       <r>   -2.5628    1.0000 </r>
       <r>   -2.2542    1.0000 </r>
       <r>   -1.3967    1.0000 </r>
       <r>   -0.1606    1.0000 </r>
       <r>    0.1256    1.0000 </r>
       <r>    0.5902    1.0000 </r>
       <r>    6.9640    0.0000 </r>
       <r>    7.2233    0.0000 </r>
       <r>    7.7401    0.0000 </r>
       <r>    9.2638    0.0000 </r>
      </set>
      <set comment="kpoint 29">
       <r>  -10.7593    1.0000 </r>
       <r>  -10.5039    1.0000 </r>
       <r>   -4.2030    1.0000 </r>
       <r>   -4.1536    1.0000 </r>
       <r>   -4.1536    1.0000 </r>
       <r>   -4.1481    1.0000 </r>
       <r>   -4.1315    1.0000 </r>
       <r>   -4.1315    1.0000 </r>
       <r>   -3.6714    1.0000 </r>
       <r>   -3.6714    1.0000 </r>
       <r>   -3.6495    1.0000 </r>
       <r>   -3.6495    1.0000 </r>
       <r>   -1.2397    1.0000 </r>
       <r>   -0.1047    1.0000 </r>
       <r>    1.6743    1.0000 </r>
       <r>    1.6743    1.0000 </r>
       <r>    1.9167    1.0000 </r>
       <r>    1.9167    1.0000 </r>
       <r>    5.6961    0.0000 </r>
       <r>    5.8087    0.0000 </r>
       <r>    8.6462    0.0000 </r>
       <r>    8.7973    0.0000 </r>
      </set>
      <set comment="kpoint 30">
       <r>  -10.6957    1.0000 </r>
       <r>  -10.4479    1.0000 </r>
       <r>   -4.2114    1.0000 </r>
       <r>   -4.1691    1.0000 </r>
       <r>   -4.1366    1.0000 </r>
       <r>   -4.1355    1.0000 </r>
       <r>   -4.1129    1.0000 </r>
       <r>   -4.1026    1.0000 </r>
       <r>   -3.6735    1.0000 </r>
       <r>   -3.6716    1.0000 </r>
       <r>   -3.6487    1.0000 </r>
       <r>   -3.6462    1.0000 </r>
       <r>   -1.2256    1.0000 </r>
       <r>   -0.1695    1.0000 </r>
       <r>    1.1935    1.0000 </r>
       <r>    1.5143    1.0000 </r>
       <r>    1.5290    1.0000 </r>
       <r>    1.7910    1.0000 </r>
       <r>    6.1830    0.0000 </r>
       <r>    6.2584    0.0000 </r>
       <r>    8.0432    0.0000 </r>
       <r>    8.5014    0.0000 </r>
      </set>
      <set comment="kpoint 31">
       <r>  -10.5203    1.0000 </r>
       <r>  -10.2962    1.0000 </r>
       <r>   -4.2249    1.0000 </r>
       <r>   -4.1873    1.0000 </r>
       <r>   -4.0931    1.0000 </r>
       <r>   -4.0869    1.0000 </r>
       <r>   -4.0637    1.0000 </r>
       <r>   -4.0546    1.0000 </r>
       <r>   -3.6750    1.0000 </r>
       <r>   -3.6687    1.0000 </r>
       <r>   -3.6450    1.0000 </r>
       <r>   -3.6339    1.0000 </r>
       <r>   -1.2942    1.0000 </r>
       <r>   -0.5630    1.0000 </r>
       <r>    0.3774    1.0000 </r>
       <r>    0.9621    1.0000 </r>
       <r>    1.1828    1.0000 </r>
       <r>    1.4823    1.0000 </r>
       <r>    6.4479    0.0000 </r>
       <r>    6.7959    0.0000 </r>
       <r>    7.8090    0.0000 </r>
       <r>    8.1689    0.0000 </r>
      </set>
      <set comment="kpoint 32">
       <r>  -10.2808    1.0000 </r>
       <r>  -10.0986    1.0000 </r>
       <r>   -4.2290    1.0000 </r>
       <r>   -4.1922    1.0000 </r>
       <r>   -4.0429    1.0000 </r>
       <r>   -4.0048    1.0000 </r>
       <r>   -4.0035    1.0000 </r>
       <r>   -3.9871    1.0000 </r>
       <r>   -3.6607    1.0000 </r>
       <r>   -3.6568    1.0000 </r>
       <r>   -3.6359    1.0000 </r>
       <r>   -3.6025    1.0000 </r>
       <r>   -1.7789    1.0000 </r>
       <r>   -1.3829    1.0000 </r>
       <r>    0.0432    1.0000 </r>
       <r>    0.8016    1.0000 </r>
       <r>    0.8124    1.0000 </r>
       <r>    1.1336    1.0000 </r>
       <r>    5.9891    0.0000 </r>
       <r>    6.4612    0.0000 </r>
       <r>    7.6953    0.0000 </r>
       <r>    8.2054    0.0000 </r>
      </set>
      <set comment="kpoint 33">
       <r>  -10.0599    1.0000 </r>
       <r>   -9.9337    1.0000 </r>
       <r>   -4.2210    1.0000 </r>
       <r>   -4.1854    1.0000 </r>
       <r>   -4.0073    1.0000 </r>
       <r>   -3.9570    1.0000 </r>
       <r>   -3.9115    1.0000 </r>
       <r>   -3.8942    1.0000 </r>
       <r>   -3.6373    1.0000 </r>
       <r>   -3.6222    1.0000 </r>
       <r>   -3.5934    1.0000 </r>
       <r>   -3.5160    1.0000 </r>
       <r>   -2.4814    1.0000 </r>
       <r>   -2.1976    1.0000 </r>
       <r>    0.1539    1.0000 </r>
       <r>    0.5180    1.0000 </r>
       <r>    0.7973    1.0000 </r>
       <r>    0.8712    1.0000 </r>
       <r>    5.6346    0.0000 </r>
       <r>    6.0608    0.0000 </r>
       <r>    7.4366    0.0000 </r>
       <r>    7.8139    0.0000 </r>
      </set>
      <set comment="kpoint 34">
       <r>   -9.9639    1.0000 </r>
       <r>   -9.8733    1.0000 </r>
       <r>   -4.2158    1.0000 </r>
       <r>   -4.1795    1.0000 </r>
       <r>   -3.9952    1.0000 </r>
       <r>   -3.9401    1.0000 </r>
       <r>   -3.8793    1.0000 </r>
       <r>   -3.8354    1.0000 </r>
       <r>   -3.6266    1.0000 </r>
       <r>   -3.6149    1.0000 </r>
       <r>   -3.4588    1.0000 </r>
       <r>   -3.4438    1.0000 </r>
       <r>   -2.8335    1.0000 </r>
       <r>   -2.6140    1.0000 </r>
       <r>    0.2604    1.0000 </r>
       <r>    0.4138    1.0000 </r>
       <r>    0.7746    1.0000 </r>
       <r>    0.7787    1.0000 </r>
       <r>    5.5217    0.0000 </r>
       <r>    5.9010    0.0000 </r>
       <r>    7.3641    0.0000 </r>
       <r>    7.5760    0.0000 </r>
      </set>
      <set comment="kpoint 35">
       <r>  -10.5761    1.0000 </r>
       <r>  -10.3440    1.0000 </r>
       <r>   -4.2184    1.0000 </r>
       <r>   -4.1786    1.0000 </r>
       <r>   -4.1167    1.0000 </r>
       <r>   -4.1073    1.0000 </r>
       <r>   -4.0738    1.0000 </r>
       <r>   -4.0679    1.0000 </r>
       <r>   -3.6754    1.0000 </r>
       <r>   -3.6704    1.0000 </r>
       <r>   -3.6464    1.0000 </r>
       <r>   -3.6378    1.0000 </r>
       <r>   -1.2465    1.0000 </r>
       <r>   -0.3953    1.0000 </r>
       <r>    0.6180    1.0000 </r>
       <r>    1.0663    1.0000 </r>
       <r>    1.2604    1.0000 </r>
       <r>    1.5023    1.0000 </r>
       <r>    6.7266    0.0000 </r>
       <r>    6.8133    0.0000 </r>
       <r>    7.7208    0.0000 </r>
       <r>    8.0082    0.0000 </r>
      </set>
      <set comment="kpoint 36">
       <r>  -10.3675    1.0000 </r>
       <r>  -10.1684    1.0000 </r>
       <r>   -4.2164    1.0000 </r>
       <r>   -4.1795    1.0000 </r>
       <r>   -4.0731    1.0000 </r>
       <r>   -4.0554    1.0000 </r>
       <r>   -4.0195    1.0000 </r>
       <r>   -4.0138    1.0000 </r>
       <r>   -3.6731    1.0000 </r>
       <r>   -3.6632    1.0000 </r>
       <r>   -3.6361    1.0000 </r>
       <r>   -3.6136    1.0000 </r>
       <r>   -1.5169    1.0000 </r>
       <r>   -1.0207    1.0000 </r>
       <r>    0.1448    1.0000 </r>
       <r>    0.6940    1.0000 </r>
       <r>    0.9112    1.0000 </r>
       <r>    1.0864    1.0000 </r>
       <r>    6.5287    0.0000 </r>
       <r>    7.0107    0.0000 </r>
       <r>    7.7932    0.0000 </r>
       <r>    8.1997    0.0000 </r>
      </set>
      <set comment="kpoint 37">
       <r>  -10.1337    1.0000 </r>
       <r>   -9.9854    1.0000 </r>
       <r>   -4.2032    1.0000 </r>
       <r>   -4.1695    1.0000 </r>
       <r>   -4.0216    1.0000 </r>
       <r>   -3.9758    1.0000 </r>
       <r>   -3.9566    1.0000 </r>
       <r>   -3.9493    1.0000 </r>
       <r>   -3.6581    1.0000 </r>
       <r>   -3.6495    1.0000 </r>
       <r>   -3.6025    1.0000 </r>
       <r>   -3.5493    1.0000 </r>
       <r>   -2.1460    1.0000 </r>
       <r>   -1.8276    1.0000 </r>
       <r>    0.0546    1.0000 </r>
       <r>    0.3843    1.0000 </r>
       <r>    0.6247    1.0000 </r>
       <r>    0.9348    1.0000 </r>
       <r>    6.0895    0.0000 </r>
       <r>    6.5962    0.0000 </r>
       <r>    7.6817    0.0000 </r>
       <r>    8.1720    0.0000 </r>
      </set>
      <set comment="kpoint 38">
       <r>   -9.9678    1.0000 </r>
       <r>   -9.8742    1.0000 </r>
       <r>   -4.1924    1.0000 </r>
       <r>   -4.1550    1.0000 </r>
       <r>   -4.0040    1.0000 </r>
       <r>   -3.9451    1.0000 </r>
       <r>   -3.8827    1.0000 </r>
       <r>   -3.8568    1.0000 </r>
       <r>   -3.6419    1.0000 </r>
       <r>   -3.6359    1.0000 </r>
       <r>   -3.4964    1.0000 </r>
       <r>   -3.4293    1.0000 </r>
       <r>   -2.7084    1.0000 </r>
       <r>   -2.4699    1.0000 </r>
       <r>   -0.0534    1.0000 </r>
       <r>    0.3690    1.0000 </r>
       <r>    0.4714    1.0000 </r>
       <r>    0.8994    1.0000 </r>
       <r>    5.8449    0.0000 </r>
       <r>    6.3149    0.0000 </r>
       <r>    7.5317    0.0000 </r>
       <r>    7.8920    0.0000 </r>
      </set>
      <set comment="kpoint 39">
       <r>  -10.1618    1.0000 </r>
       <r>  -10.0059    1.0000 </r>
       <r>   -4.1755    1.0000 </r>
       <r>   -4.1514    1.0000 </r>
       <r>   -4.0269    1.0000 </r>
       <r>   -4.0015    1.0000 </r>
       <r>   -3.9915    1.0000 </r>
       <r>   -3.9680    1.0000 </r>
       <r>   -3.6712    1.0000 </r>
       <r>   -3.6565    1.0000 </r>
       <r>   -3.5998    1.0000 </r>
       <r>   -3.5535    1.0000 </r>
       <r>   -1.9580    1.0000 </r>
       <r>   -1.6207    1.0000 </r>
       <r>    0.0262    1.0000 </r>
       <r>    0.1746    1.0000 </r>
       <r>    0.4547    1.0000 </r>
       <r>    0.9384    1.0000 </r>
       <r>    6.5850    0.0000 </r>
       <r>    7.0279    0.0000 </r>
       <r>    8.2894    0.0000 </r>
       <r>    8.3314    0.0000 </r>
      </set>
      <set comment="kpoint 40">
       <r>   -9.9740    1.0000 </r>
       <r>   -9.8758    1.0000 </r>
       <r>   -4.1401    1.0000 </r>
       <r>   -4.1166    1.0000 </r>
       <r>   -4.0072    1.0000 </r>
       <r>   -3.9575    1.0000 </r>
       <r>   -3.9108    1.0000 </r>
       <r>   -3.8952    1.0000 </r>
       <r>   -3.6697    1.0000 </r>
       <r>   -3.6593    1.0000 </r>
       <r>   -3.5122    1.0000 </r>
       <r>   -3.4336    1.0000 </r>
       <r>   -2.4605    1.0000 </r>
       <r>   -2.2133    1.0000 </r>
       <r>   -0.5059    1.0000 </r>
       <r>   -0.1004    1.0000 </r>
       <r>    0.4614    1.0000 </r>
       <r>    0.9365    1.0000 </r>
       <r>    6.4263    0.0000 </r>
       <r>    6.8482    0.0000 </r>
       <r>    8.2064    0.0000 </r>
       <r>    8.4648    0.0000 </r>
      </set>
      <set comment="kpoint 41">
       <r>   -9.8905    1.0000 </r>
       <r>   -9.8326    1.0000 </r>
       <r>   -4.1319    1.0000 </r>
       <r>   -4.0932    1.0000 </r>
       <r>   -4.0206    1.0000 </r>
       <r>   -3.9507    1.0000 </r>
       <r>   -3.8463    1.0000 </r>
       <r>   -3.8332    1.0000 </r>
       <r>   -3.6693    1.0000 </r>
       <r>   -3.6685    1.0000 </r>
       <r>   -3.3978    1.0000 </r>
       <r>   -3.3529    1.0000 </r>
       <r>   -2.7115    1.0000 </r>
       <r>   -2.5402    1.0000 </r>
       <r>   -0.6984    1.0000 </r>
       <r>   -0.2660    1.0000 </r>
       <r>    0.6003    1.0000 </r>
       <r>    0.8974    1.0000 </r>
       <r>    6.3382    0.0000 </r>
       <r>    6.7764    0.0000 </r>
       <r>    8.1890    0.0000 </r>
       <r>    8.3025    0.0000 </r>
      </set>
      <set comment="kpoint 42">
       <r>   -9.8582    1.0000 </r>
       <r>   -9.8205    1.0000 </r>
       <r>   -4.0818    1.0000 </r>
       <r>   -4.0741    1.0000 </r>
       <r>   -4.0302    1.0000 </r>
       <r>   -3.9652    1.0000 </r>
       <r>   -3.8229    1.0000 </r>
       <r>   -3.8131    1.0000 </r>
       <r>   -3.6958    1.0000 </r>
       <r>   -3.6907    1.0000 </r>
       <r>   -3.3797    1.0000 </r>
       <r>   -3.3196    1.0000 </r>
       <r>   -2.6234    1.0000 </r>
       <r>   -2.5001    1.0000 </r>
       <r>   -1.0380    1.0000 </r>
       <r>   -0.5908    1.0000 </r>
       <r>    0.6815    1.0000 </r>
       <r>    0.8763    1.0000 </r>
       <r>    6.6872    0.0000 </r>
       <r>    6.8457    0.0000 </r>
       <r>    8.0528    0.0000 </r>
       <r>    8.9077    0.0000 </r>
      </set>
     </set>
    </set>
   </array>
  </eigenvalues>
  <separator name="orbital magnetization" >
   <v name="MAGDIPOLOUT">      0.00000000      0.00000000      0.00000000</v>
  </separator>
  <dos>
   <i name="efermi">      2.72010269 </i>
   <total>
    <array>
     <dimension dim="1">gridpoints</dimension>
     <dimension dim="2">spin</dimension>
     <field>energy</field>
     <field>total</field>
     <field>integrated</field>
     <set>
      <set comment="spin 1">
       <r>   -12.1052     0.0000     0.0000 </r>
       <r>   -12.0296     0.0000     0.0000 </r>
       <r>   -11.9539     0.0000     0.0000 </r>
       <r>   -11.8783     0.0000     0.0000 </r>
       <r>   -11.8027     0.0000     0.0000 </r>
       <r>   -11.7270     0.0000     0.0000 </r>
       <r>   -11.6514     0.0000     0.0000 </r>
       <r>   -11.5757     0.0000     0.0000 </r>
       <r>   -11.5001     0.0000     0.0000 </r>
       <r>   -11.4245     0.0000     0.0000 </r>
       <r>   -11.3488     0.0000     0.0000 </r>
       <r>   -11.2732     0.0002     0.0000 </r>
       <r>   -11.1976     0.0049     0.0004 </r>
       <r>   -11.1219     0.0423     0.0036 </r>
       <r>   -11.0463     0.1733     0.0167 </r>
       <r>   -10.9707     0.3737     0.0450 </r>
       <r>   -10.8950     0.5762     0.0885 </r>
       <r>   -10.8194     0.7715     0.1469 </r>
       <r>   -10.7437     0.9159     0.2162 </r>
       <r>   -10.6681     1.0593     0.2963 </r>
       <r>   -10.5925     1.2838     0.3934 </r>
       <r>   -10.5168     1.5504     0.5107 </r>
       <r>   -10.4412     1.6242     0.6335 </r>
       <r>   -10.3656     1.9491     0.7809 </r>
       <r>   -10.2899     2.5184     0.9714 </r>
       <r>   -10.2143     2.8333     1.1857 </r>
       <r>   -10.1387     3.6391     1.4610 </r>
       <r>   -10.0630     4.7983     1.8239 </r>
       <r>    -9.9874     5.4941     2.2394 </r>
       <r>    -9.9117     6.0852     2.6997 </r>
       <r>    -9.8361     6.6729     3.2044 </r>
       <r>    -9.7605     6.1485     3.6695 </r>
       <r>    -9.6848     3.4036     3.9269 </r>
       <r>    -9.6092     0.8728     3.9929 </r>
       <r>    -9.5336     0.0901     3.9997 </r>
       <r>    -9.4579     0.0035     4.0000 </r>
       <r>    -9.3823     0.0000     4.0000 </r>
       <r>    -9.3067     0.0000     4.0000 </r>
       <r>    -9.2310     0.0000     4.0000 </r>
       <r>    -9.1554     0.0000     4.0000 </r>
       <r>    -9.0797     0.0000     4.0000 </r>
       <r>    -9.0041     0.0000     4.0000 </r>
       <r>    -8.9285     0.0000     4.0000 </r>
       <r>    -8.8528     0.0000     4.0000 </r>
       <r>    -8.7772     0.0000     4.0000 </r>
       <r>    -8.7016     0.0000     4.0000 </r>
       <r>    -8.6259     0.0000     4.0000 </r>
       <r>    -8.5503     0.0000     4.0000 </r>
       <r>    -8.4747     0.0000     4.0000 </r>
       <r>    -8.3990     0.0000     4.0000 </r>
       <r>    -8.3234     0.0000     4.0000 </r>
       <r>    -8.2477     0.0000     4.0000 </r>
       <r>    -8.1721     0.0000     4.0000 </r>
       <r>    -8.0965     0.0000     4.0000 </r>
       <r>    -8.0208     0.0000     4.0000 </r>
       <r>    -7.9452     0.0000     4.0000 </r>
       <r>    -7.8696     0.0000     4.0000 </r>
       <r>    -7.7939     0.0000     4.0000 </r>
       <r>    -7.7183     0.0000     4.0000 </r>
       <r>    -7.6427     0.0000     4.0000 </r>
       <r>    -7.5670     0.0000     4.0000 </r>
       <r>    -7.4914     0.0000     4.0000 </r>
       <r>    -7.4158     0.0000     4.0000 </r>
       <r>    -7.3401     0.0000     4.0000 </r>
       <r>    -7.2645     0.0000     4.0000 </r>
       <r>    -7.1888     0.0000     4.0000 </r>
       <r>    -7.1132     0.0000     4.0000 </r>
       <r>    -7.0376     0.0000     4.0000 </r>
       <r>    -6.9619     0.0000     4.0000 </r>
       <r>    -6.8863     0.0000     4.0000 </r>
       <r>    -6.8107     0.0000     4.0000 </r>
       <r>    -6.7350     0.0000     4.0000 </r>
       <r>    -6.6594     0.0000     4.0000 </r>
       <r>    -6.5838     0.0000     4.0000 </r>
       <r>    -6.5081     0.0000     4.0000 </r>
       <r>    -6.4325     0.0000     4.0000 </r>
       <r>    -6.3568     0.0000     4.0000 </r>
       <r>    -6.2812     0.0000     4.0000 </r>
       <r>    -6.2056     0.0000     4.0000 </r>
       <r>    -6.1299     0.0000     4.0000 </r>
       <r>    -6.0543     0.0000     4.0000 </r>
       <r>    -5.9787     0.0000     4.0000 </r>
       <r>    -5.9030     0.0000     4.0000 </r>
       <r>    -5.8274     0.0000     4.0000 </r>
       <r>    -5.7518     0.0000     4.0000 </r>
       <r>    -5.6761     0.0000     4.0000 </r>
       <r>    -5.6005     0.0000     4.0000 </r>
       <r>    -5.5248     0.0000     4.0000 </r>
       <r>    -5.4492     0.0000     4.0000 </r>
       <r>    -5.3736     0.0000     4.0000 </r>
       <r>    -5.2979     0.0000     4.0000 </r>
       <r>    -5.2223     0.0000     4.0000 </r>
       <r>    -5.1467     0.0000     4.0000 </r>
       <r>    -5.0710     0.0000     4.0000 </r>
       <r>    -4.9954     0.0000     4.0000 </r>
       <r>    -4.9198     0.0000     4.0000 </r>
       <r>    -4.8441     0.0000     4.0000 </r>
       <r>    -4.7685     0.0000     4.0000 </r>
       <r>    -4.6928     0.0000     4.0000 </r>
       <r>    -4.6172     0.0000     4.0000 </r>
       <r>    -4.5416     0.0000     4.0000 </r>
       <r>    -4.4659     0.0025     4.0002 </r>
       <r>    -4.3903     0.0958     4.0074 </r>
       <r>    -4.3147     1.3482     4.1094 </r>
       <r>    -4.2390     7.6400     4.6873 </r>
       <r>    -4.1634    19.7112     6.1782 </r>
       <r>    -4.0878    28.2893     8.3179 </r>
       <r>    -4.0121    29.1666    10.5239 </r>
       <r>    -3.9365    26.5523    12.5322 </r>
       <r>    -3.8608    22.5709    14.2394 </r>
       <r>    -3.7852    18.8915    15.6683 </r>
       <r>    -3.7096    22.5654    17.3751 </r>
       <r>    -3.6339    29.2054    19.5840 </r>
       <r>    -3.5583    24.0667    21.4044 </r>
       <r>    -3.4827    13.6762    22.4388 </r>
       <r>    -3.4070     8.6159    23.0905 </r>
       <r>    -3.3314     6.5074    23.5827 </r>
       <r>    -3.2558     3.9053    23.8780 </r>
       <r>    -3.1801     1.3627    23.9811 </r>
       <r>    -3.1045     0.2615    24.0009 </r>
       <r>    -3.0288     0.1439    24.0118 </r>
       <r>    -2.9532     0.2941    24.0340 </r>
       <r>    -2.8776     0.5553    24.0760 </r>
       <r>    -2.8019     1.2187    24.1682 </r>
       <r>    -2.7263     2.2424    24.3378 </r>
       <r>    -2.6507     3.1448    24.5757 </r>
       <r>    -2.5750     3.7699    24.8608 </r>
       <r>    -2.4994     3.8355    25.1509 </r>
       <r>    -2.4238     2.9111    25.3711 </r>
       <r>    -2.3481     1.7605    25.5043 </r>
       <r>    -2.2725     1.5285    25.6199 </r>
       <r>    -2.1968     2.2961    25.7935 </r>
       <r>    -2.1212     2.6875    25.9968 </r>
       <r>    -2.0456     2.2416    26.1664 </r>
       <r>    -1.9699     1.7590    26.2994 </r>
       <r>    -1.8943     1.7439    26.4313 </r>
       <r>    -1.8187     1.6713    26.5577 </r>
       <r>    -1.7430     1.2111    26.6493 </r>
       <r>    -1.6674     1.0745    26.7306 </r>
[...]
        <r>  0.0322  0.0489  0.0000 </r>
       </set>
       <set comment="band 21">
        <r>  0.0652  0.0336  0.0268 </r>
        <r>  0.0308  0.0602  0.0364 </r>
        <r>  0.0017  0.0317  0.0000 </r>
        <r>  0.0062  0.0442  0.0000 </r>
       </set>
       <set comment="band 22">
        <r>  0.0392  0.0591  0.0316 </r>
        <r>  0.0824  0.0354  0.0262 </r>
        <r>  0.0032  0.0561  0.0000 </r>
        <r>  0.0009  0.0386  0.0000 </r>
       </set>
      </set>
      <set comment="kpoint 39">
       <set comment="band 1">
        <r>  0.0207  0.0125  0.0151 </r>
        <r>  0.0207  0.0125  0.0151 </r>
        <r>  0.3001  0.0007  0.0000 </r>
        <r>  0.3001  0.0007  0.0000 </r>
       </set>
       <set comment="band 2">
        <r>  0.0134  0.0147  0.0192 </r>
        <r>  0.0134  0.0147  0.0192 </r>
        <r>  0.3071  0.0005  0.0000 </r>
        <r>  0.3071  0.0005  0.0000 </r>
       </set>
       <set comment="band 3">
        <r>  0.0187  0.0017  0.3671 </r>
        <r>  0.0187  0.0017  0.3671 </r>
        <r>  0.0001  0.0395  0.0000 </r>
        <r>  0.0001  0.0395  0.0000 </r>
       </set>
       <set comment="band 4">
        <r>  0.0148  0.0026  0.3747 </r>
        <r>  0.0148  0.0026  0.3747 </r>
        <r>  0.0000  0.0381  0.0000 </r>
        <r>  0.0000  0.0381  0.0000 </r>
       </set>
       <set comment="band 5">
        <r>  0.0035  0.0020  0.4323 </r>
        <r>  0.0035  0.0020  0.4323 </r>
        <r>  0.0000  0.0242  0.0000 </r>
        <r>  0.0000  0.0242  0.0000 </r>
       </set>
       <set comment="band 6">
        <r>  0.0075  0.0020  0.4211 </r>
        <r>  0.0075  0.0020  0.4211 </r>
        <r>  0.0000  0.0268  0.0000 </r>
        <r>  0.0000  0.0268  0.0000 </r>
       </set>
       <set comment="band 7">
        <r>  0.0034  0.0015  0.4399 </r>
        <r>  0.0034  0.0015  0.4399 </r>
        <r>  0.0000  0.0207  0.0000 </r>
        <r>  0.0000  0.0207  0.0000 </r>
       </set>
       <set comment="band 8">
        <r>  0.0011  0.0025  0.4442 </r>
        <r>  0.0011  0.0025  0.4442 </r>
        <r>  0.0000  0.0217  0.0000 </r>
        <r>  0.0000  0.0217  0.0000 </r>
       </set>
       <set comment="band 9">
        <r>  0.0006  0.0002  0.4802 </r>
        <r>  0.0006  0.0002  0.4802 </r>
        <r>  0.0002  0.0010  0.0000 </r>
        <r>  0.0002  0.0010  0.0000 </r>
       </set>
       <set comment="band 10">
        <r>  0.0002  0.0001  0.4840 </r>
        <r>  0.0002  0.0001  0.4840 </r>
        <r>  0.0001  0.0004  0.0000 </r>
        <r>  0.0001  0.0004  0.0000 </r>
       </set>
       <set comment="band 11">
        <r>  0.0022  0.0002  0.4789 </r>
        <r>  0.0022  0.0002  0.4789 </r>
        <r>  0.0012  0.0010  0.0000 </r>
        <r>  0.0012  0.0010  0.0000 </r>
       </set>
       <set comment="band 12">
        <r>  0.0051  0.0007  0.4675 </r>
        <r>  0.0051  0.0007  0.4675 </r>
        <r>  0.0027  0.0034  0.0000 </r>
        <r>  0.0027  0.0034  0.0000 </r>
       </set>
       <set comment="band 13">
        <r>  0.0845  0.0105  0.1369 </r>
        <r>  0.0845  0.0105  0.1369 </r>
        <r>  0.0187  0.1024  0.0000 </r>
        <r>  0.0187  0.1024  0.0000 </r>
       </set>
       <set comment="band 14">
        <r>  0.0756  0.0133  0.1300 </r>
        <r>  0.0756  0.0133  0.1300 </r>
        <r>  0.0241  0.1069  0.0000 </r>
        <r>  0.0241  0.1069  0.0000 </r>
       </set>
       <set comment="band 15">
        <r>  0.0053  0.0515  0.0518 </r>
        <r>  0.0053  0.0515  0.0518 </r>
        <r>  0.0004  0.1847  0.0000 </r>
        <r>  0.0004  0.1847  0.0000 </r>
       </set>
       <set comment="band 16">
        <r>  0.0035  0.0524  0.0487 </r>
        <r>  0.0035  0.0524  0.0487 </r>
        <r>  0.0005  0.1954  0.0000 </r>
        <r>  0.0005  0.1954  0.0000 </r>
       </set>
       <set comment="band 17">
        <r>  0.0082  0.0469  0.0540 </r>
        <r>  0.0082  0.0469  0.0540 </r>
        <r>  0.0019  0.1912  0.0000 </r>
        <r>  0.0019  0.1912  0.0000 </r>
       </set>
       <set comment="band 18">
        <r>  0.0031  0.0468  0.0485 </r>
        <r>  0.0031  0.0468  0.0485 </r>
        <r>  0.0007  0.2218  0.0000 </r>
        <r>  0.0007  0.2218  0.0000 </r>
       </set>
       <set comment="band 19">
        <r>  0.0894  0.0408  0.0173 </r>
        <r>  0.0894  0.0408  0.0173 </r>
        <r>  0.0344  0.0447  0.0000 </r>
        <r>  0.0344  0.0447  0.0000 </r>
       </set>
       <set comment="band 20">
        <r>  0.0843  0.0232  0.0232 </r>
        <r>  0.0843  0.0232  0.0232 </r>
        <r>  0.0157  0.0808  0.0000 </r>
        <r>  0.0157  0.0808  0.0000 </r>
       </set>
       <set comment="band 21">
        <r>  0.0569  0.0633  0.0125 </r>
        <r>  0.0569  0.0633  0.0125 </r>
        <r>  0.0248  0.0716  0.0000 </r>
        <r>  0.0248  0.0716  0.0000 </r>
       </set>
       <set comment="band 22">
        <r>  0.0548  0.0438  0.0196 </r>
        <r>  0.0548  0.0438  0.0196 </r>
        <r>  0.0138  0.0833  0.0000 </r>
        <r>  0.0138  0.0833  0.0000 </r>
       </set>
      </set>
      <set comment="kpoint 40">
       <set comment="band 1">
        <r>  0.0118  0.0152  0.0201 </r>
        <r>  0.0120  0.0149  0.0205 </r>
        <r>  0.3089  0.0003  0.0000 </r>
        <r>  0.3088  0.0004  0.0000 </r>
       </set>
       <set comment="band 2">
        <r>  0.0069  0.0164  0.0234 </r>
        <r>  0.0068  0.0167  0.0230 </r>
        <r>  0.3134  0.0002  0.0000 </r>
        <r>  0.3136  0.0002  0.0000 </r>
       </set>
       <set comment="band 3">
        <r>  0.0085  0.0031  0.4716 </r>
        <r>  0.0183  0.0014  0.2935 </r>
        <r>  0.0001  0.0251  0.0000 </r>
        <r>  0.0001  0.0470  0.0000 </r>
       </set>
       <set comment="band 4">
        <r>  0.0192  0.0010  0.2917 </r>
        <r>  0.0081  0.0034  0.4765 </r>
        <r>  0.0000  0.0471  0.0000 </r>
        <r>  0.0000  0.0231  0.0000 </r>
       </set>
       <set comment="band 5">
        <r>  0.0005  0.0027  0.4683 </r>
        <r>  0.0048  0.0017  0.4011 </r>
        <r>  0.0000  0.0266  0.0000 </r>
        <r>  0.0000  0.0201  0.0000 </r>
       </set>
       <set comment="band 6">
        <r>  0.0012  0.0027  0.3848 </r>
        <r>  0.0003  0.0029  0.4999 </r>
        <r>  0.0000  0.0191  0.0000 </r>
        <r>  0.0000  0.0236  0.0000 </r>
       </set>
       <set comment="band 7">
        <r>  0.0122  0.0012  0.3475 </r>
        <r>  0.0047  0.0029  0.5019 </r>
        <r>  0.0002  0.0205  0.0000 </r>
        <r>  0.0001  0.0263  0.0000 </r>
       </set>
       <set comment="band 8">
        <r>  0.0067  0.0025  0.5043 </r>
        <r>  0.0121  0.0008  0.3460 </r>
        <r>  0.0001  0.0230  0.0000 </r>
        <r>  0.0002  0.0210  0.0000 </r>
       </set>
       <set comment="band 9">
        <r>  0.0006  0.0002  0.6249 </r>
        <r>  0.0001  0.0003  0.3366 </r>
        <r>  0.0000  0.0009  0.0000 </r>
        <r>  0.0003  0.0008  0.0000 </r>
       </set>
       <set comment="band 10">
        <r>  0.0001  0.0002  0.3681 </r>
        <r>  0.0003  0.0001  0.5987 </r>
        <r>  0.0001  0.0005  0.0000 </r>
        <r>  0.0000  0.0008  0.0000 </r>
       </set>
       <set comment="band 11">
        <r>  0.0065  0.0009  0.4769 </r>
        <r>  0.0063  0.0008  0.4487 </r>
        <r>  0.0033  0.0046  0.0000 </r>
        <r>  0.0044  0.0043  0.0000 </r>
       </set>
       <set comment="band 12">
        <r>  0.0072  0.0013  0.4453 </r>
        <r>  0.0069  0.0015  0.4671 </r>
        <r>  0.0078  0.0044  0.0000 </r>
        <r>  0.0062  0.0052  0.0000 </r>
       </set>
       <set comment="band 13">
        <r>  0.0910  0.0119  0.1066 </r>
        <r>  0.0946  0.0065  0.1603 </r>
        <r>  0.0087  0.0938  0.0000 </r>
        <r>  0.0069  0.1097  0.0000 </r>
       </set>
       <set comment="band 14">
        <r>  0.0856  0.0084  0.1568 </r>
        <r>  0.0836  0.0143  0.1164 </r>
        <r>  0.0124  0.1110  0.0000 </r>
        <r>  0.0150  0.0916  0.0000 </r>
       </set>
       <set comment="band 15">
        <r>  0.0079  0.0522  0.0504 </r>
        <r>  0.0066  0.0534  0.0513 </r>
        <r>  0.0013  0.1715  0.0000 </r>
        <r>  0.0009  0.1691  0.0000 </r>
       </set>
       <set comment="band 16">
        <r>  0.0034  0.0538  0.0579 </r>
        <r>  0.0035  0.0497  0.0532 </r>
        <r>  0.0011  0.1676  0.0000 </r>
        <r>  0.0010  0.1905  0.0000 </r>
       </set>
       <set comment="band 17">
        <r>  0.0072  0.0487  0.0418 </r>
        <r>  0.0070  0.0521  0.0457 </r>
        <r>  0.0018  0.2192  0.0000 </r>
        <r>  0.0019  0.1940  0.0000 </r>
       </set>
       <set comment="band 18">
        <r>  0.0006  0.0494  0.0450 </r>
        <r>  0.0006  0.0483  0.0455 </r>
        <r>  0.0002  0.2244  0.0000 </r>
        <r>  0.0002  0.2328  0.0000 </r>
       </set>
       <set comment="band 19">
        <r>  0.0642  0.0398  0.0265 </r>
        <r>  0.1152  0.0373  0.0162 </r>
        <r>  0.0330  0.0461  0.0000 </r>
        <r>  0.0328  0.0178  0.0000 </r>
       </set>
       <set comment="band 20">
        <r>  0.1185  0.0286  0.0188 </r>
        <r>  0.0607  0.0313  0.0276 </r>
        <r>  0.0256  0.0377  0.0000 </r>
        <r>  0.0221  0.0791  0.0000 </r>
       </set>
       <set comment="band 21">
        <r>  0.0678  0.0382  0.0150 </r>
        <r>  0.0179  0.0529  0.0348 </r>
        <r>  0.0015  0.0846  0.0000 </r>
        <r>  0.0129  0.0546  0.0000 </r>
       </set>
       <set comment="band 22">
        <r>  0.0197  0.0533  0.0347 </r>
        <r>  0.0826  0.0282  0.0177 </r>
        <r>  0.0026  0.0718  0.0000 </r>
        <r>  0.0035  0.0840  0.0000 </r>
       </set>
      </set>
      <set comment="kpoint 41">
       <set comment="band 1">
        <r>  0.0077  0.0162  0.0230 </r>
        <r>  0.0077  0.0162  0.0230 </r>
        <r>  0.3130  0.0001  0.0000 </r>
        <r>  0.3130  0.0001  0.0000 </r>
       </set>
       <set comment="band 2">
        <r>  0.0046  0.0172  0.0246 </r>
        <r>  0.0046  0.0172  0.0246 </r>
        <r>  0.3157  0.0001  0.0000 </r>
        <r>  0.3157  0.0001  0.0000 </r>
       </set>
       <set comment="band 3">
        <r>  0.0112  0.0023  0.3896 </r>
        <r>  0.0112  0.0023  0.3896 </r>
        <r>  0.0001  0.0345  0.0000 </r>
        <r>  0.0001  0.0345  0.0000 </r>
       </set>
       <set comment="band 4">
        <r>  0.0137  0.0019  0.3880 </r>
        <r>  0.0137  0.0019  0.3880 </r>
        <r>  0.0000  0.0333  0.0000 </r>
        <r>  0.0000  0.0333  0.0000 </r>
       </set>
       <set comment="band 5">
        <r>  0.0013  0.0023  0.4369 </r>
        <r>  0.0013  0.0023  0.4369 </r>
        <r>  0.0000  0.0233  0.0000 </r>
        <r>  0.0000  0.0233  0.0000 </r>
       </set>
       <set comment="band 6">
        <r>  0.0002  0.0028  0.4448 </r>
        <r>  0.0002  0.0028  0.4448 </r>
        <r>  0.0000  0.0208  0.0000 </r>
        <r>  0.0000  0.0208  0.0000 </r>
       </set>
       <set comment="band 7">
        <r>  0.0079  0.0017  0.4337 </r>
        <r>  0.0079  0.0017  0.4337 </r>
        <r>  0.0001  0.0190  0.0000 </r>
        <r>  0.0001  0.0190  0.0000 </r>
       </set>
       <set comment="band 8">
        <r>  0.0078  0.0023  0.4303 </r>
        <r>  0.0078  0.0023  0.4303 </r>
        <r>  0.0001  0.0204  0.0000 </r>
        <r>  0.0001  0.0204  0.0000 </r>
       </set>
       <set comment="band 9">
        <r>  0.0001  0.0001  0.4827 </r>
        <r>  0.0001  0.0001  0.4824 </r>
        <r>  0.0001  0.0004  0.0000 </r>
        <r>  0.0001  0.0004  0.0000 </r>
       </set>
       <set comment="band 10">
        <r>  0.0002  0.0002  0.4809 </r>
        <r>  0.0002  0.0002  0.4811 </r>
        <r>  0.0001  0.0007  0.0000 </r>
        <r>  0.0001  0.0007  0.0000 </r>
       </set>
       <set comment="band 11">
        <r>  0.0072  0.0012  0.4569 </r>
        <r>  0.0072  0.0012  0.4569 </r>
        <r>  0.0087  0.0044  0.0000 </r>
        <r>  0.0087  0.0044  0.0000 </r>
       </set>
       <set comment="band 12">
        <r>  0.0025  0.0021  0.4631 </r>
        <r>  0.0025  0.0021  0.4631 </r>
        <r>  0.0115  0.0011  0.0000 </r>
        <r>  0.0115  0.0011  0.0000 </r>
       </set>
       <set comment="band 13">
        <r>  0.1003  0.0090  0.1153 </r>
        <r>  0.1003  0.0090  0.1153 </r>
        <r>  0.0008  0.1072  0.0000 </r>
        <r>  0.0008  0.1072  0.0000 </r>
       </set>
       <set comment="band 14">
        <r>  0.0958  0.0103  0.1194 </r>
        <r>  0.0958  0.0103  0.1194 </r>
        <r>  0.0049  0.1059  0.0000 </r>
        <r>  0.0049  0.1059  0.0000 </r>
       </set>
       <set comment="band 15">
        <r>  0.0079  0.0529  0.0511 </r>
        <r>  0.0079  0.0529  0.0511 </r>
        <r>  0.0017  0.1658  0.0000 </r>
        <r>  0.0017  0.1658  0.0000 </r>
       </set>
       <set comment="band 16">
        <r>  0.0051  0.0516  0.0562 </r>
        <r>  0.0051  0.0516  0.0562 </r>
        <r>  0.0016  0.1737  0.0000 </r>
        <r>  0.0016  0.1737  0.0000 </r>
       </set>
       <set comment="band 17">
        <r>  0.0044  0.0511  0.0421 </r>
        <r>  0.0044  0.0511  0.0421 </r>
        <r>  0.0013  0.2165  0.0000 </r>
        <r>  0.0013  0.2165  0.0000 </r>
       </set>
       <set comment="band 18">
        <r>  0.0001  0.0499  0.0438 </r>
        <r>  0.0001  0.0499  0.0438 </r>
        <r>  0.0000  0.2288  0.0000 </r>
        <r>  0.0000  0.2288  0.0000 </r>
       </set>
       <set comment="band 19">
        <r>  0.0870  0.0366  0.0233 </r>
        <r>  0.0870  0.0366  0.0233 </r>
        <r>  0.0322  0.0290  0.0000 </r>
        <r>  0.0322  0.0290  0.0000 </r>
       </set>
       <set comment="band 20">
        <r>  0.0986  0.0337  0.0216 </r>
        <r>  0.0985  0.0337  0.0216 </r>
        <r>  0.0286  0.0448  0.0000 </r>
        <r>  0.0286  0.0448  0.0000 </r>
       </set>
       <set comment="band 21">
        <r>  0.0372  0.0415  0.0290 </r>
        <r>  0.0372  0.0415  0.0290 </r>
        <r>  0.0029  0.0688  0.0000 </r>
        <r>  0.0029  0.0688  0.0000 </r>
       </set>
       <set comment="band 22">
        <r>  0.0410  0.0407  0.0304 </r>
        <r>  0.0410  0.0407  0.0304 </r>
        <r>  0.0003  0.0694  0.0000 </r>
        <r>  0.0003  0.0694  0.0000 </r>
       </set>
      </set>
      <set comment="kpoint 42">
       <set comment="band 1">
        <r>  0.0061  0.0167  0.0239 </r>
        <r>  0.0061  0.0167  0.0239 </r>
        <r>  0.3144  0.0001  0.0000 </r>
        <r>  0.3144  0.0001  0.0000 </r>
       </set>
       <set comment="band 2">
        <r>  0.0040  0.0173  0.0251 </r>
        <r>  0.0040  0.0173  0.0251 </r>
        <r>  0.3162  0.0000  0.0000 </r>
        <r>  0.3162  0.0000  0.0000 </r>
       </set>
       <set comment="band 3">
        <r>  0.0057  0.0028  0.4098 </r>
        <r>  0.0057  0.0028  0.4098 </r>
        <r>  0.0000  0.0299  0.0000 </r>
        <r>  0.0000  0.0299  0.0000 </r>
       </set>
       <set comment="band 4">
        <r>  0.0103  0.0021  0.4013 </r>
        <r>  0.0103  0.0021  0.4013 </r>
        <r>  0.0001  0.0309  0.0000 </r>
        <r>  0.0001  0.0309  0.0000 </r>
       </set>
       <set comment="band 5">
        <r>  0.0044  0.0024  0.4238 </r>
        <r>  0.0044  0.0024  0.4238 </r>
        <r>  0.0000  0.0258  0.0000 </r>
        <r>  0.0000  0.0258  0.0000 </r>
       </set>
       <set comment="band 6">
        <r>  0.0002  0.0034  0.4379 </r>
        <r>  0.0002  0.0034  0.4379 </r>
        <r>  0.0000  0.0230  0.0000 </r>
        <r>  0.0000  0.0230  0.0000 </r>
       </set>
       <set comment="band 7">
        <r>  0.0090  0.0012  0.4344 </r>
        <r>  0.0090  0.0012  0.4344 </r>
        <r>  0.0001  0.0181  0.0000 </r>
        <r>  0.0001  0.0181  0.0000 </r>
       </set>
       <set comment="band 8">
        <r>  0.0086  0.0011  0.4375 </r>
        <r>  0.0086  0.0011  0.4375 </r>
        <r>  0.0000  0.0169  0.0000 </r>
        <r>  0.0000  0.0169  0.0000 </r>
       </set>
       <set comment="band 9">
        <r>  0.0002  0.0003  0.4787 </r>
        <r>  0.0002  0.0003  0.4787 </r>
        <r>  0.0000  0.0010  0.0000 </r>
        <r>  0.0000  0.0010  0.0000 </r>
       </set>
       <set comment="band 10">
        <r>  0.0002  0.0002  0.4807 </r>
        <r>  0.0002  0.0002  0.4807 </r>
        <r>  0.0000  0.0008  0.0000 </r>
        <r>  0.0000  0.0008  0.0000 </r>
       </set>
       <set comment="band 11">
        <r>  0.0088  0.0013  0.4514 </r>
        <r>  0.0088  0.0013  0.4514 </r>
        <r>  0.0089  0.0062  0.0000 </r>
        <r>  0.0089  0.0062  0.0000 </r>
       </set>
       <set comment="band 12">
        <r>  0.0042  0.0017  0.4619 </r>
        <r>  0.0042  0.0017  0.4619 </r>
        <r>  0.0122  0.0018  0.0000 </r>
        <r>  0.0122  0.0018  0.0000 </r>
       </set>
       <set comment="band 13">
        <r>  0.1113  0.0065  0.1011 </r>
        <r>  0.1113  0.0065  0.1011 </r>
        <r>  0.0015  0.1121  0.0000 </r>
        <r>  0.0015  0.1121  0.0000 </r>
       </set>
       <set comment="band 14">
        <r>  0.1025  0.0076  0.1174 </r>
        <r>  0.1025  0.0076  0.1174 </r>
        <r>  0.0060  0.1069  0.0000 </r>
        <r>  0.0060  0.1069  0.0000 </r>
       </set>
       <set comment="band 15">
        <r>  0.0023  0.0555  0.0533 </r>
        <r>  0.0023  0.0555  0.0533 </r>
        <r>  0.0002  0.1568  0.0000 </r>
        <r>  0.0002  0.1568  0.0000 </r>
       </set>
       <set comment="band 16">
        <r>  0.0012  0.0540  0.0587 </r>
        <r>  0.0012  0.0540  0.0587 </r>
        <r>  0.0003  0.1640  0.0000 </r>
        <r>  0.0003  0.1640  0.0000 </r>
       </set>
       <set comment="band 17">
        <r>  0.0031  0.0511  0.0422 </r>
        <r>  0.0031  0.0511  0.0422 </r>
        <r>  0.0009  0.2201  0.0000 </r>
        <r>  0.0009  0.2201  0.0000 </r>
       </set>
       <set comment="band 18">
        <r>  0.0003  0.0504  0.0429 </r>
        <r>  0.0003  0.0504  0.0429 </r>
        <r>  0.0001  0.2293  0.0000 </r>
        <r>  0.0001  0.2293  0.0000 </r>
       </set>
       <set comment="band 19">
        <r>  0.1016  0.0393  0.0214 </r>
        <r>  0.1016  0.0393  0.0214 </r>
        <r>  0.0315  0.0271  0.0000 </r>
        <r>  0.0315  0.0271  0.0000 </r>
       </set>
       <set comment="band 20">
        <r>  0.0963  0.0353  0.0231 </r>
        <r>  0.0963  0.0353  0.0231 </r>
        <r>  0.0266  0.0404  0.0000 </r>
        <r>  0.0266  0.0404  0.0000 </r>
       </set>
       <set comment="band 21">
        <r>  0.0103  0.0450  0.0319 </r>
        <r>  0.0103  0.0450  0.0319 </r>
        <r>  0.0014  0.0562  0.0000 </r>
        <r>  0.0014  0.0562  0.0000 </r>
       </set>
       <set comment="band 22">
        <r>  0.0146  0.0288  0.0329 </r>
        <r>  0.0146  0.0288  0.0329 </r>
        <r>  0.0005  0.0946  0.0000 </r>
        <r>  0.0005  0.0946  0.0000 </r>
       </set>
      </set>
     </set>
    </set>
   </array>
  </projected>
 </calculation>
 <structure name="finalpos" >
  <crystal>
   <varray name="basis" >
    <v>       3.78158387      -0.00000000       0.00000000 </v>
    <v>      -1.89079194       3.27494770      -0.00000000 </v>
    <v>       0.00000000      -0.00000000       6.20476623 </v>
   </varray>
   <i name="volume">     76.84286172 </i>
   <varray name="rec_basis" >
    <v>       0.26443946       0.15267419       0.00000000 </v>
    <v>       0.00000000       0.30534839       0.00000000 </v>
    <v>      -0.00000000       0.00000000       0.16116643 </v>
   </varray>
  </crystal>
  <varray name="positions" >
   <v>       0.66666667       0.33333333       0.50040087 </v>
   <v>       0.33333333       0.66666667       0.00040087 </v>
   <v>       0.66666667       0.33333333       0.87459913 </v>
   <v>       0.33333333       0.66666667       0.37459913 </v>
  </varray>
 </structure>
</modeling>
