       N       E                     dE             d eps       ncg     rms           ort
DAV:   1    -0.135855323294E+05   -0.13586E+05   -0.77345E+04  2688   0.216E+03  
DAV:   2    -0.151677164943E+05   -0.15822E+04   -0.15609E+04  2688   0.575E+02  
DAV:   3    -0.155964395425E+05   -0.42872E+03   -0.42414E+03  2688   0.245E+02  
DAV:   4    -0.156802922874E+05   -0.83853E+02   -0.83452E+02  2688   0.106E+02  
DAV:   5    -0.361693375495E+02    0.15644E+05   -0.25576E+02  2688   0.804E+01  
SDA:   6    -0.351242103363E+02    0.10451E+01   -0.11743E+02  2688   0.294E+02   0.000E+00
DMP:   7    -0.398964505298E+02   -0.47722E+01   -0.39607E+01  2688   0.122E+02  -0.613E+01
DMP:   8    -0.422924478068E+02   -0.23960E+01   -0.10256E+01  2688   0.179E+01   0.203E+01
DMP:   9    -0.427461895720E+02   -0.45374E+00   -0.75689E+00  2688   0.204E+01  -0.376E+00
DMP:  10    -0.432026089516E+02   -0.45642E+00   -0.26521E+00  2688   0.533E+00   0.340E+00
DMP:  11    -0.434025417618E+02   -0.19993E+00   -0.18431E+00  2688   0.340E+00   0.316E+00
DMP:  12    -0.435359100168E+02   -0.13337E+00   -0.76864E-01  2688   0.117E+00   0.197E+00
DMP:  13    -0.435993967896E+02   -0.63487E-01   -0.47973E-01  2688   0.737E-01   0.121E+00
DMP:  14    -0.436369838861E+02   -0.37587E-01   -0.24445E-01  2688   0.358E-01   0.663E-01
DMP:  15    -0.436583322056E+02   -0.21348E-01   -0.14800E-01  2688   0.198E-01   0.449E-01
DMP:  16    -0.436712786624E+02   -0.12946E-01   -0.90006E-02  2688   0.121E-01   0.274E-01
DMP:  17    -0.436795437916E+02   -0.82651E-02   -0.59863E-02  2688   0.786E-02   0.186E-01
DMP:  18    -0.436850788063E+02   -0.55350E-02   -0.41709E-02  2688   0.561E-02   0.126E-01
DMP:  19    -0.436890109598E+02   -0.39322E-02   -0.30502E-02  2688   0.412E-02   0.918E-02
DMP:  20    -0.436919032436E+02   -0.28923E-02   -0.22555E-02  2688   0.304E-02   0.680E-02
DMP:  21    -0.436940617564E+02   -0.21585E-02   -0.17060E-02  2688   0.231E-02   0.513E-02
DMP:  22    -0.436957025356E+02   -0.16408E-02   -0.13271E-02  2688   0.182E-02   0.392E-02
DMP:  23    -0.436969841234E+02   -0.12816E-02   -0.10508E-02  2688   0.145E-02   0.308E-02
DMP:  24    -0.436980020282E+02   -0.10179E-02   -0.83876E-03  2688   0.116E-02   0.245E-02
DMP:  25    -0.436988174034E+02   -0.81538E-03   -0.67796E-03  2688   0.943E-03   0.197E-02
DMP:  26    -0.436994783072E+02   -0.66090E-03   -0.55717E-03  2688   0.782E-03   0.160E-02
DMP:  27    -0.437000228358E+02   -0.54453E-03   -0.47340E-03  2688   0.679E-03   0.132E-02
DMP:  28    -0.437004866761E+02   -0.46384E-03   -0.42204E-03  2688   0.624E-03   0.113E-02
DMP:  29    -0.437009010303E+02   -0.41435E-03   -0.38392E-03  2688   0.574E-03   0.101E-02
DMP:  30    -0.437012785977E+02   -0.37757E-03   -0.36602E-03  2688   0.563E-03   0.922E-03
DMP:  31    -0.437016389241E+02   -0.36033E-03   -0.35977E-03  2688   0.563E-03   0.880E-03
DMP:  32    -0.437019931800E+02   -0.35426E-03   -0.35562E-03  2688   0.558E-03   0.866E-03
DMP:  33    -0.437023433105E+02   -0.35013E-03   -0.35643E-03  2688   0.564E-03   0.856E-03
DMP:  34    -0.437026939830E+02   -0.35067E-03   -0.35312E-03  2688   0.556E-03   0.856E-03
DMP:  35    -0.437030411220E+02   -0.34714E-03   -0.34735E-03  2688   0.545E-03   0.847E-03
DMP:  36    -0.437033820969E+02   -0.34097E-03   -0.33732E-03  2688   0.526E-03   0.831E-03
DMP:  37    -0.437037123707E+02   -0.33027E-03   -0.31879E-03  2688   0.491E-03   0.802E-03
DMP:  38    -0.437040202082E+02   -0.30784E-03   -0.31396E-03  2688   0.503E-03   0.737E-03
DMP:  39    -0.437042992204E+02   -0.27901E-03   -0.37146E-03  2688   0.698E-03   0.603E-03
DMP:  40    -0.437044865824E+02   -0.18736E-03   -0.84687E-03  2688   0.211E-02   0.595E-05
DMP:  41    -0.437043275230E+02    0.15906E-03   -0.32827E-02  2688   0.932E-02  -0.292E-02
DMP:  42    -0.437028249976E+02    0.15025E-02   -0.12918E-01  2688   0.383E-01  -0.157E-01
DMP:  43    -0.436973629037E+02    0.54621E-02   -0.40610E-01  2688   0.124E+00  -0.596E-01
DMP:  44    -0.436859730144E+02    0.11390E-01   -0.89929E-01  2688   0.285E+00  -0.158E+00
DMP:  45    -0.436724805266E+02    0.13492E-01   -0.13244E+00  2688   0.442E+00  -0.291E+00
DMP:  46    -0.436722084456E+02    0.27208E-03   -0.12987E+00  2688   0.451E+00  -0.330E+00
DMP:  47    -0.436737427798E+02   -0.15343E-02   -0.12831E+00  2688   0.441E+00  -0.314E+00
DMP:  48    -0.436641504519E+02    0.95923E-02   -0.18338E+00  2688   0.599E+00  -0.368E+00
DMP:  49    -0.436394759153E+02    0.24675E-01   -0.29596E+00  2688   0.961E+00  -0.580E+00
DMP:  50    -0.436023539243E+02    0.37122E-01   -0.40413E+00  2688   0.136E+01  -0.928E+00
DMP:  51    -0.436122056562E+02   -0.98517E-02   -0.33827E+00  2688   0.121E+01  -0.955E+00
DMP:  52    -0.436445519305E+02   -0.32346E-01   -0.18323E+00  2688   0.720E+00  -0.686E+00
DMP:  53    -0.436912083000E+02   -0.46656E-01   -0.40691E-01  2688   0.187E+00  -0.224E+00
DMP:  54    -0.437042037695E+02   -0.12995E-01   -0.56204E-02  2688   0.280E-01  -0.364E-01
DMP:  55    -0.437052702993E+02   -0.10665E-02   -0.52347E-02  2688   0.164E-01  -0.877E-02
DMP:  56    -0.437053853518E+02   -0.11505E-03   -0.51287E-02  2688   0.177E-01  -0.126E-01
DMP:  57    -0.437055390932E+02   -0.15374E-03   -0.43702E-02  2688   0.155E-01  -0.119E-01
DMP:  58    -0.437059520012E+02   -0.41291E-03   -0.36046E-02  2688   0.124E-01  -0.893E-02
DMP:  59    -0.437058704892E+02    0.81512E-04   -0.37087E-02  2688   0.129E-01  -0.941E-02
DMP:  60    -0.437061742898E+02   -0.30380E-03   -0.29687E-02  2688   0.104E-01  -0.776E-02
DMP:  61    -0.437061676221E+02    0.66677E-05   -0.28364E-02  2688   0.993E-02  -0.744E-02
DMP:  62    -0.437064406595E+02   -0.27304E-03   -0.21462E-02  2688   0.756E-02  -0.575E-02
DMP:  63    -0.437064663703E+02   -0.25711E-04   -0.19333E-02  2688   0.683E-02  -0.522E-02
DMP:  64    -0.437066833141E+02   -0.21694E-03   -0.13684E-02  2688   0.486E-02  -0.377E-02
DMP:  65    -0.437067262888E+02   -0.42975E-04   -0.11589E-02  2688   0.412E-02  -0.319E-02
DMP:  66    -0.437068775467E+02   -0.15126E-03   -0.76851E-03  2688   0.274E-02  -0.215E-02
DMP:  67    -0.437069191503E+02   -0.41604E-04   -0.61244E-03  2688   0.218E-02  -0.170E-02
DMP:  68    -0.437070133150E+02   -0.94165E-04   -0.38024E-03  2688   0.136E-02  -0.107E-02
DMP:  69    -0.437070465268E+02   -0.33212E-04   -0.28315E-03  2688   0.101E-02  -0.780E-03
