<?xml version="1.0" encoding="ISO-8859-1"?>
<modeling>
 <generator>
  <i name="program" type="string">vasp </i>
  <i name="version" type="string">6.5.1  </i>
  <i name="subversion" type="string">10Mar25 (build May 05 2025 13:45:00) complex                          parallel </i>
  <i name="platform" type="string">LinuxIFC </i>
  <i name="date" type="string">2026 04 28 </i>
  <i name="time" type="string">06:49:00 </i>
 </generator>
 <incar>
  <i type="string" name="PREC">Normal</i>
  <i type="string" name="ALGO">Damped</i>
  <i type="int" name="NELM">   100</i>
  <i type="int" name="IBRION">     2</i>
  <i name="EDIFF">      0.00000010</i>
  <i name="EDIFFG">     -0.00500000</i>
  <i type="int" name="NSW">   300</i>
  <i type="int" name="ISIF">     3</i>
  <i name="ENCUT">    400.00000000</i>
  <i type="logical" name="LREAL"> F  </i>
  <i name="TIME">      0.40000000</i>
  <i type="int" name="ISMEAR">     0</i>
  <i name="SIGMA">      0.10000000</i>
  <i type="logical" name="LWAVE"> T  </i>
  <i type="logical" name="LCHARG"> F  </i>
  <i type="int" name="LORBIT">    10</i>
  <i type="logical" name="LASPH"> T  </i>
  <i name="HFSCREEN">      0.20000000</i>
  <i type="logical" name="LHFCALC"> T  </i>
  <i name="AEXX">      0.36000000</i>
  <i type="string" name="PRECFOCK">Fast</i>
 </incar>
 <primitive_cell>
  <structure name="primitive_cell" >
   <crystal>
    <varray name="basis" >
     <v>       6.72709499       0.00000000       0.00000000 </v>
     <v>       0.00000000       4.49536182       0.00000000 </v>
     <v>       0.00000000       0.00000000      10.19690189 </v>
    </varray>
    <i name="volume">    308.36171588 </i>
    <varray name="rec_basis" >
     <v>       0.14865258       0.00000000       0.00000000 </v>
     <v>       0.00000000       0.22245150       0.00000000 </v>
     <v>       0.00000000       0.00000000       0.09806900 </v>
    </varray>
   </crystal>
   <varray name="positions" >
    <v>       0.28167711       0.75000000       0.15542309 </v>
    <v>       0.78167711       0.75000000       0.34457691 </v>
    <v>       0.71832289       0.25000000       0.84457691 </v>
    <v>       0.21832289       0.25000000       0.65542309 </v>
    <v>       0.53420839       0.75000000       0.60806410 </v>
    <v>       0.03420839       0.75000000       0.89193590 </v>
    <v>       0.46579161       0.25000000       0.39193590 </v>
    <v>       0.96579161       0.25000000       0.10806410 </v>
    <v>       0.90947203       0.75000000       0.64765187 </v>
    <v>       0.40947203       0.75000000       0.85234813 </v>
    <v>       0.09052797       0.25000000       0.35234813 </v>
    <v>       0.59052797       0.25000000       0.14765187 </v>
    <v>       0.22589271       0.75000000       0.45315497 </v>
    <v>       0.72589271       0.75000000       0.04684503 </v>
    <v>       0.77410729       0.25000000       0.54684503 </v>
    <v>       0.27410729       0.25000000       0.95315497 </v>
   </varray>
  </structure>
  <varray name="primitive_index" >
   <v type="int" >        1 </v>
   <v type="int" >        2 </v>
   <v type="int" >        3 </v>
   <v type="int" >        4 </v>
   <v type="int" >        5 </v>
   <v type="int" >        6 </v>
   <v type="int" >        7 </v>
   <v type="int" >        8 </v>
   <v type="int" >        9 </v>
   <v type="int" >       10 </v>
   <v type="int" >       11 </v>
   <v type="int" >       12 </v>
   <v type="int" >       13 </v>
   <v type="int" >       14 </v>
   <v type="int" >       15 </v>
   <v type="int" >       16 </v>
  </varray>
 </primitive_cell>
 <kpoints>
  <generation param="Gamma">
   <v type="int" name="divisions">       5        7        4 </v>
   <v name="usershift">      0.00000000       0.00000000       0.50000000 </v>
   <v name="genvec1">      0.20000000       0.00000000       0.00000000 </v>
   <v name="genvec2">      0.00000000       0.14285714       0.00000000 </v>
   <v name="genvec3">      0.00000000       0.00000000       0.25000000 </v>
   <v name="shift">      0.00000000       0.00000000       0.50000000 </v>
  </generation>
  <varray name="kpointlist" >
   <v>       0.00000000       0.00000000       0.12500000 </v>
   <v>       0.20000000       0.00000000       0.12500000 </v>
   <v>       0.40000000       0.00000000       0.12500000 </v>
   <v>       0.00000000       0.14285714       0.12500000 </v>
   <v>       0.20000000       0.14285714       0.12500000 </v>
   <v>       0.40000000       0.14285714       0.12500000 </v>
   <v>       0.00000000       0.28571429       0.12500000 </v>
   <v>       0.20000000       0.28571429       0.12500000 </v>
   <v>       0.40000000       0.28571429       0.12500000 </v>
   <v>       0.00000000       0.42857143       0.12500000 </v>
   <v>       0.20000000       0.42857143       0.12500000 </v>
   <v>       0.40000000       0.42857143       0.12500000 </v>
   <v>       0.00000000       0.00000000       0.37500000 </v>
   <v>       0.20000000       0.00000000       0.37500000 </v>
   <v>       0.40000000       0.00000000       0.37500000 </v>
   <v>       0.00000000       0.14285714       0.37500000 </v>
   <v>       0.20000000       0.14285714       0.37500000 </v>
   <v>       0.40000000       0.14285714       0.37500000 </v>
   <v>       0.00000000       0.28571429       0.37500000 </v>
   <v>       0.20000000       0.28571429       0.37500000 </v>
   <v>       0.40000000       0.28571429       0.37500000 </v>
   <v>       0.00000000       0.42857143       0.37500000 </v>
   <v>       0.20000000       0.42857143       0.37500000 </v>
   <v>       0.40000000       0.42857143       0.37500000 </v>
  </varray>
  <varray name="weights" >
   <v>       0.01428571 </v>
   <v>       0.02857143 </v>
   <v>       0.02857143 </v>
   <v>       0.02857143 </v>
   <v>       0.05714286 </v>
   <v>       0.05714286 </v>
   <v>       0.02857143 </v>
   <v>       0.05714286 </v>
   <v>       0.05714286 </v>
   <v>       0.02857143 </v>
   <v>       0.05714286 </v>
   <v>       0.05714286 </v>
   <v>       0.01428571 </v>
   <v>       0.02857143 </v>
   <v>       0.02857143 </v>
   <v>       0.02857143 </v>
   <v>       0.05714286 </v>
   <v>       0.05714286 </v>
   <v>       0.02857143 </v>
   <v>       0.05714286 </v>
   <v>       0.05714286 </v>
   <v>       0.02857143 </v>
   <v>       0.05714286 </v>
   <v>       0.05714286 </v>
  </varray>
 </kpoints>
 <parameters>
  <separator name="general" >
   <i type="string" name="SYSTEM">unknown system</i>
   <i type="logical" name="LCOMPAT"> F  </i>
  </separator>
  <separator name="electronic" >
   <i type="string" name="PREC">normal</i>
   <i name="ENMAX">    400.00000000</i>
   <i name="ENAUG">    575.89200000</i>
   <i name="EDIFF">      0.00000010</i>
   <i type="int" name="IALGO">    53</i>
   <i type="int" name="IWAVPR">    11</i>
   <i type="int" name="NBANDS">   112</i>
   <i type="int" name="NBANDSLOW">    -1</i>
   <i type="int" name="NBANDSHIGH">    -1</i>
   <i name="NELECT">    188.00000000</i>
   <i type="int" name="TURBO">     0</i>
   <i type="int" name="IRESTART">     0</i>
   <i type="int" name="NREBOOT">     0</i>
   <i type="int" name="NMIN">     0</i>
   <i name="EREF">      0.00000000</i>
   <separator name="electronic smearing" >
    <i type="int" name="ISMEAR">     0</i>
    <i name="SIGMA">      0.10000000</i>
    <i name="KSPACING">      0.50000000</i>
    <i type="logical" name="KGAMMA"> T  </i>
    <i type="logical" name="KBLOWUP"> T  </i>
   </separator>
   <separator name="electronic projectors" >
    <i type="logical" name="LREAL"> F  </i>
    <v name="ROPT">      0.00000000      0.00000000</v>
    <i type="int" name="LMAXPAW">  -100</i>
    <i type="int" name="LMAXMIX">     2</i>
    <i type="logical" name="NLSPLINE"> F  </i>
   </separator>
   <separator name="electronic startup" >
    <i type="int" name="ISTART">     0</i>
    <i type="int" name="ICHARG">     2</i>
    <i type="int" name="INIWAV">     1</i>
   </separator>
   <separator name="electronic spin" >
    <i type="int" name="ISPIN">     1</i>
    <i type="logical" name="LNONCOLLINEAR"> F  </i>
    <v name="MAGMOM">      1.00000000      1.00000000      1.00000000      1.00000000      1.00000000      1.00000000      1.00000000      1.00000000      1.00000000      1.00000000      1.00000000      1.00000000      1.00000000      1.00000000      1.00000000      1.00000000</v>
    <i name="NUPDOWN">     -1.00000000</i>
    <i type="logical" name="LSORBIT"> F  </i>
    <v name="SAXIS">      0.00000000      0.00000000      1.00000000</v>
    <i type="logical" name="LSPIRAL"> F  </i>
    <v name="QSPIRAL">      0.00000000      0.00000000      0.00000000</v>
    <i type="logical" name="LZEROZ"> F  </i>
   </separator>
   <separator name="electronic exchange-correlation" >
    <i type="logical" name="LASPH"> T  </i>
   </separator>
   <separator name="electronic convergence" >
    <i type="int" name="NELM">   100</i>
    <i type="int" name="NELMDL">    -5</i>
    <i type="int" name="NELMIN">     2</i>
    <i name="ENINI">    400.00000000</i>
    <separator name="electronic convergence detail" >
     <i type="logical" name="LDIAG"> T  </i>
     <i type="logical" name="LSUBROT"> F  </i>
     <i type="logical" name="LROBUST"> F  </i>
     <i type="int" name="ISEARCH">     0</i>
     <i name="WEIMIN">      0.00100000</i>
     <i name="EBREAK">      0.00000000</i>
     <i name="DEPER">      0.30000000</i>
     <i type="int" name="NRMM">     4</i>
     <i name="TIME">      0.40000000</i>
    </separator>
   </separator>
   <separator name="electronic mixer" >
    <i name="AMIX">      0.40000000</i>
    <i name="BMIX">      1.00000000</i>
    <i name="AMIN">      0.10000000</i>
    <i name="AMIX_MAG">      1.60000000</i>
    <i name="BMIX_MAG">      1.00000000</i>
    <separator name="electronic mixer details" >
     <i type="int" name="IMIX">     4</i>
     <i type="logical" name="MIXFIRST"> F  </i>
     <i type="int" name="MAXMIX">   -45</i>
     <i name="WC">    100.00000000</i>
     <i type="int" name="INIMIX">     1</i>
     <i type="int" name="MIXPRE">     1</i>
     <i type="int" name="MREMOVE">     5</i>
    </separator>
   </separator>
   <separator name="electronic dipolcorrection" >
    <i type="logical" name="LDIPOL"> F  </i>
    <i type="logical" name="LMONO"> F  </i>
    <i type="int" name="IDIPOL">     0</i>
    <i name="EPSILON">      1.00000000</i>
    <v name="DIPOL">   -100.00000000   -100.00000000   -100.00000000</v>
    <i name="EFIELD">      0.00000000</i>
    <i type="logical" name="LVACPOTAV"> F  </i>
   </separator>
  </separator>
  <separator name="grids" >
   <i type="int" name="NGX">    36</i>
   <i type="int" name="NGY">    24</i>
   <i type="int" name="NGZ">    50</i>
   <i type="int" name="NGXF">    72</i>
   <i type="int" name="NGYF">    48</i>
   <i type="int" name="NGZF">   100</i>
   <i type="logical" name="ADDGRID"> F  </i>
  </separator>
  <separator name="ionic" >
   <i type="int" name="NSW">   300</i>
   <i type="int" name="IBRION">     2</i>
   <i type="int" name="MDALGO">     0</i>
   <i type="int" name="ISIF">     3</i>
   <i name="PSTRESS">      0.00000000</i>
   <i name="EDIFFG">     -0.00500000</i>
   <i type="int" name="NFREE">     1</i>
   <i name="POTIM">      0.50000000</i>
   <i name="SMASS">     -3.00000000</i>
   <i name="SCALEE">      1.00000000</i>
  </separator>
  <separator name="ionic md" >
   <i name="TEBEG">      0.00010000</i>
   <i name="TEEND">      0.00010000</i>
   <i type="int" name="NBLOCK">     1</i>
   <i type="int" name="KBLOCK">   300</i>
   <i type="int" name="NPACO">   256</i>
   <i name="APACO">     10.00000000</i>
  </separator>
  <separator name="symmetry" >
   <i type="int" name="ISYM">     3</i>
   <i name="SYMPREC">      0.00001000</i>
  </separator>
  <separator name="dos" >
   <i type="int" name="LORBIT">    10</i>
   <v name="RWIGS">     -1.00000000     -1.00000000</v>
   <i type="int" name="NEDOS">   301</i>
   <i name="EMIN">     10.00000000</i>
   <i name="EMAX">    -10.00000000</i>
   <i name="EFERMI">      0.00000000</i>
  </separator>
  <separator name="writing" >
   <i type="int" name="NWRITE">     2</i>
   <i type="logical" name="LWAVE"> T  </i>
   <i type="logical" name="LDOWNSAMPLE"> F  </i>
   <i type="logical" name="LCHARG"> F  </i>
   <i type="logical" name="LPARD"> F  </i>
   <i type="logical" name="LVTOT"> F  </i>
   <i type="logical" name="LVHAR"> F  </i>
   <i type="logical" name="LELF"> F  </i>
   <i type="logical" name="LOPTICS"> F  </i>
   <v name="STM">      0.00000000      0.00000000      0.00000000      0.00000000      0.00000000      0.00000000      0.00000000</v>
  </separator>
  <separator name="performance" >
   <i type="int" name="NPAR">    28</i>
   <i type="int" name="NSIM">     4</i>
   <i type="int" name="NBLK">    -1</i>
   <i type="logical" name="LPLANE"> T  </i>
   <i type="logical" name="LSCALAPACK"> T  </i>
   <i type="logical" name="LSCAAWARE"> F  </i>
   <i type="logical" name="LSCALU"> F  </i>
   <i type="logical" name="LASYNC"> F  </i>
   <i type="logical" name="LORBITALREAL"> F  </i>
  </separator>
  <separator name="miscellaneous" >
   <i type="int" name="IDIOT">     3</i>
   <i type="int" name="PHON_NSTRUCT">    -1</i>
   <i type="logical" name="LMUSIC"> F  </i>
   <v name="POMASS">    144.24000000     65.39000000</v>
   <v name="DARWINR">      0.00000000      0.00000000</v>
   <v name="DARWINV">      1.00000000      1.00000000</v>
   <i type="logical" name="LCORR"> T  </i>
  </separator>
  <i type="logical" name="GGA_COMPAT"> T  </i>
  <i type="logical" name="LBERRY"> F  </i>
  <i type="int" name="ICORELEVEL">     0</i>
  <i type="logical" name="LDAU"> F  </i>
  <i type="int" name="I_CONSTRAINED_M">     0</i>
  <separator name="electronic exchange-correlation" >
   <i type="string" name="GGA    ">PE</i>
   <i type="string" name="XC_C">1</i>
   <i type="int" name="VOSKOWN">     0</i>
   <i type="logical" name="LHFCALC"> T  </i>
   <i type="string" name="PRECFOCK">fast</i>
   <i type="logical" name="LSYMGRAD"> F  </i>
   <i type="logical" name="LHFONE"> F  </i>
   <i type="logical" name="LRHFCALC"> F  </i>
   <i type="logical" name="LTHOMAS"> F  </i>
   <i type="logical" name="LMODELHF"> F  </i>
   <i type="logical" name="LFOCKACE"> T  </i>
   <i name="ENCUT4O">     -1.00000000</i>
   <i type="int" name="EXXOEP">     0</i>
   <i type="int" name="FOURORBIT">     0</i>
   <i name="AEXX">      0.36000000</i>
   <i name="HFALPHA">     -1.00000000</i>
   <i name="MCALPHA">      0.00000000</i>
   <i name="ALDAX">      0.64000000</i>
   <i name="AGGAX">      0.64000000</i>
   <i name="AMGGAX">      0.64000000</i>
   <i name="ALDAC">      1.00000000</i>
   <i name="AGGAC">      1.00000000</i>
   <i name="AMGGAC">      1.00000000</i>
   <i type="int" name="NKREDX">     1</i>
   <i type="int" name="NKREDY">     1</i>
   <i type="int" name="NKREDZ">     1</i>
   <i type="logical" name="SHIFTRED"> F  </i>
   <i type="logical" name="ODDONLY"> F  </i>
   <i type="logical" name="EVENONLY"> F  </i>
   <i type="int" name="LMAXFOCK">     4</i>
   <i type="int" name="NMAXFOCKAE">     1</i>
   <i type="logical" name="LFOCKAEDFT"> F  </i>
   <i name="HFSCREEN">      0.20000000</i>
   <i name="HFSCREENC">      0.20000000</i>
   <i type="int" name="NBANDSGWLOW">     1</i>
  </separator>
  <separator name="vdW DFT" >
   <i type="logical" name="LUSE_VDW"> F  </i>
   <i type="int" name="IVDW_NL">    -1</i>
   <i type="logical" name="LSPIN_VDW"> F  </i>
   <i name="ZAB_VDW">     -0.84910000</i>
   <i name="GAMMA_VDW">      1.39626340</i>
   <i name="ALPHA_VDW">      0.00000000</i>
   <i name="PARAM1">      0.12340000</i>
   <i name="PARAM2">      1.00000000</i>
   <i name="BPARAM">      6.30000000</i>
   <i name="CPARAM">      0.00930000</i>
  </separator>
  <separator name="model GW" >
   <i type="int" name="MODEL_GW">     0</i>
   <i name="MODEL_EPS0">     11.56356435</i>
   <i name="MODEL_ALPHA">      1.00000000</i>
  </separator>
  <separator name="linear response parameters" >
   <i type="logical" name="LEPSILON"> F  </i>
   <i type="logical" name="LRPA"> F  </i>
   <i type="logical" name="LNABLA"> F  </i>
   <i type="logical" name="LVEL"> F  </i>
   <i name="CSHIFT">      0.10000000</i>
   <i name="OMEGAMAX">     -1.00000000</i>
   <i name="DEG_THRESHOLD">      0.00200000</i>
   <i name="RTIME">     -0.10000000</i>
   <i name="WPLASMAI">      0.00000000</i>
   <v name="DFIELD">      0.00000000      0.00000000      0.00000000</v>
   <v name="WPLASMA">      0.00000000      0.00000000      0.00000000      0.00000000      0.00000000      0.00000000      0.00000000      0.00000000      0.00000000</v>
  </separator>
  <separator name="orbital magnetization" >
   <i type="logical" name="NUCIND"> F  </i>
   <v name="MAGPOS">      0.00000000      0.00000000      0.00000000</v>
   <i type="logical" name="LNICSALL"> T  </i>
   <i type="logical" name="ORBITALMAG"> F  </i>
   <i type="logical" name="LMAGBLOCH"> F  </i>
   <i type="logical" name="LCHIMAG"> F  </i>
   <i type="logical" name="LGAUGE"> T  </i>
   <i type="int" name="MAGATOM">     0</i>
   <v name="MAGDIPOL">      0.00000000      0.00000000      0.00000000</v>
   <v name="AVECCONST">      0.00000000      0.00000000      0.00000000</v>
  </separator>
  <separator name="response functions" >
   <i type="logical" name="LALL_IN_ONE"> F  </i>
   <i type="int" name="IALL_IN_ONE">    -1</i>
   <i type="int" name="NBANDS_WAVE">    -1</i>
   <i type="logical" name="LFINITE_TEMPERATURE"> F  </i>
   <i type="logical" name="LADDER"> F  </i>
   <i type="logical" name="LRPAFORCE"> F  </i>
   <i type="logical" name="LFXC"> F  </i>
   <i type="logical" name="LHARTREE"> T  </i>
   <i type="int" name="IBSE">     2</i>
   <v type="int" name="KPOINT">    -1     0     0     0</v>
   <i type="logical" name="LTCTC"> F  </i>
   <i type="logical" name="LTCTE"> F  </i>
   <i type="logical" name="LTETE"> F  </i>
   <i type="logical" name="LTRIPLET"> F  </i>
   <i type="logical" name="LFXCEPS"> F  </i>
   <i type="logical" name="LFXHEG"> F  </i>
   <i type="int" name="NATURALO">     2</i>
   <i type="logical" name="LHOLEGF"> F  </i>
   <i type="logical" name="L2ORDER"> F  </i>
   <i type="logical" name="LDMP1"> F  </i>
   <i type="logical" name="LMP2LT"> F  </i>
   <i type="logical" name="LSMP2LT"> F  </i>
   <i type="logical" name="LGWLF"> F  </i>
   <i name="ENCUTGW">     -1.60000002</i>
   <i name="ENCUTGWSOFT">     -1.60000002</i>
   <i name="ENCUTLF">     -1.00000000</i>
   <i type="logical" name="ESF_SPLINES"> F  </i>
   <i name="ESF_CONV">      0.01000000</i>
   <i type="int" name="ESF_NINTER">    15</i>
   <i type="int" name="LMAXMP2">    -1</i>
   <i name="SCISSOR">      0.00000000</i>
   <i type="int" name="NOMEGA">     0</i>
   <i type="int" name="NOMEGAR">     0</i>
   <i type="int" name="NBANDSGW">    -1</i>
   <i type="int" name="NBANDSO">    -1</i>
   <i type="int" name="NBANDSV">    -1</i>
   <i type="int" name="NELMGW">     1</i>
   <i type="int" name="NELMHF">     1</i>
   <i type="int" name="DIM">     3</i>
   <i type="int" name="IESPILON">     4</i>
   <i type="int" name="ANTIRES">     0</i>
   <i name="OMEGAMAX">    -30.00000000</i>
   <i name="OMEGAMIN">    -30.00000000</i>
   <i name="OMEGATL">   -200.00000000</i>
   <i type="int" name="OMEGAGRID">     0</i>
   <i name="CSHIFT">     -0.10000000</i>
   <i type="logical" name="LSELFENERGY"> F  </i>
   <i type="logical" name="LSPECTRAL"> F  </i>
   <i type="logical" name="LSPECTRALGW"> F  </i>
   <i type="logical" name="LSINGLES"> F  </i>
   <i type="logical" name="LFERMIGW"> F  </i>
   <i type="logical" name="ODDONLYGW"> F  </i>
   <i type="logical" name="EVENONLYGW"> F  </i>
   <i type="int" name="NKREDLFX">     1</i>
   <i type="int" name="NKREDLFY">     1</i>
   <i type="int" name="NKREDLFZ">     1</i>
   <i type="int" name="MAXMEM">  2800</i>
   <i type="int" name="TELESCOPE">     0</i>
   <i type="int" name="NTAUPAR">    -1</i>
   <i type="int" name="NOMEGAPAR">    -1</i>
   <i name="DAMP_NEWTON">      0.80000001</i>
   <i name="LAMBDA">      1.00000000</i>
  </separator>
  <separator name="External order field" >
   <i name="OFIELD_KAPPA">      0.00000000</i>
   <v name="OFIELD_K">      0.00000000      0.00000000      0.00000000</v>
   <i name="OFIELD_Q6_NEAR">      0.00000000</i>
   <i name="OFIELD_Q6_FAR">      0.00000000</i>
   <i name="OFIELD_A">      0.00000000</i>
  </separator>
  <separator name="optional k-points parameters" >
   <i type="int" name="KPOINTS_OPT_MODE">     1</i>
   <i type="logical" name="LKPOINTS_OPT"> F  </i>
  </separator>
 </parameters>
 <atominfo>
  <atoms>      16 </atoms>
  <types>       2 </types>
  <array name="atoms" >
   <dimension dim="1">ion</dimension>
   <field type="string">element</field>
   <field type="int">atomtype</field>
   <set>
    <rc><c>Nd</c><c>   1</c></rc>
    <rc><c>Nd</c><c>   1</c></rc>
    <rc><c>Nd</c><c>   1</c></rc>
    <rc><c>Nd</c><c>   1</c></rc>
    <rc><c>Zn</c><c>   2</c></rc>
    <rc><c>Zn</c><c>   2</c></rc>
    <rc><c>Zn</c><c>   2</c></rc>
    <rc><c>Zn</c><c>   2</c></rc>
    <rc><c>Zn</c><c>   2</c></rc>
    <rc><c>Zn</c><c>   2</c></rc>
    <rc><c>Zn</c><c>   2</c></rc>
    <rc><c>Zn</c><c>   2</c></rc>
    <rc><c>Zn</c><c>   2</c></rc>
    <rc><c>Zn</c><c>   2</c></rc>
    <rc><c>Zn</c><c>   2</c></rc>
    <rc><c>Zn</c><c>   2</c></rc>
   </set>
  </array>
  <array name="atomtypes" >
   <dimension dim="1">type</dimension>
   <field type="int">atomspertype</field>
   <field type="string">element</field>
   <field>mass</field>
   <field>valence</field>
   <field type="string">pseudopotential</field>
   <set>
    <rc><c>   4</c><c>Nd</c><c>    144.24000000</c><c>     11.00000000</c><c>  PAW_PBE Nd_3 06Sep2000                </c></rc>
    <rc><c>  12</c><c>Zn</c><c>     65.39000000</c><c>     12.00000000</c><c>  PAW_PBE Zn 06Sep2000                  </c></rc>
   </set>
  </array>
 </atominfo>
 <structure name="initialpos" >
  <crystal>
   <varray name="basis" >
    <v>       6.72709499       0.00000000       0.00000000 </v>
    <v>       0.00000000       4.49536182       0.00000000 </v>
    <v>       0.00000000       0.00000000      10.19690189 </v>
   </varray>
   <i name="volume">    308.36171588 </i>
   <varray name="rec_basis" >
    <v>       0.14865258       0.00000000       0.00000000 </v>
    <v>       0.00000000       0.22245150       0.00000000 </v>
    <v>       0.00000000       0.00000000       0.09806900 </v>
   </varray>
  </crystal>
  <varray name="positions" >
   <v>       0.28167711       0.75000000       0.15542309 </v>
   <v>       0.78167711       0.75000000       0.34457691 </v>
   <v>       0.71832289       0.25000000       0.84457691 </v>
   <v>       0.21832289       0.25000000       0.65542309 </v>
   <v>       0.53420839       0.75000000       0.60806410 </v>
   <v>       0.03420839       0.75000000       0.89193590 </v>
   <v>       0.46579161       0.25000000       0.39193590 </v>
   <v>       0.96579161       0.25000000       0.10806410 </v>
   <v>       0.90947203       0.75000000       0.64765187 </v>
   <v>       0.40947203       0.75000000       0.85234813 </v>
   <v>       0.09052797       0.25000000       0.35234813 </v>
   <v>       0.59052797       0.25000000       0.14765187 </v>
   <v>       0.22589271       0.75000000       0.45315497 </v>
   <v>       0.72589271       0.75000000       0.04684503 </v>
   <v>       0.77410729       0.25000000       0.54684503 </v>
   <v>       0.27410729       0.25000000       0.95315497 </v>
  </varray>
 </structure>
 <calculation>
  <scstep>
   <time name="total">    0.61    0.73</time>
   <energy>
    <i name="alphaZ">   1557.91292079 </i>
    <i name="ewald"> -16835.37098453 </i>
    <i name="hartreedc">  -7328.97761185 </i>
    <i name="XCdc">    795.38877546 </i>
    <i name="pawpsdc">  20344.30755899 </i>
    <i name="pawaedc"> -37119.61475208 </i>
    <i name="eentropy">     -0.01540920 </i>
    <i name="bandstr">    287.78891687 </i>
    <i name="atom">  24713.04825615 </i>
    <i name="e_fr_energy"> -13585.53232940 </i>
    <i name="e_wo_entrp"> -13585.51692020 </i>
    <i name="e_0_energy"> -13585.52462480 </i>
   </energy>
  </scstep>
  <scstep>
   <time name="total">    0.60    0.60</time>
   <energy>
    <i name="e_fr_energy"> -15167.71649434 </i>
    <i name="e_wo_entrp"> -15167.69937193 </i>
    <i name="e_0_energy"> -15167.70793313 </i>
   </energy>
  </scstep>
  <scstep>
   <time name="total">    0.55    0.55</time>
   <energy>
    <i name="e_fr_energy"> -15596.43954250 </i>
    <i name="e_wo_entrp"> -15596.40000645 </i>
    <i name="e_0_energy"> -15596.41977448 </i>
   </energy>
  </scstep>
  <scstep>
   <time name="total">    0.72    0.74</time>
   <energy>
    <i name="e_fr_energy"> -15680.29228743 </i>
    <i name="e_wo_entrp"> -15680.24904404 </i>
    <i name="e_0_energy"> -15680.27066574 </i>
   </energy>
  </scstep>
  <scstep>
   <time name="total">  239.73  240.80</time>
   <energy>
    <i name="e_fr_energy">    -36.16933755 </i>
    <i name="e_wo_entrp">    -36.13079244 </i>
    <i name="e_0_energy">    -36.15006499 </i>
   </energy>
  </scstep>
  <scstep>
   <time name="total">  237.45  238.79</time>
   <energy>
    <i name="e_fr_energy">    -35.12421034 </i>
    <i name="e_wo_entrp">    -35.08566522 </i>
    <i name="e_0_energy">    -35.10493778 </i>
   </energy>
  </scstep>
  <scstep>
   <time name="total">  236.89  238.23</time>
   <energy>
    <i name="e_fr_energy">    -39.89645053 </i>
    <i name="e_wo_entrp">    -39.85789073 </i>
    <i name="e_0_energy">    -39.87717063 </i>
   </energy>
  </scstep>
  <scstep>
   <time name="total">  237.16  238.51</time>
   <energy>
    <i name="e_fr_energy">    -42.29244781 </i>
    <i name="e_wo_entrp">    -42.25433581 </i>
    <i name="e_0_energy">    -42.27339181 </i>
   </energy>
  </scstep>
  <scstep>
   <time name="total">  236.90  237.89</time>
   <energy>
    <i name="e_fr_energy">    -42.74618957 </i>
    <i name="e_wo_entrp">    -42.70921990 </i>
    <i name="e_0_energy">    -42.72770473 </i>
   </energy>
  </scstep>
  <scstep>
   <time name="total">  237.36  238.53</time>
   <energy>
    <i name="e_fr_energy">    -43.20260895 </i>
    <i name="e_wo_entrp">    -43.16708826 </i>
    <i name="e_0_energy">    -43.18484861 </i>
   </energy>
  </scstep>
  <scstep>
   <time name="total">  237.20  238.33</time>
   <energy>
    <i name="e_fr_energy">    -43.40254176 </i>
    <i name="e_wo_entrp">    -43.36833272 </i>
    <i name="e_0_energy">    -43.38543724 </i>
   </energy>
  </scstep>
  <scstep>
   <time name="total">  237.25  238.63</time>
   <energy>
    <i name="e_fr_energy">    -43.53591002 </i>
    <i name="e_wo_entrp">    -43.50274727 </i>
    <i name="e_0_energy">    -43.51932864 </i>
   </energy>
  </scstep>
  <scstep>
   <time name="total">  237.26  238.76</time>
   <energy>
    <i name="e_fr_energy">    -43.59939679 </i>
    <i name="e_wo_entrp">    -43.56697718 </i>
    <i name="e_0_energy">    -43.58318699 </i>
   </energy>
  </scstep>
  <scstep>
   <time name="total">  236.77  237.85</time>
   <energy>
    <i name="e_fr_energy">    -43.63698389 </i>
    <i name="e_wo_entrp">    -43.60504715 </i>
    <i name="e_0_energy">    -43.62101552 </i>
   </energy>
  </scstep>
  <scstep>
   <time name="total">  236.84  238.11</time>
   <energy>
    <i name="e_fr_energy">    -43.65833221 </i>
    <i name="e_wo_entrp">    -43.62669586 </i>
    <i name="e_0_energy">    -43.64251403 </i>
   </energy>
  </scstep>
  <scstep>
   <time name="total">  237.05  238.21</time>
   <energy>
    <i name="e_fr_energy">    -43.67127866 </i>
    <i name="e_wo_entrp">    -43.63981855 </i>
    <i name="e_0_energy">    -43.65554860 </i>
   </energy>
  </scstep>
  <scstep>
   <time name="total">  236.82  238.04</time>
   <energy>
    <i name="e_fr_energy">    -43.67954379 </i>
    <i name="e_wo_entrp">    -43.64818092 </i>
    <i name="e_0_energy">    -43.66386235 </i>
   </energy>
  </scstep>
  <scstep>
   <time name="total">  237.19  238.39</time>
   <energy>
    <i name="e_fr_energy">    -43.68507881 </i>
    <i name="e_wo_entrp">    -43.65376839 </i>
    <i name="e_0_energy">    -43.66942360 </i>
   </energy>
  </scstep>
  <scstep>
   <time name="total">  237.13  238.37</time>
   <energy>
    <i name="e_fr_energy">    -43.68901096 </i>
    <i name="e_wo_entrp">    -43.65772845 </i>
    <i name="e_0_energy">    -43.67336970 </i>
   </energy>
  </scstep>
  <scstep>
   <time name="total">  236.98  238.15</time>
   <energy>
    <i name="e_fr_energy">    -43.69190324 </i>
    <i name="e_wo_entrp">    -43.66063450 </i>
    <i name="e_0_energy">    -43.67626887 </i>
   </energy>
  </scstep>
  <scstep>
   <time name="total">  236.98  238.16</time>
   <energy>
    <i name="e_fr_energy">    -43.69406176 </i>
    <i name="e_wo_entrp">    -43.66279954 </i>
    <i name="e_0_energy">    -43.67843065 </i>
   </energy>
  </scstep>
  <scstep>
   <time name="total">  237.08  238.42</time>
   <energy>
    <i name="e_fr_energy">    -43.69570254 </i>
    <i name="e_wo_entrp">    -43.66444415 </i>
    <i name="e_0_energy">    -43.68007334 </i>
   </energy>
  </scstep>
  <scstep>
   <time name="total">  237.12  238.35</time>
   <energy>
    <i name="e_fr_energy">    -43.69698412 </i>
    <i name="e_wo_entrp">    -43.66572880 </i>
    <i name="e_0_energy">    -43.68135646 </i>
   </energy>
  </scstep>
  <scstep>
   <time name="total">  236.93  238.07</time>
   <energy>
    <i name="e_fr_energy">    -43.69800203 </i>
    <i name="e_wo_entrp">    -43.66674946 </i>
    <i name="e_0_energy">    -43.68237574 </i>
   </energy>
  </scstep>
  <scstep>
   <time name="total">  236.90  238.06</time>
   <energy>
    <i name="e_fr_energy">    -43.69881740 </i>
    <i name="e_wo_entrp">    -43.66756746 </i>
    <i name="e_0_energy">    -43.68319243 </i>
   </energy>
  </scstep>
  <scstep>
   <time name="total">  237.20  238.46</time>
   <energy>
    <i name="e_fr_energy">    -43.69947831 </i>
    <i name="e_wo_entrp">    -43.66823092 </i>
    <i name="e_0_energy">    -43.68385462 </i>
   </energy>
  </scstep>
  <scstep>
   <time name="total">  237.10  238.13</time>
   <energy>
    <i name="e_fr_energy">    -43.70002284 </i>
    <i name="e_wo_entrp">    -43.66877789 </i>
    <i name="e_0_energy">    -43.68440036 </i>
   </energy>
  </scstep>
  <scstep>
   <time name="total">  236.88  237.89</time>
   <energy>
    <i name="e_fr_energy">    -43.70048668 </i>
    <i name="e_wo_entrp">    -43.66924395 </i>
    <i name="e_0_energy">    -43.68486531 </i>
   </energy>
  </scstep>
  <scstep>
   <time name="total">  237.08  238.16</time>
   <energy>
    <i name="e_fr_energy">    -43.70090103 </i>
    <i name="e_wo_entrp">    -43.66966031 </i>
    <i name="e_0_energy">    -43.68528067 </i>
   </energy>
  </scstep>
  <scstep>
   <time name="total">  236.86  237.94</time>
   <energy>
    <i name="e_fr_energy">    -43.70127860 </i>
    <i name="e_wo_entrp">    -43.67003971 </i>
    <i name="e_0_energy">    -43.68565915 </i>
   </energy>
  </scstep>
  <scstep>
   <time name="total">  236.95  237.96</time>
   <energy>
    <i name="e_fr_energy">    -43.70163892 </i>
    <i name="e_wo_entrp">    -43.67040171 </i>
    <i name="e_0_energy">    -43.68602032 </i>
   </energy>
  </scstep>
  <scstep>
   <time name="total">  237.38  238.54</time>
   <energy>
    <i name="e_fr_energy">    -43.70199318 </i>
    <i name="e_wo_entrp">    -43.67075753 </i>
    <i name="e_0_energy">    -43.68637535 </i>
   </energy>
  </scstep>
  <scstep>
   <time name="total">  237.17  238.17</time>
   <energy>
    <i name="e_fr_energy">    -43.70234331 </i>
    <i name="e_wo_entrp">    -43.67110913 </i>
    <i name="e_0_energy">    -43.68672622 </i>
   </energy>
  </scstep>
  <scstep>
   <time name="total">  237.30  238.49</time>
   <energy>
    <i name="e_fr_energy">    -43.70269398 </i>
    <i name="e_wo_entrp">    -43.67146121 </i>
    <i name="e_0_energy">    -43.68707759 </i>
   </energy>
  </scstep>
  <scstep>
   <time name="total">  237.26  238.45</time>
   <energy>
    <i name="e_fr_energy">    -43.70304112 </i>
    <i name="e_wo_entrp">    -43.67180971 </i>
    <i name="e_0_energy">    -43.68742541 </i>
   </energy>
  </scstep>
  <scstep>
   <time name="total">  237.07  238.15</time>
   <energy>
    <i name="e_fr_energy">    -43.70338210 </i>
    <i name="e_wo_entrp">    -43.67215202 </i>
    <i name="e_0_energy">    -43.68776706 </i>
   </energy>
  </scstep>
  <scstep>
   <time name="total">  236.88  237.88</time>
   <energy>
    <i name="e_fr_energy">    -43.70371237 </i>
    <i name="e_wo_entrp">    -43.67248360 </i>
    <i name="e_0_energy">    -43.68809798 </i>
   </energy>
  </scstep>
  <scstep>
   <time name="total">  237.10  238.15</time>
   <energy>
    <i name="e_fr_energy">    -43.70402021 </i>
    <i name="e_wo_entrp">    -43.67279274 </i>
    <i name="e_0_energy">    -43.68840647 </i>
   </energy>
  </scstep>
  <scstep>
   <time name="total">  237.14  238.24</time>
   <energy>
    <i name="e_fr_energy">    -43.70429922 </i>
    <i name="e_wo_entrp">    -43.67307297 </i>
    <i name="e_0_energy">    -43.68868609 </i>
   </energy>
  </scstep>
  <scstep>
   <time name="total">  237.32  238.54</time>
   <energy>
    <i name="e_fr_energy">    -43.70448658 </i>
    <i name="e_wo_entrp">    -43.67326160 </i>
    <i name="e_0_energy">    -43.68887409 </i>
   </energy>
  </scstep>
  <scstep>
   <time name="total">  237.08  238.11</time>
   <energy>
    <i name="e_fr_energy">    -43.70432752 </i>
    <i name="e_wo_entrp">    -43.67310354 </i>
    <i name="e_0_energy">    -43.68871553 </i>
   </energy>
  </scstep>
  <scstep>
   <time name="total">  237.08  238.21</time>
   <energy>
    <i name="e_fr_energy">    -43.70282500 </i>
    <i name="e_wo_entrp">    -43.67160233 </i>
    <i name="e_0_energy">    -43.68721366 </i>
   </energy>
  </scstep>
  <scstep>
   <time name="total">  237.08  238.15</time>
   <energy>
    <i name="e_fr_energy">    -43.69736290 </i>
    <i name="e_wo_entrp">    -43.66614077 </i>
    <i name="e_0_energy">    -43.68175184 </i>
   </energy>
  </scstep>
  <scstep>
   <time name="total">  237.13  238.40</time>
   <energy>
    <i name="e_fr_energy">    -43.68597301 </i>
    <i name="e_wo_entrp">    -43.65475244 </i>
    <i name="e_0_energy">    -43.67036273 </i>
   </energy>
  </scstep>
  <scstep>
   <time name="total">  236.89  238.09</time>
   <energy>
    <i name="e_fr_energy">    -43.67248053 </i>
    <i name="e_wo_entrp">    -43.64125925 </i>
    <i name="e_0_energy">    -43.65686989 </i>
   </energy>
  </scstep>
  <scstep>
   <time name="total">  236.94  238.08</time>
   <energy>
    <i name="e_fr_energy">    -43.67220845 </i>
    <i name="e_wo_entrp">    -43.64099011 </i>
    <i name="e_0_energy">    -43.65659928 </i>
   </energy>
  </scstep>
  <scstep>
   <time name="total">  237.39  238.61</time>
   <energy>
    <i name="e_fr_energy">    -43.67374278 </i>
    <i name="e_wo_entrp">    -43.64251961 </i>
    <i name="e_0_energy">    -43.65813119 </i>
   </energy>
  </scstep>
  <scstep>
   <time name="total">  236.90  238.14</time>
   <energy>
    <i name="e_fr_energy">    -43.66415045 </i>
    <i name="e_wo_entrp">    -43.63293796 </i>
    <i name="e_0_energy">    -43.64854420 </i>
   </energy>
  </scstep>
  <scstep>
   <time name="total">  237.08  238.57</time>
   <energy>
    <i name="e_fr_energy">    -43.63947592 </i>
    <i name="e_wo_entrp">    -43.60824573 </i>
    <i name="e_0_energy">    -43.62386082 </i>
   </energy>
  </scstep>
  <scstep>
   <time name="total">  236.87  237.94</time>
   <energy>
    <i name="e_fr_energy">    -43.60235392 </i>
    <i name="e_wo_entrp">    -43.57115103 </i>
    <i name="e_0_energy">    -43.58675248 </i>
   </energy>
  </scstep>
  <scstep>
   <time name="total">  237.10  238.33</time>
   <energy>
    <i name="e_fr_energy">    -43.61220566 </i>
    <i name="e_wo_entrp">    -43.58096842 </i>
    <i name="e_0_energy">    -43.59658704 </i>
   </energy>
  </scstep>
  <scstep>
   <time name="total">  236.93  238.14</time>
   <energy>
    <i name="e_fr_energy">    -43.64455193 </i>
    <i name="e_wo_entrp">    -43.61334812 </i>
    <i name="e_0_energy">    -43.62895002 </i>
   </energy>
  </scstep>
  <scstep>
   <time name="total">  237.12  238.43</time>
   <energy>
    <i name="e_fr_energy">    -43.69120830 </i>
    <i name="e_wo_entrp">    -43.65997981 </i>
    <i name="e_0_energy">    -43.67559406 </i>
   </energy>
  </scstep>
  <scstep>
   <time name="total">  237.32  238.55</time>
   <energy>
    <i name="e_fr_energy">    -43.70420377 </i>
    <i name="e_wo_entrp">    -43.67298753 </i>
    <i name="e_0_energy">    -43.68859565 </i>
   </energy>
  </scstep>
  <scstep>
   <time name="total">  237.13  238.14</time>
   <energy>
    <i name="e_fr_energy">    -43.70527030 </i>
    <i name="e_wo_entrp">    -43.67405329 </i>
    <i name="e_0_energy">    -43.68966179 </i>
   </energy>
  </scstep>
  <scstep>
   <time name="total">  237.39  238.59</time>
   <energy>
    <i name="e_fr_energy">    -43.70538535 </i>
    <i name="e_wo_entrp">    -43.67416854 </i>
    <i name="e_0_energy">    -43.68977694 </i>
   </energy>
  </scstep>
  <scstep>
   <time name="total">  237.19  238.23</time>
   <energy>
    <i name="e_fr_energy">    -43.70553909 </i>
    <i name="e_wo_entrp">    -43.67432475 </i>
    <i name="e_0_energy">    -43.68993192 </i>
   </energy>
  </scstep>
  <scstep>
   <time name="total">  237.25  238.66</time>
   <energy>
    <i name="e_fr_energy">    -43.70595200 </i>
    <i name="e_wo_entrp">    -43.67473911 </i>
    <i name="e_0_energy">    -43.69034556 </i>
   </energy>
  </scstep>
  <scstep>
   <time name="total">  237.17  238.30</time>
   <energy>
    <i name="e_fr_energy">    -43.70587049 </i>
    <i name="e_wo_entrp">    -43.67465604 </i>
    <i name="e_0_energy">    -43.69026327 </i>
   </energy>
  </scstep>
  <scstep>
   <time name="total">  237.36  238.56</time>
   <energy>
    <i name="e_fr_energy">    -43.70617429 </i>
    <i name="e_wo_entrp">    -43.67496257 </i>
    <i name="e_0_energy">    -43.69056843 </i>
   </energy>
  </scstep>
  <scstep>
   <time name="total">  237.26  238.26</time>
   <energy>
    <i name="e_fr_energy">    -43.70616762 </i>
    <i name="e_wo_entrp">    -43.67495417 </i>
    <i name="e_0_energy">    -43.69056090 </i>
   </energy>
  </scstep>
  <scstep>
   <time name="total">  237.09  238.23</time>
   <energy>
    <i name="e_fr_energy">    -43.70644066 </i>
    <i name="e_wo_entrp">    -43.67522912 </i>
    <i name="e_0_energy">    -43.69083489 </i>
   </energy>
  </scstep>
  <scstep>
   <time name="total">  237.00  238.40</time>
   <energy>
    <i name="e_fr_energy">    -43.70646637 </i>
    <i name="e_wo_entrp">    -43.67525333 </i>
    <i name="e_0_energy">    -43.69085985 </i>
   </energy>
  </scstep>
  <scstep>
   <time name="total">  237.18  238.38</time>
   <energy>
    <i name="e_fr_energy">    -43.70668331 </i>
    <i name="e_wo_entrp">    -43.67547213 </i>
    <i name="e_0_energy">    -43.69107772 </i>
   </energy>
  </scstep>
  <scstep>
   <time name="total">  236.76  238.11</time>
   <energy>
    <i name="e_fr_energy">    -43.70672629 </i>
    <i name="e_wo_entrp">    -43.67551366 </i>
    <i name="e_0_energy">    -43.69111997 </i>
   </energy>
  </scstep>
  <scstep>
   <time name="total">  236.92  237.99</time>
   <energy>
    <i name="e_fr_energy">    -43.70687755 </i>
    <i name="e_wo_entrp">    -43.67566648 </i>
    <i name="e_0_energy">    -43.69127201 </i>
   </energy>
  </scstep>
  <scstep>
   <time name="total">  236.96  238.19</time>
   <energy>
    <i name="e_fr_energy">    -43.70691915 </i>
    <i name="e_wo_entrp">    -43.67570693 </i>
    <i name="e_0_energy">    -43.69131304 </i>
   </energy>
  </scstep>
  <scstep>
   <time name="total">  237.35  238.67</time>
   <energy>
    <i name="e_fr_energy">    -43.70701332 </i>
    <i name="e_wo_entrp">    -43.67580231 </i>
    <i name="e_0_energy">    -43.69140781 </i>
   </energy>
  </scstep>
  <scstep>
   <time name="total">  237.10  238.36</time>
   <energy>
    <i name="e_fr_energy">    -43.70704653 </i>
    <i name="e_wo_entrp">    -43.67583467 </i>
    <i name="e_0_energy">    -43.69144060 </i>
   </energy>
  </scstep>
  <scstep>
