 vasp.6.5.1 10Mar25 (build May 05 2025 13:45:00) complex                        
  
 executed on             LinuxIFC date 2026.04.28  09:20:11
 running  112 mpi-ranks, on    1 nodes
 distrk:  each k-point on   28 cores,    4 groups
 distr:  one band on NCORE=   1 cores,   28 groups


--------------------------------------------------------------------------------------------------------


 INCAR:
   ALGO = Damped
   PREC = Normal
   LREAL = False
   EDIFF = 1e-07
   ENCUT = 400.0
   LASPH = True
   NELM = 100
   ISIF = 3
   IBRION = 2
   EDIFFG = -0.005
   NSW = 300
   ISMEAR = 0
   SIGMA = 0.1
   LWAVE = True
   LCHARG = False
   LORBIT = 10
   LHFCALC = True
   PRECFOCK = Fast
   AEXX = 0.36
   HFSCREEN = 0.2
   TIME = 0.4
   KPAR = 4

 POTCAR:    PAW_PBE Nd_3 06Sep2000                
 POTCAR:    PAW_PBE Zn 06Sep2000                  
 -----------------------------------------------------------------------------
|                                                                             |
|           W    W    AA    RRRRR   N    N  II  N    N   GGGG   !!!           |
|           W    W   A  A   R    R  NN   N  II  NN   N  G    G  !!!           |
|           W    W  A    A  R    R  N N  N  II  N N  N  G       !!!           |
|           W WW W  AAAAAA  RRRRR   N  N N  II  N  N N  G  GGG   !            |
|           WW  WW  A    A  R   R   N   NN  II  N   NN  G    G                |
|           W    W  A    A  R    R  N    N  II  N    N   GGGG   !!!           |
|                                                                             |
|     For optimal performance we recommend to set                             |
|       NCORE = 2 up to number-of-cores-per-socket                            |
|     NCORE specifies how many cores store one orbital (NPAR=cpu/NCORE).      |
|     This setting can greatly improve the performance of VASP for DFT.       |
|     The default, NCORE=1 might be grossly inefficient on modern             |
|     multi-core architectures or massively parallel machines. Do your        |
|     own testing! More info at https://www.vasp.at/wiki/index.php/NCORE      |
|     Unfortunately you need to use the default for GW and RPA                |
|     calculations (for HF NCORE is supported but not extensively tested      |
|     yet).                                                                   |
|                                                                             |
 -----------------------------------------------------------------------------

 POTCAR:    PAW_PBE Nd_3 06Sep2000                
   SHA256 =  90782177844a5d17e05a83442c3981b109958f4399d5595472847236a982ac31 Nd_3/POTCAR           
   COPYR  = (c) Copyright 06Sep2000 Georg Kresse                                                    
   COPYR  = This file is part of the software VASP. Any use, copying, and all other rights are regul
   COPYR  = If you do not have a valid VASP license, you may not use, copy or distribute this file. 
   VRHFIN =Nd : [core=Xe4]                                                                          
   LEXCH  = PE                                                                                      
   EATOM  =   934.1494 eV,   68.6580 Ry                                                             
                                                                                                    
   TITEL  = PAW_PBE Nd_3 06Sep2000                                                                  
   LULTRA =        F    use ultrasoft PP ?                                                          
   IUNSCR =        1    unscreen: 0-lin 1-nonlin 2-no                                               
   RPACOR =    2.400    partial core radius                                                         
   POMASS =  144.240; ZVAL   =   11.000    mass and valenz                                          
   RCORE  =    2.800    outmost cutoff radius                                                       
   RWIGS  =    3.000; RWIGS  =    1.588    wigner-seitz radius (au A)                               
   ENMAX  =  182.619; ENMIN  =  136.964 eV                                                          
   RCLOC  =    2.418    cutoff for local pot                                                        
   LCOR   =        T    correct aug charges                                                         
   LPAW   =        T    paw PP                                                                      
   EAUG   =  299.021                                                                                
   DEXC   =    0.000                                                                                
   RMAX   =    2.866    core radius for proj-oper                                                   
   RAUG   =    1.300    factor for augmentation sphere                                              
   RDEP   =    2.838    radius for radial grids                                                     
   RDEPT  =    2.433    core radius for aug-charge                                                  
                                                                                                    
   Atomic configuration                                                                             
   14 entries                                                                                       
     n  l   j            E        occ.                                                              
     1  0  0.50    -43395.8286   2.0000                                                             
     2  0  0.50     -7023.8781   2.0000                                                             
     2  1  1.50     -6278.5294   6.0000                                                             
     3  0  0.50     -1529.8925   2.0000                                                             
     3  1  1.50     -1294.9660   6.0000                                                             
     3  2  2.50      -969.3626  10.0000                                                             
     4  0  0.50      -309.7145   2.0000                                                             
     4  1  1.50      -232.6371   6.0000                                                             
     4  2  2.50      -123.0912  10.0000                                                             
     4  3  2.50        -6.9199   3.0000                                                             
     5  0  0.50       -43.6910   2.0000                                                             
     6  0  0.50        -3.8688   2.0000                                                             
     5  1  1.50       -24.6661   6.0000                                                             
     5  2  2.50        -2.9249   1.0000                                                             
   Description                                                                                      
     l       E           TYP  RCUT    TYP  RCUT                                                     
     0    -43.6910211     23  2.800                                                                 
     0     -3.8687565     23  2.800                                                                 
     1    -24.6660554     23  2.800                                                                 
     1     13.6058260     23  2.800                                                                 
     2     -2.9249058     23  2.800                                                                 
     2      0.2001824     23  2.800                                                                 
  local pseudopotential read in
  partial core-charges read in
  partial kinetic energy density read in
  atomic valenz-charges read in
  non local Contribution for L=           0  read in
    real space projection operators read in
  non local Contribution for L=           0  read in
    real space projection operators read in
  non local Contribution for L=           1  read in
    real space projection operators read in
  non local Contribution for L=           1  read in
    real space projection operators read in
  non local Contribution for L=           2  read in
    real space projection operators read in
  non local Contribution for L=           2  read in
    real space projection operators read in
    PAW grid and wavefunctions read in
 
   number of l-projection  operators is LMAX  =           6
   number of lm-projection operators is LMMAX =          18
 
 POTCAR:    PAW_PBE Zn 06Sep2000                  
   SHA256 =  501fddbd8274dd8e9725d4f3de27861d7f1e553a7e18441bc79fed8f346e7f23 Zn/POTCAR             
   COPYR  = (c) Copyright 06Sep2000 Georg Kresse                                                    
   COPYR  = This file is part of the software VASP. Any use, copying, and all other rights are regul
   COPYR  = If you do not have a valid VASP license, you may not use, copy or distribute this file. 
   VRHFIN =Zn: d10 p2                                                                               
   LEXCH  = PE                                                                                      
   EATOM  =  1748.8345 eV,  128.5357 Ry                                                             
                                                                                                    
   TITEL  = PAW_PBE Zn 06Sep2000                                                                    
   LULTRA =        F    use ultrasoft PP ?                                                          
   IUNSCR =        1    unscreen: 0-lin 1-nonlin 2-no                                               
   RPACOR =    2.000    partial core radius                                                         
   POMASS =   65.390; ZVAL   =   12.000    mass and valenz                                          
   RCORE  =    2.300    outmost cutoff radius                                                       
   RWIGS  =    2.400; RWIGS  =    1.270    wigner-seitz radius (au A)                               
   ENMAX  =  276.723; ENMIN  =  207.542 eV                                                          
   RCLOC  =    1.828    cutoff for local pot                                                        
   LCOR   =        T    correct aug charges                                                         
   LPAW   =        T    paw PP                                                                      
   EAUG   =  575.892                                                                                
   DEXC   =    0.000                                                                                
   RMAX   =    2.347    core radius for proj-oper                                                   
   RAUG   =    1.300    factor for augmentation sphere                                              
   RDEP   =    2.324    radius for radial grids                                                     
   RDEPT  =    1.788    core radius for aug-charge                                                  
                                                                                                    
   Atomic configuration                                                                             
    9 entries                                                                                       
     n  l   j            E        occ.                                                              
     1  0  0.50     -9524.6913   2.0000                                                             
     2  0  0.50     -1158.1882   2.0000                                                             
     2  1  1.50     -1003.8506   6.0000                                                             
     3  0  0.50      -129.2194   2.0000                                                             
     3  1  1.50       -83.3890   6.0000                                                             
     3  2  2.50       -10.1410  10.0000                                                             
     4  0  0.50        -5.9785   2.0000                                                             
     4  1  0.50        -4.0817   0.0000                                                             
     4  3  2.50        -1.3606   0.0000                                                             
   Description                                                                                      
     l       E           TYP  RCUT    TYP  RCUT                                                     
     2    -10.1410010     23  2.300                                                                 
     2    -11.5015836     23  2.300                                                                 
     0     -5.9785163     23  2.300                                                                 
     0      1.1858015     23  2.300                                                                 
     1     -2.7211652     23  2.300                                                                 
     1     13.2444212     23  2.300                                                                 
  local pseudopotential read in
  partial core-charges read in
  partial kinetic energy density read in
  atomic valenz-charges read in
  non local Contribution for L=           2  read in
    real space projection operators read in
  non local Contribution for L=           2  read in
    real space projection operators read in
  non local Contribution for L=           0  read in
    real space projection operators read in
  non local Contribution for L=           0  read in
    real space projection operators read in
  non local Contribution for L=           1  read in
    real space projection operators read in
  non local Contribution for L=           1  read in
    real space projection operators read in
    PAW grid and wavefunctions read in
 
   number of l-projection  operators is LMAX  =           6
   number of lm-projection operators is LMMAX =          18
 
 -----------------------------------------------------------------------------
|                                                                             |
|               ----> ADVICE to this user running VASP <----                  |
|                                                                             |
|     You have a (more or less) 'large supercell' and for larger cells it     |
|     might be more efficient to use real-space projection operators.         |
|     Therefore, try LREAL= Auto in the INCAR file.                           |
|     Mind: For very accurate calculation, you might also keep the            |
|     reciprocal projection scheme (i.e. LREAL=.FALSE.).                      |
|                                                                             |
 -----------------------------------------------------------------------------

  PAW_PBE Nd_3 06Sep2000                :
 energy of atom  1       EATOM= -934.1494
 kinetic energy error for atom=    0.0015 (will be added to EATOM!!)
  PAW_PBE Zn 06Sep2000                  :
 energy of atom  2       EATOM=-1748.8345
 kinetic energy error for atom=    0.0107 (will be added to EATOM!!)
 
 
 POSCAR: Nd6 Zn44
  positions in direct lattice
  No initial velocities read in


 exchange-correlation table for PE
   RHO(1)=    0.500       N(1)  =     2000
   RHO(2)=  100.500       N(2)  =     4000
 


--------------------------------------------------------------------------------------------------------


 ion  position               nearest neighbor table
   1  0.496  0.746  0.493-  39 3.07  42 3.07  34 3.16  31 3.16  29 3.19  28 3.19  17 3.25  18 3.26
                            23 3.26  22 3.26  26 3.26  21 3.26  10 3.39   9 3.40  14 3.40  13 3.40
   2  0.746  0.496  0.993-  40 3.07  41 3.07  33 3.16  32 3.16  30 3.19  27 3.19  15 3.25  19 3.26
                            24 3.26  20 3.26  25 3.26  16 3.26  11 3.39   7 3.40  12 3.40   8 3.40
   3  0.504  0.254  0.507-  43 3.07  46 3.07  38 3.16  35 3.16  25 3.19  24 3.19   9 3.25  10 3.26
                            27 3.26  14 3.26  30 3.26  13 3.26  18 3.39  17 3.40  22 3.40  21 3.40
   4  0.254  0.504  0.007-  44 3.07  45 3.07  37 3.16  36 3.16  26 3.19  23 3.19   7 3.25  11 3.26
                            28 3.26  12 3.26  29 3.26   8 3.26  19 3.39  15 3.40  20 3.40  16 3.40
   5  0.125  0.875  0.750-  31 3.11  36 3.11  34 3.11  37 3.11  42 3.21  45 3.21  44 3.21  39 3.21
                            12 3.32  22 3.32  21 3.32   8 3.32  11 3.33  18 3.33  17 3.33   7 3.33
   6  0.875  0.125  0.250-  32 3.11  35 3.11  38 3.11  33 3.11  41 3.21  46 3.21  43 3.21  40 3.21
                            20 3.32  14 3.32  13 3.32  16 3.32  19 3.33  10 3.33  15 3.33   9 3.33
   7  0.421  0.196  0.878-  30 2.53  16 2.60  47 2.60  37 2.69  22 2.70  41 2.72  24 2.73  44 2.74
                            31 2.75   4 3.25   5 3.33   2 3.40
   8  0.421  0.682  0.877-  30 2.53  15 2.60  47 2.60  36 2.68  21 2.69  40 2.72  25 2.73  45 2.74
                            31 2.75   4 3.26   5 3.32   2 3.40
   9  0.196  0.421  0.378-  29 2.53  21 2.60  48 2.60  38 2.69  20 2.70  42 2.72  23 2.73  43 2.74
                            32 2.75   3 3.25   6 3.33   1 3.40
  10  0.196  0.956  0.377-  28 2.53  22 2.60  49 2.61  38 2.68  19 2.70  42 2.72  23 2.73  43 2.75
                            33 2.75   3 3.26   6 3.33   1 3.39
  11  0.956  0.196  0.877-  27 2.53  20 2.60  50 2.61  37 2.68  18 2.70  41 2.72  24 2.73  44 2.75
                            34 2.75   4 3.26   5 3.33   2 3.39
  12  0.956  0.683  0.877-  27 2.53  19 2.60  50 2.60  36 2.68  17 2.70  40 2.72  25 2.74  45 2.74
                            34 2.75   4 3.26   5 3.32   2 3.40
  13  0.682  0.421  0.377-  29 2.53  17 2.60  48 2.60  35 2.68  16 2.69  39 2.72  26 2.73  46 2.74
                            32 2.75   3 3.26   6 3.32   1 3.40
  14  0.683  0.956  0.377-  28 2.53  18 2.60  49 2.60  35 2.68  15 2.70  39 2.72  26 2.74  46 2.74
                            33 2.75   3 3.26   6 3.32   1 3.40
  15  0.579  0.804  0.122-  26 2.53   8 2.60  47 2.60  33 2.69  14 2.70  45 2.72  28 2.73  40 2.74
                            35 2.75   2 3.25   6 3.33   4 3.40
  16  0.579  0.318  0.123-  26 2.53   7 2.60  47 2.60  32 2.68  13 2.69  44 2.72  29 2.73  41 2.74
                            35 2.75   2 3.26   6 3.32   4 3.40
  17  0.804  0.579  0.622-  25 2.53  13 2.60  48 2.60  34 2.69  12 2.70  46 2.72  27 2.73  39 2.74
                            36 2.75   1 3.25   5 3.33   3 3.40
  18  0.804  0.044  0.623-  24 2.53  14 2.60  49 2.61  34 2.68  11 2.70  46 2.72  27 2.73  39 2.75
                            37 2.75   1 3.26   5 3.33   3 3.39
  19  0.044  0.804  0.123-  23 2.53  12 2.60  50 2.61  33 2.68  10 2.70  45 2.72  28 2.73  40 2.75
                            38 2.75   2 3.26   6 3.33   4 3.39
  20  0.044  0.317  0.123-  23 2.53  11 2.60  50 2.60  32 2.68   9 2.70  44 2.72  29 2.74  41 2.74
                            38 2.75   2 3.26   6 3.32   4 3.40
  21  0.318  0.579  0.623-  25 2.53   9 2.60  48 2.60  31 2.68   8 2.69  43 2.72  30 2.73  42 2.74
                            36 2.75   1 3.26   5 3.32   3 3.40
  22  0.317  0.044  0.623-  24 2.53  10 2.60  49 2.60  31 2.68   7 2.70  43 2.72  30 2.74  42 2.74
                            37 2.75   1 3.26   5 3.32   3 3.40
  23  0.148  0.622  0.246-  19 2.53  20 2.53  42 2.62   9 2.73  10 2.73  33 2.74  32 2.75  29 2.79
                            28 2.80   4 3.19   1 3.26
  24  0.622  0.148  0.746-  18 2.53  22 2.53  41 2.62   7 2.73  11 2.73  34 2.74  31 2.75  30 2.79
                            27 2.80   3 3.19   2 3.26
  25  0.623  0.598  0.746-  21 2.53  17 2.53  40 2.62   8 2.73  12 2.74  31 2.75  34 2.75  27 2.79
                            30 2.79   3 3.19   2 3.26
  26  0.598  0.623  0.246-  16 2.53  15 2.53  39 2.62  13 2.73  14 2.74  32 2.75  33 2.75  28 2.79
                            29 2.79   4 3.19   1 3.26
  27  0.852  0.378  0.754-  11 2.53  12 2.53  46 2.62  17 2.73  18 2.73  37 2.74  36 2.75  25 2.79
                            24 2.80   2 3.19   3 3.26
  28  0.378  0.852  0.254-  10 2.53  14 2.53  45 2.62  15 2.73  19 2.73  38 2.74  35 2.75  26 2.79
                            23 2.80   1 3.19   4 3.26
  29  0.377  0.402  0.254-  13 2.53   9 2.53  44 2.62  16 2.73  20 2.74  35 2.75  38 2.75  23 2.79
                            26 2.79   1 3.19   4 3.26
  30  0.402  0.377  0.754-   8 2.53   7 2.53  43 2.62  21 2.73  22 2.74  36 2.75  37 2.75  24 2.79
                            25 2.79   2 3.19   3 3.26
  31  0.486  0.884  0.767-  34 2.57  47 2.61  22 2.68  21 2.68   8 2.75  24 2.75  25 2.75   7 2.75
                            40 2.85  41 2.85   5 3.11   1 3.16
  32  0.884  0.486  0.267-  33 2.57  48 2.61  20 2.68  16 2.68  13 2.75  23 2.75  26 2.75   9 2.75
                            39 2.85  42 2.85   6 3.11   2 3.16
  33  0.884  0.779  0.267-  32 2.57  49 2.62  19 2.68  15 2.69  23 2.74  14 2.75  26 2.75  10 2.75
                            42 2.84  39 2.84   6 3.11   2 3.16
  34  0.779  0.884  0.767-  31 2.57  50 2.62  18 2.68  17 2.69  24 2.74  12 2.75  25 2.75  11 2.75
                            41 2.84  40 2.84   5 3.11   1 3.16
  35  0.514  0.116  0.233-  38 2.57  47 2.61  14 2.68  13 2.68  16 2.75  28 2.75  29 2.75  15 2.75
                            44 2.85  45 2.85   6 3.11   3 3.16
  36  0.116  0.514  0.733-  37 2.57  48 2.61  12 2.68   8 2.68  21 2.75  27 2.75  30 2.75  17 2.75
                            43 2.85  46 2.85   5 3.11   4 3.16
  37  0.116  0.221  0.733-  36 2.57  49 2.62  11 2.68   7 2.69  27 2.74  22 2.75  30 2.75  18 2.75
                            46 2.84  43 2.84   5 3.11   4 3.16
  38  0.221  0.116  0.233-  35 2.57  50 2.62  10 2.68   9 2.69  28 2.74  20 2.75  29 2.75  19 2.75
                            45 2.84  44 2.84   6 3.11   3 3.16
  39  0.835  0.736  0.472-  48 2.58  49 2.59  26 2.62  42 2.65  14 2.72  13 2.72  17 2.74  18 2.75
                            33 2.84  32 2.85   1 3.07   5 3.21
  40  0.736  0.835  0.972-  47 2.58  50 2.59  25 2.62  41 2.65  12 2.72   8 2.72  15 2.74  19 2.75
                            34 2.84  31 2.85   2 3.07   6 3.21
  41  0.736  0.137  0.973-  50 2.58  47 2.58  24 2.62  40 2.65  11 2.72   7 2.72  16 2.74  20 2.74
                            34 2.84  31 2.85   2 3.07   6 3.21
  42  0.137  0.736  0.473-  49 2.58  48 2.58  23 2.62  39 2.65  10 2.72   9 2.72  21 2.74  22 2.74
                            33 2.84  32 2.85   1 3.07   5 3.21
  43  0.165  0.264  0.528-  48 2.58  49 2.59  30 2.62  46 2.65  22 2.72  21 2.72   9 2.74  10 2.75
                            37 2.84  36 2.85   3 3.07   6 3.21
  44  0.264  0.165  0.028-  47 2.58  50 2.59  29 2.62  45 2.65  20 2.72  16 2.72   7 2.74  11 2.75
                            38 2.84  35 2.85   4 3.07   5 3.21
  45  0.264  0.863  0.027-  50 2.58  47 2.58  28 2.62  44 2.65  19 2.72  15 2.72   8 2.74  12 2.74
                            38 2.84  35 2.85   4 3.07   5 3.21
  46  0.863  0.264  0.527-  49 2.58  48 2.58  27 2.62  43 2.65  18 2.72  17 2.72  13 2.74  14 2.74
                            37 2.84  36 2.85   3 3.07   6 3.21
  47  0.500  0.000  0.000-  40 2.58  44 2.58  41 2.58  45 2.58   8 2.60  16 2.60  15 2.60   7 2.60
                            31 2.61  35 2.61
  48  0.000  0.500  0.500-  39 2.58  43 2.58  42 2.58  46 2.58  13 2.60  21 2.60  17 2.60   9 2.60
                            32 2.61  36 2.61
  49  0.000  0.000  0.500-  42 2.58  46 2.58  43 2.59  39 2.59  14 2.60  22 2.60  18 2.61  10 2.61
                            33 2.62  37 2.62   5 3.42   6 3.42
  50  0.000  0.000  0.000-  41 2.58  45 2.58  44 2.59  40 2.59  12 2.60  20 2.60  19 2.61  11 2.61
                            34 2.62  38 2.62   5 3.42   6 3.42
 
  LATTYP: Found a base centered monoclinic cell.
 ALAT       =    12.4294688332
 B/A-ratio  =     0.9993169858
 C/A-ratio  =     0.9828740570
 COS(beta)  =    -0.5081276408
  
  Lattice vectors:
  
 A1 = (   6.2147344166,  -6.2104896645,   0.0000000000)
 A2 = (   6.2147344166,   6.2104896645,   0.0000000000)
 A3 = (  -6.2075933861,   0.0000000000,  10.5219370825)


Analysis of symmetry for initial positions (statically):
=====================================================================
 Subroutine PRICEL returns:
 Original cell was already a primitive cell.
 

 Routine SETGRP: Setting up the symmetry group for a 
 base centered monoclinic supercell.


 Subroutine GETGRP returns: Found  4 space group operations
 (whereof  2 operations were pure point group operations)
 out of a pool of  4 trial point group operations.


The static configuration has the point symmetry S_2 .
 The point group associated with its full space group is C_2h.


Analysis of symmetry for dynamics (positions and initial velocities):
=====================================================================
 Subroutine PRICEL returns:
 Original cell was already a primitive cell.
 

 Routine SETGRP: Setting up the symmetry group for a 
 base centered monoclinic supercell.


 Subroutine GETGRP returns: Found  4 space group operations
 (whereof  2 operations were pure point group operations)
 out of a pool of  4 trial point group operations.


The dynamic configuration has the point symmetry S_2 .
 The point group associated with its full space group is C_2h.


 Subroutine INISYM returns: Found  4 space group operations
 (whereof  2 operations are pure point group operations),
 and found     1 'primitive' translations


----------------------------------------------------------------------------------------

                                     Primitive cell                                     

  volume of cell :     812.2208

  direct lattice vectors                    reciprocal lattice vectors
     6.214734417 -6.210489664  0.000000000     0.080453961 -0.080508950  0.047465165
     6.214734417  6.210489664  0.000000000     0.080453961  0.080508950  0.047465165
    -6.207593386  0.000000000 10.521937082     0.000000000  0.000000000  0.095039534

  length of vectors
     8.785960718  8.785960718 12.216602458     0.123318582  0.123318582  0.095039534

  position of ions in fractional coordinates (direct lattice)
     0.496332640  0.746416750  0.492563385
     0.746416750  0.496332640  0.992563385
     0.503667360  0.253583250  0.507436615
     0.253583250  0.503667360  0.007436615
     0.124583570  0.875416430  0.750000000
     0.875416430  0.124583570  0.250000000
     0.421273110  0.196014290  0.877629965
     0.420888900  0.682187130  0.877133745
     0.196014290  0.421273110  0.377629965
     0.196161710  0.955879290  0.377468445
     0.955879290  0.196161710  0.877468445
     0.956178080  0.682553120  0.877302275
     0.682187130  0.420888900  0.377133745
     0.682553120  0.956178080  0.377302275
     0.578726890  0.803985710  0.122370035
     0.579111100  0.317812870  0.122866255
     0.803985710  0.578726890  0.622370035
     0.803838290  0.044120710  0.622531555
     0.044120710  0.803838290  0.122531555
     0.043821920  0.317446880  0.122697725
     0.317812870  0.579111100  0.622866255
     0.317446880  0.043821920  0.622697725
     0.148336510  0.622430140  0.246268925
     0.622430140  0.148336510  0.746268925
     0.622643750  0.597703420  0.745878645
     0.597703420  0.622643750  0.245878645
     0.851663490  0.377569860  0.753731075
     0.377569860  0.851663490  0.253731075
     0.377356250  0.402296580  0.254121355
     0.402296580  0.377356250  0.754121355
     0.486262560  0.883609020  0.766894175
     0.883609020  0.486262560  0.266894175
     0.884101560  0.779318320  0.267068385
     0.779318320  0.884101560  0.767068385
     0.513737440  0.116390980  0.233105825
     0.116390980  0.513737440  0.733105825
     0.115898440  0.220681680  0.732931615
     0.220681680  0.115898440  0.232931615
     0.835079990  0.736085820  0.472467405
     0.736085820  0.835079990  0.972467405
     0.736238890  0.137261690  0.972596105
     0.137261690  0.736238890  0.472596105
     0.164920010  0.263914180  0.527532595
     0.263914180  0.164920010  0.027532595
     0.263761110  0.862738310  0.027403895
     0.862738310  0.263761110  0.527403895
     0.500000000  1.000000000  0.000000000
     0.000000000  0.500000000  0.500000000
     0.000000000  0.000000000  0.500000000
     0.000000000  0.000000000  0.000000000

  ion indices of the primitive-cell ions
   primitive index   ion index
                 1           1
                 2           2
                 3           3
                 4           4
                 5           5
                 6           6
                 7           7
                 8           8
                 9           9
                10          10
                11          11
                12          12
                13          13
                14          14
                15          15
                16          16
                17          17
                18          18
                19          19
                20          20
                21          21
                22          22
                23          23
                24          24
                25          25
                26          26
                27          27
                28          28
                29          29
                30          30
                31          31
                32          32
                33          33
                34          34
                35          35
                36          36
                37          37
                38          38
                39          39
                40          40
                41          41
                42          42
                43          43
                44          44
                45          45
                46          46
                47          47
                48          48
                49          49
                50          50

----------------------------------------------------------------------------------------

 
 
 KPOINTS: Num irrep kpoints: 16                   

Automatic generation of k-mesh.
 Grid dimensions read from file:
 generate k-points for:    4    4    3

 Generating k-lattice:

  Cartesian coordinates                     Fractional coordinates (reciprocal lattice)
     0.020113490 -0.020127237  0.011866291     0.250000000 -0.000000000  0.000000000
     0.020113490  0.020127237  0.011866291    -0.000000000  0.250000000  0.000000000
     0.000000000  0.000000000  0.031679845     0.000000000  0.000000000  0.333333333

  Length of vectors
     0.030829645  0.030829645  0.031679845

  Shift w.r.t. Gamma in fractional coordinates (k-lattice)
     0.500000000  0.500000000  0.000000000

 
 Subroutine IBZKPT returns following result:
 ===========================================
 
 Found     16 irreducible k-points:
 
 Following reciprocal coordinates:
            Coordinates               Weight
  0.125000  0.125000  0.000000      2.000000
  0.375000  0.125000 -0.000000      4.000000
 -0.375000  0.125000 -0.000000      4.000000
 -0.125000  0.125000 -0.000000      2.000000
  0.375000  0.375000 -0.000000      2.000000
 -0.375000  0.375000 -0.000000      2.000000
  0.125000  0.125000  0.333333      2.000000
  0.375000  0.125000  0.333333      4.000000
 -0.375000  0.125000  0.333333      4.000000
 -0.125000  0.125000  0.333333      4.000000
  0.375000  0.375000  0.333333      2.000000
 -0.375000  0.375000  0.333333      4.000000
 -0.125000  0.375000  0.333333      4.000000
 -0.375000 -0.375000  0.333333      2.000000
 -0.125000 -0.375000  0.333333      4.000000
 -0.125000 -0.125000  0.333333      2.000000
 
 Following cartesian coordinates:
            Coordinates               Weight
  0.020113  0.000000  0.011866      2.000000
  0.040227 -0.020127  0.023733      4.000000
 -0.020113  0.040254 -0.011866      4.000000
  0.000000  0.020127 -0.000000      2.000000
  0.060340  0.000000  0.035599      2.000000
  0.000000  0.060382 -0.000000      2.000000
  0.020113  0.000000  0.043546      2.000000
  0.040227 -0.020127  0.055412      4.000000
 -0.020113  0.040254  0.019814      4.000000
  0.000000  0.020127  0.031680      4.000000
  0.060340  0.000000  0.067279      2.000000
  0.000000  0.060382  0.031680      4.000000
  0.020113  0.040254  0.043546      4.000000
 -0.060340  0.000000 -0.003919      2.000000
 -0.040227 -0.020127  0.007947      4.000000
 -0.020113  0.000000  0.019814      2.000000
 
 
 Subroutine IBZKPT_HF returns following result:
 ==============================================
 
 Found     48 k-points in 1st BZ
 the following     48 k-points will be used (e.g. in the exchange kernel)
 Following reciprocal coordinates:   # in IRBZ
  0.125000  0.125000  0.000000    0.02083333   1 t-inv F
  0.375000  0.125000 -0.000000    0.02083333   2 t-inv F
 -0.375000  0.125000 -0.000000    0.02083333   3 t-inv F
 -0.125000  0.125000 -0.000000    0.02083333   4 t-inv F
  0.375000  0.375000 -0.000000    0.02083333   5 t-inv F
 -0.375000  0.375000 -0.000000    0.02083333   6 t-inv F
  0.125000  0.125000  0.333333    0.02083333   7 t-inv F
  0.375000  0.125000  0.333333    0.02083333   8 t-inv F
 -0.375000  0.125000  0.333333    0.02083333   9 t-inv F
 -0.125000  0.125000  0.333333    0.02083333  10 t-inv F
  0.375000  0.375000  0.333333    0.02083333  11 t-inv F
 -0.375000  0.375000  0.333333    0.02083333  12 t-inv F
 -0.125000  0.375000  0.333333    0.02083333  13 t-inv F
 -0.375000 -0.375000  0.333333    0.02083333  14 t-inv F
 -0.125000 -0.375000  0.333333    0.02083333  15 t-inv F
 -0.125000 -0.125000  0.333333    0.02083333  16 t-inv F
 -0.125000 -0.125000 -0.000000    0.02083333   1 t-inv F
 -0.375000 -0.125000  0.000000    0.02083333   2 t-inv F
 -0.125000 -0.375000  0.000000    0.02083333   2 t-inv F
  0.125000  0.375000 -0.000000    0.02083333   2 t-inv F
  0.375000 -0.125000  0.000000    0.02083333   3 t-inv F
 -0.125000  0.375000  0.000000    0.02083333   3 t-inv F
  0.125000 -0.375000 -0.000000    0.02083333   3 t-inv F
  0.125000 -0.125000  0.000000    0.02083333   4 t-inv F
 -0.375000 -0.375000  0.000000    0.02083333   5 t-inv F
  0.375000 -0.375000  0.000000    0.02083333   6 t-inv F
 -0.125000 -0.125000 -0.333333    0.02083333   7 t-inv F
 -0.375000 -0.125000 -0.333333    0.02083333   8 t-inv F
 -0.125000 -0.375000 -0.333333    0.02083333   8 t-inv F
  0.125000  0.375000  0.333333    0.02083333   8 t-inv F
  0.375000 -0.125000 -0.333333    0.02083333   9 t-inv F
 -0.125000  0.375000 -0.333333    0.02083333   9 t-inv F
  0.125000 -0.375000  0.333333    0.02083333   9 t-inv F
  0.125000 -0.125000 -0.333333    0.02083333  10 t-inv F
 -0.125000  0.125000 -0.333333    0.02083333  10 t-inv F
  0.125000 -0.125000  0.333333    0.02083333  10 t-inv F
 -0.375000 -0.375000 -0.333333    0.02083333  11 t-inv F
  0.375000 -0.375000 -0.333333    0.02083333  12 t-inv F
 -0.375000  0.375000 -0.333333    0.02083333  12 t-inv F
  0.375000 -0.375000  0.333333    0.02083333  12 t-inv F
  0.125000 -0.375000 -0.333333    0.02083333  13 t-inv F
 -0.375000  0.125000 -0.333333    0.02083333  13 t-inv F
  0.375000 -0.125000  0.333333    0.02083333  13 t-inv F
  0.375000  0.375000 -0.333333    0.02083333  14 t-inv F
  0.125000  0.375000 -0.333333    0.02083333  15 t-inv F
  0.375000  0.125000 -0.333333    0.02083333  15 t-inv F
 -0.375000 -0.125000  0.333333    0.02083333  15 t-inv F
  0.125000  0.125000 -0.333333    0.02083333  16 t-inv F


--------------------------------------------------------------------------------------------------------




 Dimension of arrays:
   k-points           NKPTS =     16   k-points in BZ     NKDIM =     48   number of bands    NBANDS=    364
   number of dos      NEDOS =    301   number of ions     NIONS =     50
   non local maximal  LDIM  =      6   non local SUM 2l+1 LMDIM =     18
   total plane-waves  NPLWV = 138240
   max r-space proj   IRMAX =      1   max aug-charges    IRDMAX=  13757
   dimension x,y,z NGX =    48 NGY =   48 NGZ =   60
   dimension x,y,z NGXF=    96 NGYF=   96 NGZF=  120
   support grid    NGXF=    96 NGYF=   96 NGZF=  120
   ions per type =               6  44
   NGX,Y,Z   is equivalent  to a cutoff of   9.08,  9.08,  8.16 a.u.
   NGXF,Y,Z  is equivalent  to a cutoff of  18.16, 18.16, 16.33 a.u.

 SYSTEM =  unknown system                          
 POSCAR =  Nd6 Zn44                                

 Startparameter for this run:
   NWRITE =      2    write-flag & timer
   PREC   = normal    normal or accurate (medium, high low for compatibility)
   ISTART =      0    job   : 0-new  1-cont  2-samecut
   ICHARG =      2    charge: 1-file 2-atom 10-const
   ISPIN  =      1    spin polarized calculation?
   LNONCOLLINEAR =      F non collinear calculations
   LSORBIT =      F    spin-orbit coupling
   INIWAV =      1    electr: 0-lowe 1-rand  2-diag
   LASPH  =      T    aspherical Exc in radial PAW
 Electronic Relaxation 1
   ENCUT  =  400.0 eV  29.40 Ry    5.42 a.u.  14.33 14.33 19.92*2*pi/ulx,y,z
   ENINI  =  400.0     initial cutoff
   ENAUG  =  575.9 eV  augmentation charge cutoff
   NELM   =    100;   NELMIN=  2; NELMDL= -5     # of ELM steps 
   EDIFF  = 0.1E-06   stopping-criterion for ELM
   LREAL  =      F    real-space projection
   NLSPLINE    = F    spline interpolate recip. space projectors
   LCOMPAT=      F    compatible to vasp.4.4
   GGA_COMPAT  = T    GGA compatible to vasp.4.4-vasp.4.6
   LMAXPAW     = -100 max onsite density
   LMAXMIX     =    2 max onsite mixed and CHGCAR
   VOSKOWN=      0    Vosko Wilk Nusair interpolation
   ROPT   =    0.00000   0.00000
 Ionic relaxation
   EDIFFG = -.5E-02   stopping-criterion for IOM
   NSW    =    300    number of steps for IOM
   NBLOCK =      1;   KBLOCK =    300    inner block; outer block 
   IBRION =      2    ionic relax: 0-MD 1-quasi-New 2-CG
   NFREE  =      1    steps in history (QN), initial steepest desc. (CG)
   ISIF   =      3    stress and relaxation
   IWAVPR =     11    prediction:  0-non 1-charg 2-wave 3-comb
   ISYM   =      3    0-nonsym 1-usesym 2-fastsym
   LCORR  =      T    Harris-Foulkes like correction to forces

   POTIM  = 0.5000    time-step for ionic-motion
   TEIN   =    0.0    initial temperature
   TEBEG  =    0.0;   TEEND  =   0.0 temperature during run
   SMASS  =  -3.00    Nose mass-parameter (am)
   estimated Nose-frequenzy (Omega)   =  0.10E-29 period in steps = 0.13E+47 mass=  -0.176E-26a.u.
   SCALEE = 1.0000    scale energy and forces
   NPACO  =    256;   APACO  = 10.0  distance and # of slots for P.C.
   PSTRESS=    0.0 pullay stress

  Mass of Ions in am
   POMASS = 144.24 65.39
  Ionic Valenz
   ZVAL   =  11.00 12.00
  Atomic Wigner-Seitz radii
   RWIGS  =  -1.00 -1.00
  virtual crystal weights 
   VCA    =   1.00  1.00
   NELECT =     594.0000    total number of electrons
   NUPDOWN=      -1.0000    fix difference up-down

 DOS related values:
   EMIN   =  10.00;   EMAX   =-10.00  energy-range for DOS
   EFERMI =   0.00;   METHOD = LEGACY      
   ISMEAR =     0;   SIGMA  =   0.10  broadening in eV -4-tet -1-fermi 0-gaus
   EFERMI_NEDOS =   21; number of points for ismear=-14 and -15

 Electronic relaxation 2 (details)
   IALGO  =     53    algorithm
   LDIAG  =      T    sub-space diagonalisation (order eigenvalues)
   LSUBROT=      F    optimize rotation matrix (better conditioning)
   LROBUST=      F    robust break criterion during scf (extrapolated energy error)
   ISEARCH=      0    line search for conjugate gradient (0, 1=use gradient)
   TURBO    =      0    0=normal 1=particle mesh
   IRESTART =      0    0=no restart 2=restart with 2 vectors
   NREBOOT  =      0    no. of reboots
   NMIN     =      0    reboot dimension
   EREF     =   0.00    reference energy to select bands
   IMIX   =      4    mixing-type and parameters
     AMIX     =   0.40;   BMIX     =  1.00
     AMIX_MAG =   1.60;   BMIX_MAG =  1.00
     AMIN     =   0.10
     WC   =   100.;   INIMIX=   1;  MIXPRE=   1;  MAXMIX= -45

 Intra band minimization:
   WEIMIN = 0.0010     energy-eigenvalue tresh-hold
   EBREAK =  0.69E-10  absolut break condition
   DEPER  =   0.30     relativ break condition  

   TIME   =   0.40     timestep for ELM

  volume/ion in A,a.u.               =      16.24       109.62
  Fermi-wavevector in a.u.,A,eV,Ry     =   1.474956  2.787262 29.599392  2.175494
  Thomas-Fermi vector in A             =   2.589664
 
 Write flags
   LWAVE        =      T    write WAVECAR
   LDOWNSAMPLE  =      F    k-point downsampling of WAVECAR
   LCHARG       =      F    write CHGCAR
   LVTOT        =      F    write LOCPOT, total local potential
   LVHAR        =      F    write LOCPOT, Hartree potential only
   WRT_POTENTIAL= false  ! write potential to hdf5 file
   LELF         =      F    write electronic localiz. function (ELF)
   LORBIT       =     10    0 simple, 1 ext, 2 COOP (PROOUT), +10 PAW based schemes


 Python interface
   PLUGINS active      =      F    recompile with -DPLUGINS to activate
 
 Dipole corrections
   LMONO      =      F    monopole corrections only (constant potential shift)
   LDIPOL     =      F    correct potential (dipole corrections)
   IDIPOL     =      0    1-x, 2-y, 3-z, 4-all directions 
   EPSILON    =  1.0000000 bulk dielectric constant
   LVACPOTAV  =      F  vacuum potentials using an averaging scheme for the charge density
   VACPOTFLAT =  0.1000000 required flatness to determine vacuum potential
 
Coulomb truncation method
  LTRUNCATE          =      F  Coulomb kernel truncation to be used

 
 Exchange correlation treatment:
   GGA     = PE    functional components
   XC_C    = 1    coefficients multiplying the functional components
   LIBXC   =     F    Libxc                    
   VOSKOWN =     0    Vosko Wilk Nusair interpolation
   EXXOEP  =     0    0=HF, 1=EXX-LHF (local Hartree Fock) 2=EXX OEP
   LHFCALC =     T    Hartree Fock is set to
   LSYMGRAD=     F    symmetrize gradient (conserves proper symmetry)
   PRECFOCK=fast      Normal, Fast or Accurate (Low or Medium for compatibility)
   LRHFCALC=     F    long range Hartree Fock
   LRSCOR  =     F    long range correlation only (use DFT for short range part)
   LTHOMAS =     F    Thomas Fermi screening in HF
   LMODELHF=     F    short range full HF, long range fraction AEXX
   FOCKCORR=     1    mode to apply convergence corrections
   LFOCKACE=     T    use Adeptively-Compressed-Exchange operator
   ENCUT4O =  -1.0   cutoff for four orbital integrals eV
   LMAXFOCK=     4    L truncation for augmentation on plane wave grid
   LMAXFOCKAE=  -1    L truncation for all-electron charge restoration on plane wave grid
   NMAXFOCKAE=   1    number of basis functions for all-electron charge restoration
   LFOCKAEDFT=     F  apply the AE augmentation even for DFT
   NKREDX  =     1    reduce k-point grid by
   NKREDY  =     1    reduce k-point grid by
   NKREDZ  =     1    reduce k-point grid by
   SHIFTRED=     F    shift reduced grid of Gamma
   HFKIDENT=     F    idential grid for each k-point
   ODDONLY =     F    use only odd q-grid points
   EVENONLY=     F    use only even q-grid points
   HFALPHA =   -1.0000 decay constant for conv. correction
   MCALPHA =    0.0000 extent of test-charge in conv. correction in multipole expansion
   AEXX    =    0.3600 exact exchange contribution
   HFSCREEN=    0.2000 screening length (either q_TF or 0.3 A-1)
   HFSCREENC=   0.2000 screening length for correlation (either q_TF or 0.3 A-1)
   HFRCUT  =    0.0000 spherical cutoff for potential kernel
   ALDAX   =    0.6400 LDA exchange part
   AGGAX   =    0.6400 GGA exchange part
   AMGGAX  =    0.6400 meta-GGA exchange part
   ALDAC   =    1.0000 LDA correlation
   AGGAC   =    1.0000 GGA correlation
   AMGGAC  =    1.0000 meta-GGA correlation
   ENCUTFOCK=  -1.0 apply spherical cutoff to Coloumb kernel
   NBANDSGWLOW=     1    first orbital included in HF term
   NBLOCK_FOCK=    64    blocking factor in FOCK_ACC

 Parameters of functionals:
   PE:
     No parameter
 
 Van der Waals corrections
   IVDW    =     0    specifies the selected vdW correction

 Linear response parameters
   LEPSILON=     F    determine dielectric tensor
   LRPA    =     F    only Hartree local field effects (RPA)
   LNABLA  =     F    use nabla operator in PAW spheres
   LVEL    =     F    velocity operator in full k-point grid
   CSHIFT  =0.1000    complex shift for real part using Kramers Kronig
   OMEGAMAX=  -1.0    maximum frequency
   DEG_THRESHOLD= 0.2000000E-02 threshold for treating states as degnerate
   RTIME   =   -0.100 relaxation time in fs
  (WPLASMAI=    0.000 imaginary part of plasma frequency in eV, 0.658/RTIME)
   DFIELD  = 0.0000000 0.0000000 0.0000000 field for delta impulse in time
 
  Optional k-point grid parameters
   LKPOINTS_OPT  =     F    use optional k-point grid
   KPOINTS_OPT_MODE=     1    mode for optional k-point grid
 
 Orbital magnetization related:
   ORBITALMAG=     F  switch on orbital magnetization
   LCHIMAG   =     F  perturbation theory with respect to B field
   DQ        =  0.001000  dq finite difference perturbation B field
   LLRAUG    =     F  two centre corrections for induced B field
   LBONE     =     F  B-component reconstruction in AE one-centre
   LVGVCALC  =     T  calculate vGv susceptibility
   LVGVAPPL  =     F  apply vGv susceptibility instead of pGv for G=0

 Random number generation:
   RANDOM_GENERATOR = DEFAULT
   PCG_SEED         = not used


--------------------------------------------------------------------------------------------------------


 conjugate gradient relaxation of ions
 charge density and potential will be updated during run
 non-spin polarized calculation
 Conjugate gradient for all bands (Freysoldt, et al. PRB 79, 241103 (2009))
 perform sub-space diagonalisation
    before iterative eigenvector-optimisation
 modified Broyden-mixing scheme, WC =      100.0
 initial mixing is a Kerker type mixing with AMIX =  0.4000 and BMIX =      1.0000
 Hartree-type preconditioning will be used
 using additional bands           67
 reciprocal scheme for non local part
 use partial core corrections
 no Harris-corrections to forces 
 use gradient corrections 
 use of overlap-Matrix (Vanderbilt PP)
 Gauss-broadening in eV      SIGMA  =   0.10


--------------------------------------------------------------------------------------------------------


  energy-cutoff  :      400.00
  volume of cell :      812.22
      direct lattice vectors                 reciprocal lattice vectors
     6.214734417 -6.210489664  0.000000000     0.080453961 -0.080508950  0.047465165
     6.214734417  6.210489664  0.000000000     0.080453961  0.080508950  0.047465165
    -6.207593386  0.000000000 10.521937082     0.000000000  0.000000000  0.095039534

  length of vectors
     8.785960718  8.785960718 12.216602458     0.123318582  0.123318582  0.095039534


 
 k-points in units of 2pi/SCALE and weight: Num irrep kpoints: 16                   
   0.02011349  0.00000000  0.01186629       0.042
   0.04022698 -0.02012724  0.02373258       0.083
  -0.02011349  0.04025447 -0.01186629       0.083
   0.00000000  0.02012724 -0.00000000       0.042
   0.06034047  0.00000000  0.03559887       0.042
   0.00000000  0.06038171 -0.00000000       0.042
   0.02011349  0.00000000  0.04354614       0.042
   0.04022698 -0.02012724  0.05541243       0.083
  -0.02011349  0.04025447  0.01981355       0.083
   0.00000000  0.02012724  0.03167984       0.083
   0.06034047  0.00000000  0.06727872       0.042
   0.00000000  0.06038171  0.03167984       0.083
   0.02011349  0.04025447  0.04354614       0.083
  -0.06034047  0.00000000 -0.00391903       0.042
  -0.04022698 -0.02012724  0.00794726       0.083
  -0.02011349  0.00000000  0.01981355       0.042
 
 k-points in reciprocal lattice and weights: Num irrep kpoints: 16                   
   0.12500000  0.12500000  0.00000000       0.042
   0.37500000  0.12500000 -0.00000000       0.083
  -0.37500000  0.12500000 -0.00000000       0.083
  -0.12500000  0.12500000 -0.00000000       0.042
   0.37500000  0.37500000 -0.00000000       0.042
  -0.37500000  0.37500000 -0.00000000       0.042
   0.12500000  0.12500000  0.33333333       0.042
   0.37500000  0.12500000  0.33333333       0.083
  -0.37500000  0.12500000  0.33333333       0.083
  -0.12500000  0.12500000  0.33333333       0.083
   0.37500000  0.37500000  0.33333333       0.042
  -0.37500000  0.37500000  0.33333333       0.083
  -0.12500000  0.37500000  0.33333333       0.083
  -0.37500000 -0.37500000  0.33333333       0.042
  -0.12500000 -0.37500000  0.33333333       0.083
  -0.12500000 -0.12500000  0.33333333       0.042
 
 position of ions in fractional coordinates (direct lattice) 
   0.49633264  0.74641675  0.49256338
   0.74641675  0.49633264  0.99256338
   0.50366736  0.25358325  0.50743662
   0.25358325  0.50366736  0.00743662
   0.12458357  0.87541643  0.75000000
   0.87541643  0.12458357  0.25000000
   0.42127311  0.19601429  0.87762996
   0.42088890  0.68218713  0.87713375
   0.19601429  0.42127311  0.37762996
   0.19616171  0.95587929  0.37746844
   0.95587929  0.19616171  0.87746844
   0.95617808  0.68255312  0.87730227
   0.68218713  0.42088890  0.37713375
   0.68255312  0.95617808  0.37730227
   0.57872689  0.80398571  0.12237004
   0.57911110  0.31781287  0.12286625
   0.80398571  0.57872689  0.62237004
   0.80383829  0.04412071  0.62253156
   0.04412071  0.80383829  0.12253156
   0.04382192  0.31744688  0.12269773
   0.31781287  0.57911110  0.62286625
   0.31744688  0.04382192  0.62269773
   0.14833651  0.62243014  0.24626893
   0.62243014  0.14833651  0.74626893
   0.62264375  0.59770342  0.74587864
   0.59770342  0.62264375  0.24587864
   0.85166349  0.37756986  0.75373107
   0.37756986  0.85166349  0.25373107
   0.37735625  0.40229658  0.25412136
   0.40229658  0.37735625  0.75412136
   0.48626256  0.88360902  0.76689417
   0.88360902  0.48626256  0.26689417
   0.88410156  0.77931832  0.26706839
   0.77931832  0.88410156  0.76706839
   0.51373744  0.11639098  0.23310583
   0.11639098  0.51373744  0.73310583
   0.11589844  0.22068168  0.73293161
   0.22068168  0.11589844  0.23293161
   0.83507999  0.73608582  0.47246741
   0.73608582  0.83507999  0.97246741
   0.73623889  0.13726169  0.97259611
   0.13726169  0.73623889  0.47259611
   0.16492001  0.26391418  0.52753259
   0.26391418  0.16492001  0.02753259
   0.26376111  0.86273831  0.02740389
   0.86273831  0.26376111  0.52740389
   0.50000000  0.00000000  0.00000000
   0.00000000  0.50000000  0.50000000
   0.00000000  0.00000000  0.50000000
   0.00000000  0.00000000  0.00000000
 
 position of ions in cartesian coordinates  (Angst):
   4.66572419  1.55314478  5.18272095
   1.56192750 -1.55314478 10.44368949
   1.55615125 -1.55314478  5.33921614
   4.65994795  1.55314478  0.07824760
   1.55903938  4.66303972  7.89145281
   4.66283607 -4.66303972  2.63048427
  -1.61169272 -1.39896757  9.23436727
   1.41043493  1.62278996  9.22914608
   1.49210398  1.39896757  3.97339873
   4.81645823  4.71821818  3.97169923
   1.71266154 -4.71821818  9.23266777
   4.73834339 -1.69934499  9.23091934
   4.51423163 -1.62278996  3.96817754
   7.84214008  1.69934499  3.96995080
   7.83356816  1.39896757  1.28756981
   4.81144051 -1.62278996  1.29279100
   4.72977147 -1.39896757  6.54853835
   1.40541722 -4.71821818  6.55023785
   4.50921391  4.71821818  1.28926931
   1.48353206  1.69934499  1.29101774
   1.70764382  1.62278996  6.55375955
  -1.62026463 -1.69934499  6.55198628
   3.26137268  2.94435359  2.59122613
   0.15757598 -2.94435359  7.85219468
   2.95402221 -0.15489166  7.84808817
   6.05781891  0.15489166  2.58711963
   2.96050277 -2.94435359  7.93071095
   6.06429946  2.94435359  2.66974241
   3.26785323  0.15489166  2.67384891
   0.16405654 -0.15489166  7.93481745
   3.75282085  2.46771608  8.06921226
   6.85661754 -2.46771608  2.80824372
   8.67986084 -0.65075523  2.81007674
   5.57606414  0.65075523  8.07104528
   2.46905460 -2.46771608  2.45272482
  -0.63474209  2.46771608  7.71369337
  -2.45798539  0.65075523  7.71186034
   0.64581130 -0.65075523  2.45089180
   6.83149270 -0.61480227  4.97127231
   3.72769600  0.61480227 10.23224085
  -0.60890703 -3.71994171 10.23359502
   2.49488966  3.71994171  4.97262648
  -0.60961725  0.61480227  5.55066477
   2.49417944 -0.61480227  0.28969623
   6.83078248  3.71994171  0.28834206
   3.72698579 -3.71994171  5.54931060
   3.10736721 -3.10524483  0.00000000
   0.00357052  3.10524483  5.26096854
  -3.10379669  0.00000000  5.26096854
   0.00000000  0.00000000  0.00000000
 


--------------------------------------------------------------------------------------------------------


 k-point     1 :   0.1250 0.1250 0.0000  plane waves:   14749
 k-point     2 :   0.3750 0.1250-0.0000  plane waves:   14747
 k-point     3 :  -0.3750 0.1250-0.0000  plane waves:   14741
 k-point     4 :  -0.1250 0.1250-0.0000  plane waves:   14755
 k-point     5 :   0.3750 0.3750-0.0000  plane waves:   14746
 k-point     6 :  -0.3750 0.3750-0.0000  plane waves:   14732
 k-point     7 :   0.1250 0.1250 0.3333  plane waves:   14769
 k-point     8 :   0.3750 0.1250 0.3333  plane waves:   14773
 k-point     9 :  -0.3750 0.1250 0.3333  plane waves:   14752
 k-point    10 :  -0.1250 0.1250 0.3333  plane waves:   14780
 k-point    11 :   0.3750 0.3750 0.3333  plane waves:   14741
 k-point    12 :  -0.3750 0.3750 0.3333  plane waves:   14743
 k-point    13 :  -0.1250 0.3750 0.3333  plane waves:   14760
 k-point    14 :  -0.3750-0.3750 0.3333  plane waves:   14720
 k-point    15 :  -0.1250-0.3750 0.3333  plane waves:   14738
 k-point    16 :  -0.1250-0.1250 0.3333  plane waves:   14757

 maximum and minimum number of plane-waves per node :     14780    14720

 maximum number of plane-waves:     14780
 maximum index in each direction: 
   IXMAX=   14   IYMAX=   14   IZMAX=   19
   IXMIN=  -14   IYMIN=  -14   IZMIN=  -20


 serial   3D FFT for wavefunctions
 parallel 3D FFT for charge:
    minimum data exchange during FFTs selected (reduces bandwidth)


 FFT grid for exact exchange (Hartree Fock) 
  NGX = 30; NGY = 30; NGZ = 42

 
 Radii for the augmentation spheres in the non-local exchange
 for species   1 augmentation radius   1.784 (default was   1.321)
       energy cutoff for augmentation   1600.0
 for species   2 augmentation radius   1.285 (default was   0.952)
       energy cutoff for augmentation   1600.0
 Maximum index for augmentation-charges in exchange         1107
  SETUP_FOCK is finished

 total amount of memory used by VASP MPI-rank0   284381. kBytes
=======================================================================

   base                                    :      30000. kBytes
   nonl-proj                               :      79951. kBytes
   fftplans                                :       2083. kBytes
   grid                                    :       8177. kBytes
   one-center                              :        777. kBytes
   HF                                      :        129. kBytes
   nonlr-proj                              :       6436. kBytes
   wavefun                                 :     156828. kBytes
 
     INWAV:  cpu time      0.0000: real time      0.0003
 Broyden mixing: mesh for mixing (old mesh)
   NGX = 29   NGY = 29   NGZ = 39
  (NGX  = 96   NGY  = 96   NGZ  =120)
  gives a total of  32799 points

 initial charge density was supplied:
 charge density of overlapping atoms calculated
 number of electron     594.0000000 magnetization 
 keeping initial charge density in first step


--------------------------------------------------------------------------------------------------------


 Maximum index for augmentation-charges          892 (set IRDMAX)


--------------------------------------------------------------------------------------------------------


 First call to EWALD:  gamma=   0.190
 Maximum number of real-space cells   3x   3x   3
 Maximum number of reciprocal cells   3x   3x   3

    FEWALD:  cpu time      0.0150: real time      0.0154


--------------------------------------- Ionic step        1  -------------------------------------------




--------------------------------------- Iteration      1(   1)  ---------------------------------------


    POTLOK:  cpu time      0.0360: real time      0.0520
    SETDIJ:  cpu time      0.0643: real time      0.0648
    TRIAL :  cpu time      5.6771: real time      5.8700
    CORREC:  cpu time      0.0009: real time      0.0009
    --------------------------------------------
      LOOP:  cpu time      5.8337: real time      6.0444

 eigenvalue-minimisations  : 11648
 total energy-change (2. order) :-0.3243363E+05  (-0.2231610E+05)
 number of electron     594.0000000 magnetization 
 augmentation part      594.0000000 magnetization 

 Free energy of the ion-electron system (eV)
  ---------------------------------------------------
  alpha Z        PSCENC =      5311.14456791
  Ewald energy   TEWEN  =    -55847.23549167
  -Hartree energ DENC   =    -25065.73648305
  -exchange      EXHF   =         0.00000000
  -V(xc)+E(xc)   XCENC  =      2687.88038805
  PAW double counting   =     68352.41928698  -112349.05241458
  entropy T*S    EENTRO =        -0.01919226
  eigenvalues    EBANDS =      2006.66529970
  atomic energy  EATOM  =     82470.30389538
  ---------------------------------------------------
  free energy    TOTEN  =    -32433.63014356 eV

  energy without entropy =   -32433.61095129  energy(sigma->0) =   -32433.62054743
  exchange ACFDT corr.  =         0.00000000  see jH, gK, PRB 81, 115126


--------------------------------------------------------------------------------------------------------




--------------------------------------- Iteration      1(   2)  ---------------------------------------


    TRIAL :  cpu time      6.3412: real time      6.3822
    CORREC:  cpu time      0.0003: real time      0.0003
    --------------------------------------------
      LOOP:  cpu time      6.3628: real time      6.4056

 eigenvalue-minimisations  : 13972
 total energy-change (2. order) :-0.5045571E+04  (-0.4868002E+04)
 number of electron     594.0000000 magnetization 
 augmentation part      594.0000000 magnetization 

 Free energy of the ion-electron system (eV)
  ---------------------------------------------------
  alpha Z        PSCENC =      5311.14456791
  Ewald energy   TEWEN  =    -55847.23549167
  -Hartree energ DENC   =    -25065.73648305
  -exchange      EXHF   =         0.00000000
  -V(xc)+E(xc)   XCENC  =      2687.88038805
  PAW double counting   =     68352.41928698  -112349.05241458
  entropy T*S    EENTRO =        -0.05071494
  eigenvalues    EBANDS =     -3038.87396393
  atomic energy  EATOM  =     82470.30389538
  ---------------------------------------------------
  free energy    TOTEN  =    -37479.20092987 eV

  energy without entropy =   -37479.15021492  energy(sigma->0) =   -37479.17557240
  exchange ACFDT corr.  =         0.00000000  see jH, gK, PRB 81, 115126


--------------------------------------------------------------------------------------------------------




--------------------------------------- Iteration      1(   3)  ---------------------------------------


    TRIAL :  cpu time      7.8766: real time      7.9194
    CORREC:  cpu time      0.0003: real time      0.0003
    --------------------------------------------
      LOOP:  cpu time      7.8953: real time      7.9429

 eigenvalue-minimisations  : 18340
 total energy-change (2. order) :-0.1648598E+04  (-0.1603027E+04)
 number of electron     594.0000000 magnetization 
 augmentation part      594.0000000 magnetization 

 Free energy of the ion-electron system (eV)
  ---------------------------------------------------
  alpha Z        PSCENC =      5311.14456791
  Ewald energy   TEWEN  =    -55847.23549167
  -Hartree energ DENC   =    -25065.73648305
  -exchange      EXHF   =         0.00000000
  -V(xc)+E(xc)   XCENC  =      2687.88038805
  PAW double counting   =     68352.41928698  -112349.05241458
  entropy T*S    EENTRO =        -0.05619460
  eigenvalues    EBANDS =     -4687.46680192
  atomic energy  EATOM  =     82470.30389538
  ---------------------------------------------------
  free energy    TOTEN  =    -39127.79924751 eV

  energy without entropy =   -39127.74305291  energy(sigma->0) =   -39127.77115021
  exchange ACFDT corr.  =         0.00000000  see jH, gK, PRB 81, 115126


--------------------------------------------------------------------------------------------------------




--------------------------------------- Iteration      1(   4)  ---------------------------------------


    TRIAL :  cpu time      8.1152: real time      8.1610
    CORREC:  cpu time      0.0004: real time      0.0004
    --------------------------------------------
      LOOP:  cpu time      8.1259: real time      8.1853

 eigenvalue-minimisations  : 18816
 total energy-change (2. order) :-0.3090497E+03  (-0.3016586E+03)
 number of electron     594.0000000 magnetization 
 augmentation part      594.0000000 magnetization 

 Free energy of the ion-electron system (eV)
  ---------------------------------------------------
  alpha Z        PSCENC =      5311.14456791
  Ewald energy   TEWEN  =    -55847.23549167
  -Hartree energ DENC   =    -25065.73648305
  -exchange      EXHF   =         0.00000000
  -V(xc)+E(xc)   XCENC  =      2687.88038805
  PAW double counting   =     68352.41928698  -112349.05241458
  entropy T*S    EENTRO =        -0.08947318
  eigenvalues    EBANDS =     -4996.48322950
  atomic energy  EATOM  =     82470.30389538
  ---------------------------------------------------
  free energy    TOTEN  =    -39436.84895368 eV

  energy without entropy =   -39436.75948049  energy(sigma->0) =   -39436.80421709
  exchange ACFDT corr.  =         0.00000000  see jH, gK, PRB 81, 115126


--------------------------------------------------------------------------------------------------------




--------------------------------------- Iteration      1(   5)  ---------------------------------------


    POTLOK:  cpu time      0.0490: real time      0.0493
    SETDIJ:  cpu time      0.1878: real time      0.1883
    TRIAL :  cpu time   1465.1622: real time   1472.9236
    CORREC:  cpu time      0.0008: real time      0.0013
    CHARGE:  cpu time      0.1611: real time      0.2308
    --------------------------------------------
      LOOP:  cpu time   1465.5732: real time   1473.4198

 eigenvalue-minimisations  : 20748
 total energy-change (2. order) : 0.3935531E+05  (-0.1059854E+03)
 number of electron     594.0000393 magnetization 
 augmentation part      365.3814238 magnetization 

 Free energy of the ion-electron system (eV)
  ---------------------------------------------------
  alpha Z        PSCENC =      5311.14456791
  Ewald energy   TEWEN  =    -55847.23549167
  -Hartree energ DENC   =    -25065.73648305
  -exchange      EXHF   =      2408.07752732
  -V(xc)+E(xc)   XCENC  =      1753.21942743
  PAW double counting   =     69255.57075553   -76047.92745757
  entropy T*S    EENTRO =        -0.06568230
  eigenvalues    EBANDS =     -4318.89069310
  atomic energy  EATOM  =     82470.30389538
  ---------------------------------------------------
  free energy    TOTEN  =       -81.53963412 eV

  energy without entropy =      -81.47395182  energy(sigma->0) =      -81.50679297
  exchange ACFDT corr.  =        -0.02136431  see jH, gK, PRB 81, 115126


--------------------------------------------------------------------------------------------------------




--------------------------------------- Iteration      1(   6)  ---------------------------------------


    POTLOK:  cpu time      0.0672: real time      0.0871
    SETDIJ:  cpu time      0.1896: real time      0.1910
    TRIAL :  cpu time   1455.0978: real time   1463.7199
    CORREC:  cpu time      0.0034: real time      0.0041
    CHARGE:  cpu time      0.1449: real time      0.1525
    --------------------------------------------
      LOOP:  cpu time   1455.5254: real time   1464.1802

 eigenvalue-minimisations  :     0
 total energy-change (2. order) : 0.6056206E+01  (-0.5043198E+02)
 number of electron     594.0000387 magnetization 
 augmentation part      359.1689947 magnetization 

 Free energy of the ion-electron system (eV)
  ---------------------------------------------------
  alpha Z        PSCENC =      5311.14456791
  Ewald energy   TEWEN  =    -55847.23549167
  -Hartree energ DENC   =    -24882.83110004
  -exchange      EXHF   =      2338.73988934
  -V(xc)+E(xc)   XCENC  =      1759.50295959
  PAW double counting   =     77557.16140349   -84755.58616702
  entropy T*S    EENTRO =        -0.06568230
  eigenvalues    EBANDS =     -4026.61770329
  atomic energy  EATOM  =     82470.30389538
  ---------------------------------------------------
  free energy    TOTEN  =       -75.48342861 eV

  energy without entropy =      -75.41774631  energy(sigma->0) =      -75.45058746
  exchange ACFDT corr.  =        -0.01343818  see jH, gK, PRB 81, 115126


--------------------------------------------------------------------------------------------------------




--------------------------------------- Iteration      1(   7)  ---------------------------------------


    POTLOK:  cpu time      0.0669: real time      0.0829
    SETDIJ:  cpu time      0.1889: real time      0.1903
    TRIAL :  cpu time   1453.4046: real time   1463.4394
    CORREC:  cpu time      0.0028: real time      0.0035
    CHARGE:  cpu time      0.1447: real time      0.1826
    --------------------------------------------
      LOOP:  cpu time   1453.8290: real time   1463.9255

 eigenvalue-minimisations  :     0
 total energy-change (2. order) :-0.2208509E+02  (-0.1005757E+02)
 number of electron     594.0000388 magnetization 
 augmentation part      360.0435981 magnetization 

 Free energy of the ion-electron system (eV)
  ---------------------------------------------------
  alpha Z        PSCENC =      5311.14456791
  Ewald energy   TEWEN  =    -55847.23549167
  -Hartree energ DENC   =    -24404.50391294
  -exchange      EXHF   =      2311.86324835
  -V(xc)+E(xc)   XCENC  =      1737.91222249
  PAW double counting   =     77289.81495170   -84146.33368755
  entropy T*S    EENTRO =        -0.06231328
  eigenvalues    EBANDS =     -4820.47199857
  atomic energy  EATOM  =     82470.30389538
  ---------------------------------------------------
  free energy    TOTEN  =       -97.56851818 eV

  energy without entropy =      -97.50620490  energy(sigma->0) =      -97.53736154
  exchange ACFDT corr.  =        -0.12005453  see jH, gK, PRB 81, 115126


--------------------------------------------------------------------------------------------------------




--------------------------------------- Iteration      1(   8)  ---------------------------------------


    POTLOK:  cpu time      0.0630: real time      0.0759
    SETDIJ:  cpu time      0.1932: real time      0.1943
    TRIAL :  cpu time   1452.5408: real time   1464.2279
    CORREC:  cpu time      0.0029: real time      0.0038
    CHARGE:  cpu time      0.1473: real time      0.1917
    --------------------------------------------
      LOOP:  cpu time   1452.9659: real time   1464.7176

 eigenvalue-minimisations  :     0
 total energy-change (2. order) :-0.5865076E+01  (-0.4699014E+01)
 number of electron     594.0000389 magnetization 
 augmentation part      361.7251229 magnetization 

 Free energy of the ion-electron system (eV)
  ---------------------------------------------------
  alpha Z        PSCENC =      5311.14456791
  Ewald energy   TEWEN  =    -55847.23549167
  -Hartree energ DENC   =    -24595.64221373
  -exchange      EXHF   =      2316.63671345
  -V(xc)+E(xc)   XCENC  =      1741.54618668
  PAW double counting   =     77434.09966137   -84375.03374265
  entropy T*S    EENTRO =        -0.06630917
  eigenvalues    EBANDS =     -4559.18686182
  atomic energy  EATOM  =     82470.30389538
  ---------------------------------------------------
  free energy    TOTEN  =      -103.43359426 eV

  energy without entropy =     -103.36728509  energy(sigma->0) =     -103.40043968
  exchange ACFDT corr.  =        -0.05397384  see jH, gK, PRB 81, 115126


--------------------------------------------------------------------------------------------------------




--------------------------------------- Iteration      1(   9)  ---------------------------------------


    POTLOK:  cpu time      0.0685: real time      0.0737
    SETDIJ:  cpu time      0.1882: real time      0.1900
