 running  112 mpi-ranks, on    1 nodes
 distrk:  each k-point on   28 cores,    4 groups
 distr:  one band on    1 cores,   28 groups
 vasp.6.5.1 10Mar25 (build May 05 2025 13:45:00) complex                        
  
 POSCAR found type information on POSCAR NdZn
 POSCAR found :  2 types and      50 ions
 scaLAPACK will be used
 -----------------------------------------------------------------------------
|                                                                             |
|           W    W    AA    RRRRR   N    N  II  N    N   GGGG   !!!           |
|           W    W   A  A   R    R  NN   N  II  NN   N  G    G  !!!           |
|           W    W  A    A  R    R  N N  N  II  N N  N  G       !!!           |
|           W WW W  AAAAAA  RRRRR   N  N N  II  N  N N  G  GGG   !            |
|           WW  WW  A    A  R   R   N   NN  II  N   NN  G    G                |
|           W    W  A    A  R    R  N    N  II  N    N   GGGG   !!!           |
|                                                                             |
|     For optimal performance we recommend to set                             |
|       NCORE = 2 up to number-of-cores-per-socket                            |
|     NCORE specifies how many cores store one orbital (NPAR=cpu/NCORE).      |
|     This setting can greatly improve the performance of VASP for DFT.       |
|     The default, NCORE=1 might be grossly inefficient on modern             |
|     multi-core architectures or massively parallel machines. Do your        |
|     own testing! More info at https://www.vasp.at/wiki/index.php/NCORE      |
|     Unfortunately you need to use the default for GW and RPA                |
|     calculations (for HF NCORE is supported but not extensively tested      |
|     yet).                                                                   |
|                                                                             |
 -----------------------------------------------------------------------------

 -----------------------------------------------------------------------------
|                                                                             |
|               ----> ADVICE to this user running VASP <----                  |
|                                                                             |
|     You have a (more or less) 'large supercell' and for larger cells it     |
|     might be more efficient to use real-space projection operators.         |
|     Therefore, try LREAL= Auto in the INCAR file.                           |
|     Mind: For very accurate calculation, you might also keep the            |
|     reciprocal projection scheme (i.e. LREAL=.FALSE.).                      |
|                                                                             |
 -----------------------------------------------------------------------------

 LDA part: xc-table for (Slater+PW92), standard interpolation
 POSCAR, INCAR and KPOINTS ok, starting setup
 FFT: planning ... GRIDC
 FFT: planning ... GRID_SOFT
 FFT: planning ... GRID
 WAVECAR not read
 entering main loop
       N       E                     dE             d eps       ncg     rms           ort
DAV:   1    -0.324336301436E+05   -0.32434E+05   -0.22316E+05  5824   0.236E+03  
DAV:   2    -0.374792009299E+05   -0.50456E+04   -0.48680E+04  5824   0.627E+02  
DAV:   3    -0.391277992475E+05   -0.16486E+04   -0.16030E+04  5824   0.265E+02  
DAV:   4    -0.394368489537E+05   -0.30905E+03   -0.30166E+03  5824   0.119E+02  
DAV:   5    -0.815396341218E+02    0.39355E+05   -0.10599E+03  5824   0.896E+01  
SDA:   6    -0.754834286118E+02    0.60562E+01   -0.50432E+02  5824   0.126E+03   0.000E+00
DMP:   7    -0.975685181810E+02   -0.22085E+02   -0.10058E+02  5824   0.313E+02  -0.162E+02
DMP:   8    -0.103433594262E+03   -0.58651E+01   -0.46990E+01  5824   0.102E+02   0.404E+01
