<?xml version="1.0" encoding="ISO-8859-1"?>
<modeling>
 <generator>
  <i name="program" type="string">vasp </i>
  <i name="version" type="string">6.5.1  </i>
  <i name="subversion" type="string">10Mar25 (build May 05 2025 13:45:00) complex                          parallel </i>
  <i name="platform" type="string">LinuxIFC </i>
  <i name="date" type="string">2026 04 28 </i>
  <i name="time" type="string">09:20:11 </i>
 </generator>
 <incar>
  <i type="string" name="PREC">Normal</i>
  <i type="string" name="ALGO">Damped</i>
  <i type="int" name="NELM">   100</i>
  <i type="int" name="IBRION">     2</i>
  <i name="EDIFF">      0.00000010</i>
  <i name="EDIFFG">     -0.00500000</i>
  <i type="int" name="NSW">   300</i>
  <i type="int" name="ISIF">     3</i>
  <i name="ENCUT">    400.00000000</i>
  <i type="logical" name="LREAL"> F  </i>
  <i name="TIME">      0.40000000</i>
  <i type="int" name="ISMEAR">     0</i>
  <i name="SIGMA">      0.10000000</i>
  <i type="logical" name="LWAVE"> T  </i>
  <i type="logical" name="LCHARG"> F  </i>
  <i type="int" name="LORBIT">    10</i>
  <i type="logical" name="LASPH"> T  </i>
  <i name="HFSCREEN">      0.20000000</i>
  <i type="logical" name="LHFCALC"> T  </i>
  <i name="AEXX">      0.36000000</i>
  <i type="string" name="PRECFOCK">Fast</i>
 </incar>
 <primitive_cell>
  <structure name="primitive_cell" >
   <crystal>
    <varray name="basis" >
     <v>       6.21473442      -6.21048966       0.00000000 </v>
     <v>       6.21473442       6.21048966       0.00000000 </v>
     <v>      -6.20759339       0.00000000      10.52193708 </v>
    </varray>
    <i name="volume">    812.22081223 </i>
    <varray name="rec_basis" >
     <v>       0.08045396      -0.08050895       0.04746516 </v>
     <v>       0.08045396       0.08050895       0.04746516 </v>
     <v>       0.00000000       0.00000000       0.09503953 </v>
    </varray>
   </crystal>
   <varray name="positions" >
    <v>       0.49633264       0.74641675       0.49256338 </v>
    <v>       0.74641675       0.49633264       0.99256338 </v>
    <v>       0.50366736       0.25358325       0.50743662 </v>
    <v>       0.25358325       0.50366736       0.00743662 </v>
    <v>       0.12458357       0.87541643       0.75000000 </v>
    <v>       0.87541643       0.12458357       0.25000000 </v>
    <v>       0.42127311       0.19601429       0.87762996 </v>
    <v>       0.42088890       0.68218713       0.87713375 </v>
    <v>       0.19601429       0.42127311       0.37762996 </v>
    <v>       0.19616171       0.95587929       0.37746844 </v>
    <v>       0.95587929       0.19616171       0.87746844 </v>
    <v>       0.95617808       0.68255312       0.87730227 </v>
    <v>       0.68218713       0.42088890       0.37713375 </v>
    <v>       0.68255312       0.95617808       0.37730227 </v>
    <v>       0.57872689       0.80398571       0.12237004 </v>
    <v>       0.57911110       0.31781287       0.12286625 </v>
    <v>       0.80398571       0.57872689       0.62237004 </v>
    <v>       0.80383829       0.04412071       0.62253156 </v>
    <v>       0.04412071       0.80383829       0.12253156 </v>
    <v>       0.04382192       0.31744688       0.12269773 </v>
    <v>       0.31781287       0.57911110       0.62286625 </v>
    <v>       0.31744688       0.04382192       0.62269773 </v>
    <v>       0.14833651       0.62243014       0.24626893 </v>
    <v>       0.62243014       0.14833651       0.74626893 </v>
    <v>       0.62264375       0.59770342       0.74587864 </v>
    <v>       0.59770342       0.62264375       0.24587864 </v>
    <v>       0.85166349       0.37756986       0.75373107 </v>
    <v>       0.37756986       0.85166349       0.25373107 </v>
    <v>       0.37735625       0.40229658       0.25412136 </v>
    <v>       0.40229658       0.37735625       0.75412136 </v>
    <v>       0.48626256       0.88360902       0.76689417 </v>
    <v>       0.88360902       0.48626256       0.26689417 </v>
    <v>       0.88410156       0.77931832       0.26706839 </v>
    <v>       0.77931832       0.88410156       0.76706839 </v>
    <v>       0.51373744       0.11639098       0.23310583 </v>
    <v>       0.11639098       0.51373744       0.73310583 </v>
    <v>       0.11589844       0.22068168       0.73293161 </v>
    <v>       0.22068168       0.11589844       0.23293161 </v>
    <v>       0.83507999       0.73608582       0.47246741 </v>
    <v>       0.73608582       0.83507999       0.97246741 </v>
    <v>       0.73623889       0.13726169       0.97259611 </v>
    <v>       0.13726169       0.73623889       0.47259611 </v>
    <v>       0.16492001       0.26391418       0.52753259 </v>
    <v>       0.26391418       0.16492001       0.02753259 </v>
    <v>       0.26376111       0.86273831       0.02740389 </v>
    <v>       0.86273831       0.26376111       0.52740389 </v>
    <v>       0.50000000       1.00000000       0.00000000 </v>
    <v>       0.00000000       0.50000000       0.50000000 </v>
    <v>       0.00000000       0.00000000       0.50000000 </v>
    <v>       0.00000000       0.00000000       0.00000000 </v>
   </varray>
  </structure>
  <varray name="primitive_index" >
   <v type="int" >        1 </v>
   <v type="int" >        2 </v>
   <v type="int" >        3 </v>
   <v type="int" >        4 </v>
   <v type="int" >        5 </v>
   <v type="int" >        6 </v>
   <v type="int" >        7 </v>
   <v type="int" >        8 </v>
   <v type="int" >        9 </v>
   <v type="int" >       10 </v>
   <v type="int" >       11 </v>
   <v type="int" >       12 </v>
   <v type="int" >       13 </v>
   <v type="int" >       14 </v>
   <v type="int" >       15 </v>
   <v type="int" >       16 </v>
   <v type="int" >       17 </v>
   <v type="int" >       18 </v>
   <v type="int" >       19 </v>
   <v type="int" >       20 </v>
   <v type="int" >       21 </v>
   <v type="int" >       22 </v>
   <v type="int" >       23 </v>
   <v type="int" >       24 </v>
   <v type="int" >       25 </v>
   <v type="int" >       26 </v>
   <v type="int" >       27 </v>
   <v type="int" >       28 </v>
   <v type="int" >       29 </v>
   <v type="int" >       30 </v>
   <v type="int" >       31 </v>
   <v type="int" >       32 </v>
   <v type="int" >       33 </v>
   <v type="int" >       34 </v>
   <v type="int" >       35 </v>
   <v type="int" >       36 </v>
   <v type="int" >       37 </v>
   <v type="int" >       38 </v>
   <v type="int" >       39 </v>
   <v type="int" >       40 </v>
   <v type="int" >       41 </v>
   <v type="int" >       42 </v>
   <v type="int" >       43 </v>
   <v type="int" >       44 </v>
   <v type="int" >       45 </v>
   <v type="int" >       46 </v>
   <v type="int" >       47 </v>
   <v type="int" >       48 </v>
   <v type="int" >       49 </v>
   <v type="int" >       50 </v>
  </varray>
 </primitive_cell>
 <kpoints>
  <generation param="Gamma">
   <v type="int" name="divisions">       4        4        3 </v>
   <v name="usershift">      0.50000000       0.50000000       0.00000000 </v>
   <v name="genvec1">      0.25000000      -0.00000000       0.00000000 </v>
   <v name="genvec2">     -0.00000000       0.25000000       0.00000000 </v>
   <v name="genvec3">      0.00000000       0.00000000       0.33333333 </v>
   <v name="shift">      0.50000000       0.50000000       0.00000000 </v>
  </generation>
  <varray name="kpointlist" >
   <v>       0.12500000       0.12500000       0.00000000 </v>
   <v>       0.37500000       0.12500000      -0.00000000 </v>
   <v>      -0.37500000       0.12500000      -0.00000000 </v>
   <v>      -0.12500000       0.12500000      -0.00000000 </v>
   <v>       0.37500000       0.37500000      -0.00000000 </v>
   <v>      -0.37500000       0.37500000      -0.00000000 </v>
   <v>       0.12500000       0.12500000       0.33333333 </v>
   <v>       0.37500000       0.12500000       0.33333333 </v>
   <v>      -0.37500000       0.12500000       0.33333333 </v>
   <v>      -0.12500000       0.12500000       0.33333333 </v>
   <v>       0.37500000       0.37500000       0.33333333 </v>
   <v>      -0.37500000       0.37500000       0.33333333 </v>
   <v>      -0.12500000       0.37500000       0.33333333 </v>
   <v>      -0.37500000      -0.37500000       0.33333333 </v>
   <v>      -0.12500000      -0.37500000       0.33333333 </v>
   <v>      -0.12500000      -0.12500000       0.33333333 </v>
  </varray>
  <varray name="weights" >
   <v>       0.04166667 </v>
   <v>       0.08333333 </v>
   <v>       0.08333333 </v>
   <v>       0.04166667 </v>
   <v>       0.04166667 </v>
   <v>       0.04166667 </v>
   <v>       0.04166667 </v>
   <v>       0.08333333 </v>
   <v>       0.08333333 </v>
   <v>       0.08333333 </v>
   <v>       0.04166667 </v>
   <v>       0.08333333 </v>
   <v>       0.08333333 </v>
   <v>       0.04166667 </v>
   <v>       0.08333333 </v>
   <v>       0.04166667 </v>
  </varray>
 </kpoints>
 <parameters>
  <separator name="general" >
   <i type="string" name="SYSTEM">unknown system</i>
   <i type="logical" name="LCOMPAT"> F  </i>
  </separator>
  <separator name="electronic" >
   <i type="string" name="PREC">normal</i>
   <i name="ENMAX">    400.00000000</i>
   <i name="ENAUG">    575.89200000</i>
   <i name="EDIFF">      0.00000010</i>
   <i type="int" name="IALGO">    53</i>
   <i type="int" name="IWAVPR">    11</i>
   <i type="int" name="NBANDS">   364</i>
   <i type="int" name="NBANDSLOW">    -1</i>
   <i type="int" name="NBANDSHIGH">    -1</i>
   <i name="NELECT">    594.00000000</i>
   <i type="int" name="TURBO">     0</i>
   <i type="int" name="IRESTART">     0</i>
   <i type="int" name="NREBOOT">     0</i>
   <i type="int" name="NMIN">     0</i>
   <i name="EREF">      0.00000000</i>
   <separator name="electronic smearing" >
    <i type="int" name="ISMEAR">     0</i>
    <i name="SIGMA">      0.10000000</i>
    <i name="KSPACING">      0.50000000</i>
    <i type="logical" name="KGAMMA"> T  </i>
    <i type="logical" name="KBLOWUP"> T  </i>
   </separator>
   <separator name="electronic projectors" >
    <i type="logical" name="LREAL"> F  </i>
    <v name="ROPT">      0.00000000      0.00000000</v>
    <i type="int" name="LMAXPAW">  -100</i>
    <i type="int" name="LMAXMIX">     2</i>
    <i type="logical" name="NLSPLINE"> F  </i>
   </separator>
   <separator name="electronic startup" >
    <i type="int" name="ISTART">     0</i>
    <i type="int" name="ICHARG">     2</i>
    <i type="int" name="INIWAV">     1</i>
   </separator>
   <separator name="electronic spin" >
    <i type="int" name="ISPIN">     1</i>
    <i type="logical" name="LNONCOLLINEAR"> F  </i>
    <v name="MAGMOM">      1.00000000      1.00000000      1.00000000      1.00000000      1.00000000      1.00000000      1.00000000      1.00000000      1.00000000      1.00000000      1.00000000      1.00000000      1.00000000      1.00000000      1.00000000      1.00000000      1.00000000      1.00000000      1.00000000      1.00000000
      1.00000000      1.00000000      1.00000000      1.00000000      1.00000000      1.00000000      1.00000000      1.00000000      1.00000000      1.00000000      1.00000000      1.00000000      1.00000000      1.00000000      1.00000000      1.00000000      1.00000000      1.00000000      1.00000000      1.00000000
      1.00000000      1.00000000      1.00000000      1.00000000      1.00000000      1.00000000      1.00000000      1.00000000      1.00000000      1.00000000</v>
    <i name="NUPDOWN">     -1.00000000</i>
    <i type="logical" name="LSORBIT"> F  </i>
    <v name="SAXIS">      0.00000000      0.00000000      1.00000000</v>
    <i type="logical" name="LSPIRAL"> F  </i>
    <v name="QSPIRAL">      0.00000000      0.00000000      0.00000000</v>
    <i type="logical" name="LZEROZ"> F  </i>
   </separator>
   <separator name="electronic exchange-correlation" >
    <i type="logical" name="LASPH"> T  </i>
   </separator>
   <separator name="electronic convergence" >
    <i type="int" name="NELM">   100</i>
    <i type="int" name="NELMDL">    -5</i>
    <i type="int" name="NELMIN">     2</i>
    <i name="ENINI">    400.00000000</i>
    <separator name="electronic convergence detail" >
     <i type="logical" name="LDIAG"> T  </i>
     <i type="logical" name="LSUBROT"> F  </i>
     <i type="logical" name="LROBUST"> F  </i>
     <i type="int" name="ISEARCH">     0</i>
     <i name="WEIMIN">      0.00100000</i>
     <i name="EBREAK">      0.00000000</i>
     <i name="DEPER">      0.30000000</i>
     <i type="int" name="NRMM">     4</i>
     <i name="TIME">      0.40000000</i>
    </separator>
   </separator>
   <separator name="electronic mixer" >
    <i name="AMIX">      0.40000000</i>
    <i name="BMIX">      1.00000000</i>
    <i name="AMIN">      0.10000000</i>
    <i name="AMIX_MAG">      1.60000000</i>
    <i name="BMIX_MAG">      1.00000000</i>
    <separator name="electronic mixer details" >
     <i type="int" name="IMIX">     4</i>
     <i type="logical" name="MIXFIRST"> F  </i>
     <i type="int" name="MAXMIX">   -45</i>
     <i name="WC">    100.00000000</i>
     <i type="int" name="INIMIX">     1</i>
     <i type="int" name="MIXPRE">     1</i>
     <i type="int" name="MREMOVE">     5</i>
    </separator>
   </separator>
   <separator name="electronic dipolcorrection" >
    <i type="logical" name="LDIPOL"> F  </i>
    <i type="logical" name="LMONO"> F  </i>
    <i type="int" name="IDIPOL">     0</i>
    <i name="EPSILON">      1.00000000</i>
    <v name="DIPOL">   -100.00000000   -100.00000000   -100.00000000</v>
    <i name="EFIELD">      0.00000000</i>
    <i type="logical" name="LVACPOTAV"> F  </i>
   </separator>
  </separator>
  <separator name="grids" >
   <i type="int" name="NGX">    48</i>
   <i type="int" name="NGY">    48</i>
   <i type="int" name="NGZ">    60</i>
   <i type="int" name="NGXF">    96</i>
   <i type="int" name="NGYF">    96</i>
   <i type="int" name="NGZF">   120</i>
   <i type="logical" name="ADDGRID"> F  </i>
  </separator>
  <separator name="ionic" >
   <i type="int" name="NSW">   300</i>
   <i type="int" name="IBRION">     2</i>
   <i type="int" name="MDALGO">     0</i>
   <i type="int" name="ISIF">     3</i>
   <i name="PSTRESS">      0.00000000</i>
   <i name="EDIFFG">     -0.00500000</i>
   <i type="int" name="NFREE">     1</i>
   <i name="POTIM">      0.50000000</i>
   <i name="SMASS">     -3.00000000</i>
   <i name="SCALEE">      1.00000000</i>
  </separator>
  <separator name="ionic md" >
   <i name="TEBEG">      0.00010000</i>
   <i name="TEEND">      0.00010000</i>
   <i type="int" name="NBLOCK">     1</i>
   <i type="int" name="KBLOCK">   300</i>
   <i type="int" name="NPACO">   256</i>
   <i name="APACO">     10.00000000</i>
  </separator>
  <separator name="symmetry" >
   <i type="int" name="ISYM">     3</i>
   <i name="SYMPREC">      0.00001000</i>
  </separator>
  <separator name="dos" >
   <i type="int" name="LORBIT">    10</i>
   <v name="RWIGS">     -1.00000000     -1.00000000</v>
   <i type="int" name="NEDOS">   301</i>
   <i name="EMIN">     10.00000000</i>
   <i name="EMAX">    -10.00000000</i>
   <i name="EFERMI">      0.00000000</i>
  </separator>
  <separator name="writing" >
   <i type="int" name="NWRITE">     2</i>
   <i type="logical" name="LWAVE"> T  </i>
   <i type="logical" name="LDOWNSAMPLE"> F  </i>
   <i type="logical" name="LCHARG"> F  </i>
   <i type="logical" name="LPARD"> F  </i>
   <i type="logical" name="LVTOT"> F  </i>
   <i type="logical" name="LVHAR"> F  </i>
   <i type="logical" name="LELF"> F  </i>
   <i type="logical" name="LOPTICS"> F  </i>
   <v name="STM">      0.00000000      0.00000000      0.00000000      0.00000000      0.00000000      0.00000000      0.00000000</v>
  </separator>
  <separator name="performance" >
   <i type="int" name="NPAR">    28</i>
   <i type="int" name="NSIM">     4</i>
   <i type="int" name="NBLK">    -1</i>
   <i type="logical" name="LPLANE"> T  </i>
   <i type="logical" name="LSCALAPACK"> T  </i>
   <i type="logical" name="LSCAAWARE"> F  </i>
   <i type="logical" name="LSCALU"> F  </i>
   <i type="logical" name="LASYNC"> F  </i>
   <i type="logical" name="LORBITALREAL"> F  </i>
  </separator>
  <separator name="miscellaneous" >
   <i type="int" name="IDIOT">     3</i>
   <i type="int" name="PHON_NSTRUCT">    -1</i>
   <i type="logical" name="LMUSIC"> F  </i>
   <v name="POMASS">    144.24000000     65.39000000</v>
   <v name="DARWINR">      0.00000000      0.00000000</v>
   <v name="DARWINV">      1.00000000      1.00000000</v>
   <i type="logical" name="LCORR"> T  </i>
  </separator>
  <i type="logical" name="GGA_COMPAT"> T  </i>
  <i type="logical" name="LBERRY"> F  </i>
  <i type="int" name="ICORELEVEL">     0</i>
  <i type="logical" name="LDAU"> F  </i>
  <i type="int" name="I_CONSTRAINED_M">     0</i>
  <separator name="electronic exchange-correlation" >
   <i type="string" name="GGA    ">PE</i>
   <i type="string" name="XC_C">1</i>
   <i type="int" name="VOSKOWN">     0</i>
   <i type="logical" name="LHFCALC"> T  </i>
   <i type="string" name="PRECFOCK">fast</i>
   <i type="logical" name="LSYMGRAD"> F  </i>
   <i type="logical" name="LHFONE"> F  </i>
   <i type="logical" name="LRHFCALC"> F  </i>
   <i type="logical" name="LTHOMAS"> F  </i>
   <i type="logical" name="LMODELHF"> F  </i>
   <i type="logical" name="LFOCKACE"> T  </i>
   <i name="ENCUT4O">     -1.00000000</i>
   <i type="int" name="EXXOEP">     0</i>
   <i type="int" name="FOURORBIT">     0</i>
   <i name="AEXX">      0.36000000</i>
   <i name="HFALPHA">     -1.00000000</i>
   <i name="MCALPHA">      0.00000000</i>
   <i name="ALDAX">      0.64000000</i>
   <i name="AGGAX">      0.64000000</i>
   <i name="AMGGAX">      0.64000000</i>
   <i name="ALDAC">      1.00000000</i>
   <i name="AGGAC">      1.00000000</i>
   <i name="AMGGAC">      1.00000000</i>
   <i type="int" name="NKREDX">     1</i>
   <i type="int" name="NKREDY">     1</i>
   <i type="int" name="NKREDZ">     1</i>
   <i type="logical" name="SHIFTRED"> F  </i>
   <i type="logical" name="ODDONLY"> F  </i>
   <i type="logical" name="EVENONLY"> F  </i>
   <i type="int" name="LMAXFOCK">     4</i>
   <i type="int" name="NMAXFOCKAE">     1</i>
   <i type="logical" name="LFOCKAEDFT"> F  </i>
   <i name="HFSCREEN">      0.20000000</i>
   <i name="HFSCREENC">      0.20000000</i>
   <i type="int" name="NBANDSGWLOW">     1</i>
  </separator>
  <separator name="vdW DFT" >
   <i type="logical" name="LUSE_VDW"> F  </i>
   <i type="int" name="IVDW_NL">    -1</i>
   <i type="logical" name="LSPIN_VDW"> F  </i>
   <i name="ZAB_VDW">     -0.84910000</i>
   <i name="GAMMA_VDW">      1.39626340</i>
   <i name="ALPHA_VDW">      0.00000000</i>
   <i name="PARAM1">      0.12340000</i>
   <i name="PARAM2">      1.00000000</i>
   <i name="BPARAM">      6.30000000</i>
   <i name="CPARAM">      0.00930000</i>
  </separator>
  <separator name="model GW" >
   <i type="int" name="MODEL_GW">     0</i>
   <i name="MODEL_EPS0">      9.74664975</i>
   <i name="MODEL_ALPHA">      1.00000000</i>
  </separator>
  <separator name="linear response parameters" >
   <i type="logical" name="LEPSILON"> F  </i>
   <i type="logical" name="LRPA"> F  </i>
   <i type="logical" name="LNABLA"> F  </i>
   <i type="logical" name="LVEL"> F  </i>
   <i name="CSHIFT">      0.10000000</i>
   <i name="OMEGAMAX">     -1.00000000</i>
   <i name="DEG_THRESHOLD">      0.00200000</i>
   <i name="RTIME">     -0.10000000</i>
   <i name="WPLASMAI">      0.00000000</i>
   <v name="DFIELD">      0.00000000      0.00000000      0.00000000</v>
   <v name="WPLASMA">      0.00000000      0.00000000      0.00000000      0.00000000      0.00000000      0.00000000      0.00000000      0.00000000      0.00000000</v>
  </separator>
  <separator name="orbital magnetization" >
   <i type="logical" name="NUCIND"> F  </i>
   <v name="MAGPOS">      0.00000000      0.00000000      0.00000000</v>
   <i type="logical" name="LNICSALL"> T  </i>
   <i type="logical" name="ORBITALMAG"> F  </i>
   <i type="logical" name="LMAGBLOCH"> F  </i>
   <i type="logical" name="LCHIMAG"> F  </i>
   <i type="logical" name="LGAUGE"> T  </i>
   <i type="int" name="MAGATOM">     0</i>
   <v name="MAGDIPOL">      0.00000000      0.00000000      0.00000000</v>
   <v name="AVECCONST">      0.00000000      0.00000000      0.00000000</v>
  </separator>
  <separator name="response functions" >
   <i type="logical" name="LALL_IN_ONE"> F  </i>
   <i type="int" name="IALL_IN_ONE">    -1</i>
   <i type="int" name="NBANDS_WAVE">    -1</i>
   <i type="logical" name="LFINITE_TEMPERATURE"> F  </i>
   <i type="logical" name="LADDER"> F  </i>
   <i type="logical" name="LRPAFORCE"> F  </i>
   <i type="logical" name="LFXC"> F  </i>
   <i type="logical" name="LHARTREE"> T  </i>
   <i type="int" name="IBSE">     2</i>
   <v type="int" name="KPOINT">    -1     0     0     0</v>
   <i type="logical" name="LTCTC"> F  </i>
   <i type="logical" name="LTCTE"> F  </i>
   <i type="logical" name="LTETE"> F  </i>
   <i type="logical" name="LTRIPLET"> F  </i>
   <i type="logical" name="LFXCEPS"> F  </i>
   <i type="logical" name="LFXHEG"> F  </i>
   <i type="int" name="NATURALO">     2</i>
   <i type="logical" name="LHOLEGF"> F  </i>
   <i type="logical" name="L2ORDER"> F  </i>
   <i type="logical" name="LDMP1"> F  </i>
   <i type="logical" name="LMP2LT"> F  </i>
   <i type="logical" name="LSMP2LT"> F  </i>
   <i type="logical" name="LGWLF"> F  </i>
   <i name="ENCUTGW">     -1.60000002</i>
   <i name="ENCUTGWSOFT">     -1.60000002</i>
   <i name="ENCUTLF">     -1.00000000</i>
   <i type="logical" name="ESF_SPLINES"> F  </i>
   <i name="ESF_CONV">      0.01000000</i>
   <i type="int" name="ESF_NINTER">    15</i>
   <i type="int" name="LMAXMP2">    -1</i>
   <i name="SCISSOR">      0.00000000</i>
   <i type="int" name="NOMEGA">     0</i>
   <i type="int" name="NOMEGAR">     0</i>
   <i type="int" name="NBANDSGW">    -1</i>
   <i type="int" name="NBANDSO">    -1</i>
   <i type="int" name="NBANDSV">    -1</i>
   <i type="int" name="NELMGW">     1</i>
   <i type="int" name="NELMHF">     1</i>
   <i type="int" name="DIM">     3</i>
   <i type="int" name="IESPILON">     4</i>
   <i type="int" name="ANTIRES">     0</i>
   <i name="OMEGAMAX">    -30.00000000</i>
   <i name="OMEGAMIN">    -30.00000000</i>
   <i name="OMEGATL">   -200.00000000</i>
   <i type="int" name="OMEGAGRID">     0</i>
   <i name="CSHIFT">     -0.10000000</i>
   <i type="logical" name="LSELFENERGY"> F  </i>
   <i type="logical" name="LSPECTRAL"> F  </i>
   <i type="logical" name="LSPECTRALGW"> F  </i>
   <i type="logical" name="LSINGLES"> F  </i>
   <i type="logical" name="LFERMIGW"> F  </i>
   <i type="logical" name="ODDONLYGW"> F  </i>
   <i type="logical" name="EVENONLYGW"> F  </i>
   <i type="int" name="NKREDLFX">     1</i>
   <i type="int" name="NKREDLFY">     1</i>
   <i type="int" name="NKREDLFZ">     1</i>
   <i type="int" name="MAXMEM">  2800</i>
   <i type="int" name="TELESCOPE">     0</i>
   <i type="int" name="NTAUPAR">    -1</i>
   <i type="int" name="NOMEGAPAR">    -1</i>
   <i name="DAMP_NEWTON">      0.80000001</i>
   <i name="LAMBDA">      1.00000000</i>
  </separator>
  <separator name="External order field" >
   <i name="OFIELD_KAPPA">      0.00000000</i>
   <v name="OFIELD_K">      0.00000000      0.00000000      0.00000000</v>
   <i name="OFIELD_Q6_NEAR">      0.00000000</i>
   <i name="OFIELD_Q6_FAR">      0.00000000</i>
   <i name="OFIELD_A">      0.00000000</i>
  </separator>
  <separator name="optional k-points parameters" >
   <i type="int" name="KPOINTS_OPT_MODE">     1</i>
   <i type="logical" name="LKPOINTS_OPT"> F  </i>
  </separator>
 </parameters>
 <atominfo>
  <atoms>      50 </atoms>
  <types>       2 </types>
  <array name="atoms" >
   <dimension dim="1">ion</dimension>
   <field type="string">element</field>
   <field type="int">atomtype</field>
   <set>
    <rc><c>Nd</c><c>   1</c></rc>
    <rc><c>Nd</c><c>   1</c></rc>
    <rc><c>Nd</c><c>   1</c></rc>
    <rc><c>Nd</c><c>   1</c></rc>
    <rc><c>Nd</c><c>   1</c></rc>
    <rc><c>Nd</c><c>   1</c></rc>
    <rc><c>Zn</c><c>   2</c></rc>
    <rc><c>Zn</c><c>   2</c></rc>
    <rc><c>Zn</c><c>   2</c></rc>
    <rc><c>Zn</c><c>   2</c></rc>
    <rc><c>Zn</c><c>   2</c></rc>
    <rc><c>Zn</c><c>   2</c></rc>
    <rc><c>Zn</c><c>   2</c></rc>
    <rc><c>Zn</c><c>   2</c></rc>
    <rc><c>Zn</c><c>   2</c></rc>
    <rc><c>Zn</c><c>   2</c></rc>
    <rc><c>Zn</c><c>   2</c></rc>
    <rc><c>Zn</c><c>   2</c></rc>
    <rc><c>Zn</c><c>   2</c></rc>
    <rc><c>Zn</c><c>   2</c></rc>
    <rc><c>Zn</c><c>   2</c></rc>
    <rc><c>Zn</c><c>   2</c></rc>
    <rc><c>Zn</c><c>   2</c></rc>
    <rc><c>Zn</c><c>   2</c></rc>
    <rc><c>Zn</c><c>   2</c></rc>
    <rc><c>Zn</c><c>   2</c></rc>
    <rc><c>Zn</c><c>   2</c></rc>
    <rc><c>Zn</c><c>   2</c></rc>
    <rc><c>Zn</c><c>   2</c></rc>
    <rc><c>Zn</c><c>   2</c></rc>
    <rc><c>Zn</c><c>   2</c></rc>
    <rc><c>Zn</c><c>   2</c></rc>
    <rc><c>Zn</c><c>   2</c></rc>
    <rc><c>Zn</c><c>   2</c></rc>
    <rc><c>Zn</c><c>   2</c></rc>
    <rc><c>Zn</c><c>   2</c></rc>
    <rc><c>Zn</c><c>   2</c></rc>
    <rc><c>Zn</c><c>   2</c></rc>
    <rc><c>Zn</c><c>   2</c></rc>
    <rc><c>Zn</c><c>   2</c></rc>
    <rc><c>Zn</c><c>   2</c></rc>
    <rc><c>Zn</c><c>   2</c></rc>
    <rc><c>Zn</c><c>   2</c></rc>
    <rc><c>Zn</c><c>   2</c></rc>
    <rc><c>Zn</c><c>   2</c></rc>
    <rc><c>Zn</c><c>   2</c></rc>
    <rc><c>Zn</c><c>   2</c></rc>
    <rc><c>Zn</c><c>   2</c></rc>
    <rc><c>Zn</c><c>   2</c></rc>
    <rc><c>Zn</c><c>   2</c></rc>
   </set>
  </array>
  <array name="atomtypes" >
   <dimension dim="1">type</dimension>
   <field type="int">atomspertype</field>
   <field type="string">element</field>
   <field>mass</field>
   <field>valence</field>
   <field type="string">pseudopotential</field>
   <set>
    <rc><c>   6</c><c>Nd</c><c>    144.24000000</c><c>     11.00000000</c><c>  PAW_PBE Nd_3 06Sep2000                </c></rc>
    <rc><c>  44</c><c>Zn</c><c>     65.39000000</c><c>     12.00000000</c><c>  PAW_PBE Zn 06Sep2000                  </c></rc>
   </set>
  </array>
 </atominfo>
 <structure name="initialpos" >
  <crystal>
   <varray name="basis" >
    <v>       6.21473442      -6.21048966       0.00000000 </v>
    <v>       6.21473442       6.21048966       0.00000000 </v>
    <v>      -6.20759339       0.00000000      10.52193708 </v>
   </varray>
   <i name="volume">    812.22081223 </i>
   <varray name="rec_basis" >
    <v>       0.08045396      -0.08050895       0.04746516 </v>
    <v>       0.08045396       0.08050895       0.04746516 </v>
    <v>       0.00000000       0.00000000       0.09503953 </v>
   </varray>
  </crystal>
  <varray name="positions" >
   <v>       0.49633264       0.74641675       0.49256338 </v>
   <v>       0.74641675       0.49633264       0.99256338 </v>
   <v>       0.50366736       0.25358325       0.50743662 </v>
   <v>       0.25358325       0.50366736       0.00743662 </v>
   <v>       0.12458357       0.87541643       0.75000000 </v>
   <v>       0.87541643       0.12458357       0.25000000 </v>
   <v>       0.42127311       0.19601429       0.87762996 </v>
   <v>       0.42088890       0.68218713       0.87713375 </v>
   <v>       0.19601429       0.42127311       0.37762996 </v>
   <v>       0.19616171       0.95587929       0.37746844 </v>
   <v>       0.95587929       0.19616171       0.87746844 </v>
   <v>       0.95617808       0.68255312       0.87730227 </v>
   <v>       0.68218713       0.42088890       0.37713375 </v>
   <v>       0.68255312       0.95617808       0.37730227 </v>
   <v>       0.57872689       0.80398571       0.12237004 </v>
   <v>       0.57911110       0.31781287       0.12286625 </v>
   <v>       0.80398571       0.57872689       0.62237004 </v>
   <v>       0.80383829       0.04412071       0.62253156 </v>
   <v>       0.04412071       0.80383829       0.12253156 </v>
   <v>       0.04382192       0.31744688       0.12269773 </v>
   <v>       0.31781287       0.57911110       0.62286625 </v>
   <v>       0.31744688       0.04382192       0.62269773 </v>
   <v>       0.14833651       0.62243014       0.24626893 </v>
   <v>       0.62243014       0.14833651       0.74626893 </v>
   <v>       0.62264375       0.59770342       0.74587864 </v>
   <v>       0.59770342       0.62264375       0.24587864 </v>
   <v>       0.85166349       0.37756986       0.75373107 </v>
   <v>       0.37756986       0.85166349       0.25373107 </v>
   <v>       0.37735625       0.40229658       0.25412136 </v>
   <v>       0.40229658       0.37735625       0.75412136 </v>
   <v>       0.48626256       0.88360902       0.76689417 </v>
   <v>       0.88360902       0.48626256       0.26689417 </v>
   <v>       0.88410156       0.77931832       0.26706839 </v>
   <v>       0.77931832       0.88410156       0.76706839 </v>
   <v>       0.51373744       0.11639098       0.23310583 </v>
   <v>       0.11639098       0.51373744       0.73310583 </v>
   <v>       0.11589844       0.22068168       0.73293161 </v>
   <v>       0.22068168       0.11589844       0.23293161 </v>
   <v>       0.83507999       0.73608582       0.47246741 </v>
   <v>       0.73608582       0.83507999       0.97246741 </v>
   <v>       0.73623889       0.13726169       0.97259611 </v>
   <v>       0.13726169       0.73623889       0.47259611 </v>
   <v>       0.16492001       0.26391418       0.52753259 </v>
   <v>       0.26391418       0.16492001       0.02753259 </v>
   <v>       0.26376111       0.86273831       0.02740389 </v>
   <v>       0.86273831       0.26376111       0.52740389 </v>
   <v>       0.50000000       0.00000000       0.00000000 </v>
   <v>       0.00000000       0.50000000       0.50000000 </v>
   <v>       0.00000000       0.00000000       0.50000000 </v>
   <v>       0.00000000       0.00000000       0.00000000 </v>
  </varray>
 </structure>
 <calculation>
  <scstep>
   <time name="total">    5.83    6.04</time>
   <energy>
    <i name="alphaZ">   5311.14456791 </i>
    <i name="ewald"> -55847.23549167 </i>
    <i name="hartreedc"> -25065.73648305 </i>
    <i name="XCdc">   2687.88038805 </i>
    <i name="pawpsdc">  68352.41928698 </i>
    <i name="pawaedc">-112349.05241458 </i>
    <i name="eentropy">     -0.01919226 </i>
    <i name="bandstr">   2006.66529970 </i>
    <i name="atom">  82470.30389538 </i>
    <i name="e_fr_energy"> -32433.63014356 </i>
    <i name="e_wo_entrp"> -32433.61095129 </i>
    <i name="e_0_energy"> -32433.62054743 </i>
   </energy>
  </scstep>
  <scstep>
   <time name="total">    6.36    6.41</time>
   <energy>
    <i name="e_fr_energy"> -37479.20092987 </i>
    <i name="e_wo_entrp"> -37479.15021492 </i>
    <i name="e_0_energy"> -37479.17557240 </i>
   </energy>
  </scstep>
  <scstep>
   <time name="total">    7.90    7.94</time>
   <energy>
    <i name="e_fr_energy"> -39127.79924751 </i>
    <i name="e_wo_entrp"> -39127.74305291 </i>
    <i name="e_0_energy"> -39127.77115021 </i>
   </energy>
  </scstep>
  <scstep>
   <time name="total">    8.13    8.19</time>
   <energy>
    <i name="e_fr_energy"> -39436.84895368 </i>
    <i name="e_wo_entrp"> -39436.75948049 </i>
    <i name="e_0_energy"> -39436.80421709 </i>
   </energy>
  </scstep>
  <scstep>
   <time name="total"> 1465.57 1473.42</time>
   <energy>
    <i name="e_fr_energy">    -81.53963412 </i>
    <i name="e_wo_entrp">    -81.47395182 </i>
    <i name="e_0_energy">    -81.50679297 </i>
   </energy>
  </scstep>
  <scstep>
   <time name="total"> 1455.53 1464.18</time>
   <energy>
    <i name="e_fr_energy">    -75.48342861 </i>
    <i name="e_wo_entrp">    -75.41774631 </i>
    <i name="e_0_energy">    -75.45058746 </i>
   </energy>
  </scstep>
  <scstep>
   <time name="total"> 1453.83 1463.93</time>
   <energy>
    <i name="e_fr_energy">    -97.56851818 </i>
    <i name="e_wo_entrp">    -97.50620490 </i>
    <i name="e_0_energy">    -97.53736154 </i>
   </energy>
  </scstep>
  <scstep>
   <time name="total"> 1452.97 1464.72</time>
   <energy>
    <i name="e_fr_energy">   -103.43359426 </i>
    <i name="e_wo_entrp">   -103.36728509 </i>
    <i name="e_0_energy">   -103.40043968 </i>
   </energy>
  </scstep>
  <scstep>
