       N       E                     dE             d eps       ncg     rms           ort
DAV:   1    -0.385537956195E+05   -0.38554E+05   -0.57329E+05  4592   0.216E+03  
DAV:   2    -0.594394970849E+05   -0.20886E+05   -0.19313E+05  4592   0.579E+02  
DAV:   3    -0.656953156888E+05   -0.62558E+04   -0.58606E+04  4592   0.269E+02  
DAV:   4    -0.666717454738E+05   -0.97643E+03   -0.94903E+03  4592   0.121E+02  
DAV:   5    -0.129591562099E+04    0.65376E+05   -0.21999E+03  4592   0.103E+02  
SDA:   6    -0.680550933544E+03    0.61536E+03   -0.94615E+03  4592   0.237E+04   0.000E+00
DMP:   7    -0.113580905578E+04   -0.45526E+03   -0.40385E+02  4592   0.148E+03  -0.123E+03
DMP:   8    -0.111772752164E+04    0.18082E+02   -0.10050E+03  4592   0.325E+03  -0.193E+03
DMP:   9    -0.118176604536E+04   -0.64039E+02   -0.33285E+02  4592   0.566E+02   0.696E+02
DMP:  10    -0.119524977095E+04   -0.13484E+02   -0.77490E+01  4592   0.252E+02  -0.153E+02
DMP:  11    -0.119982290563E+04   -0.45731E+01   -0.65801E+01  4592   0.150E+02   0.377E+01
DMP:  12    -0.120307134391E+04   -0.32484E+01   -0.89037E+00  4592   0.230E+01  -0.185E+00
DMP:  13    -0.120332611075E+04   -0.25477E+00   -0.73908E+00  4592   0.222E+01  -0.962E+00
DMP:  14    -0.120378864725E+04   -0.46254E+00   -0.25790E+00  4592   0.469E+00   0.461E+00
DMP:  15    -0.120390058526E+04   -0.11194E+00   -0.67276E-01  4592   0.201E+00  -0.864E-01
DMP:  16    -0.120394340212E+04   -0.42817E-01   -0.63959E-01  4592   0.142E+00   0.457E-01
DMP:  17    -0.120398188251E+04   -0.38480E-01   -0.17044E-01  4592   0.302E-01   0.326E-01
DMP:  18    -0.120399171192E+04   -0.98294E-02   -0.10059E-01  4592   0.226E-01   0.656E-02
DMP:  19    -0.120399926943E+04   -0.75575E-02   -0.51478E-02  4592   0.805E-02   0.126E-01
DMP:  20    -0.120400290923E+04   -0.36398E-02   -0.22708E-02  4592   0.365E-02   0.530E-02
DMP:  21    -0.120400474846E+04   -0.18392E-02   -0.14636E-02  4592   0.232E-02   0.351E-02
DMP:  22    -0.120400592063E+04   -0.11722E-02   -0.75968E-03  4592   0.106E-02   0.221E-02
DMP:  23    -0.120400656670E+04   -0.64607E-03   -0.48167E-03  4592   0.694E-03   0.134E-02
DMP:  24    -0.120400699814E+04   -0.43144E-03   -0.31396E-03  4592   0.422E-03   0.951E-03
DMP:  25    -0.120400728399E+04   -0.28585E-03   -0.21401E-03  4592   0.290E-03   0.641E-03
DMP:  26    -0.120400748446E+04   -0.20047E-03   -0.16201E-03  4592   0.227E-03   0.465E-03
DMP:  27    -0.120400763753E+04   -0.15307E-03   -0.12915E-03  4592   0.186E-03   0.359E-03
DMP:  28    -0.120400776098E+04   -0.12344E-03   -0.10810E-03  4592   0.158E-03   0.293E-03
DMP:  29    -0.120400786500E+04   -0.10403E-03   -0.90478E-04  4592   0.131E-03   0.249E-03
DMP:  30    -0.120400795237E+04   -0.87365E-04   -0.76566E-04  4592   0.111E-03   0.210E-03
DMP:  31    -0.120400802649E+04   -0.74120E-04   -0.67522E-04  4592   0.100E-03   0.179E-03
DMP:  32    -0.120400809190E+04   -0.65415E-04   -0.61120E-04  4592   0.924E-04   0.158E-03
DMP:  33    -0.120400815113E+04   -0.59228E-04   -0.56039E-04  4592   0.854E-04   0.143E-03
DMP:  34    -0.120400820541E+04   -0.54284E-04   -0.51221E-04  4592   0.780E-04   0.131E-03
DMP:  35    -0.120400825498E+04   -0.49570E-04   -0.47338E-04  4592   0.726E-04   0.120E-03
DMP:  36    -0.120400830071E+04   -0.45723E-04   -0.44030E-04  4592   0.680E-04   0.110E-03
DMP:  37    -0.120400834314E+04   -0.42429E-04   -0.40901E-04  4592   0.633E-04   0.102E-03
DMP:  38    -0.120400838243E+04   -0.39297E-04   -0.37744E-04  4592   0.584E-04   0.941E-04
DMP:  39    -0.120400841856E+04   -0.36131E-04   -0.34451E-04  4592   0.532E-04   0.862E-04
DMP:  40    -0.120400845141E+04   -0.32845E-04   -0.30982E-04  4592   0.477E-04   0.780E-04
DMP:  41    -0.120400848081E+04   -0.29397E-04   -0.27371E-04  4592   0.419E-04   0.694E-04
DMP:  42    -0.120400850664E+04   -0.25834E-04   -0.23472E-04  4592   0.355E-04   0.606E-04
DMP:  43    -0.120400852858E+04   -0.21941E-04   -0.20254E-04  4592   0.312E-04   0.509E-04
DMP:  44    -0.120400854625E+04   -0.17669E-04   -0.22031E-04  4592   0.408E-04   0.375E-04
DMP:  45    -0.120400855185E+04   -0.56025E-05   -0.83411E-04  4592   0.219E-03  -0.269E-04
DMP:  46    -0.120400849359E+04    0.58263E-04   -0.56322E-03  4592   0.160E-02  -0.501E-03
DMP:  47    -0.120400807116E+04    0.42243E-03   -0.32330E-02  4592   0.943E-02  -0.352E-02
DMP:  48    -0.120400616261E+04    0.19086E-02   -0.13857E-01  4592   0.414E-01  -0.176E-01
DMP:  49    -0.120400008164E+04    0.60810E-02   -0.43964E-01  4592   0.135E+00  -0.650E-01
DMP:  50    -0.120398654355E+04    0.13538E-01   -0.10496E+00  4592   0.330E+00  -0.178E+00
DMP:  51    -0.120396359119E+04    0.22952E-01   -0.20438E+00  4592   0.655E+00  -0.377E+00
DMP:  52    -0.120392700973E+04    0.36581E-01   -0.36825E+00  4592   0.119E+01  -0.693E+00
DMP:  53    -0.120386268335E+04    0.64326E-01   -0.65235E+00  4592   0.210E+01  -0.124E+01
DMP:  54    -0.120376445332E+04    0.98230E-01   -0.10544E+01  4592   0.344E+01  -0.210E+01
DMP:  55    -0.120364505276E+04    0.11940E+00   -0.15676E+01  4592   0.514E+01  -0.319E+01
DMP:  56    -0.120345088603E+04    0.19417E+00   -0.24211E+01  4592   0.791E+01  -0.486E+01
DMP:  57    -0.120314657268E+04    0.30431E+00   -0.37141E+01  4592   0.122E+02  -0.753E+01
DMP:  58    -0.120278198522E+04    0.36459E+00   -0.49938E+01  4592   0.167E+02  -0.111E+02
DMP:  59    -0.120257764690E+04    0.20434E+00   -0.55405E+01  4592   0.190E+02  -0.134E+02
DMP:  60    -0.120266063588E+04   -0.82989E-01   -0.50987E+01  4592   0.179E+02  -0.134E+02
DMP:  61    -0.120281782555E+04   -0.15719E+00   -0.42794E+01  4592   0.153E+02  -0.120E+02
DMP:  62    -0.120320940922E+04   -0.39158E+00   -0.28904E+01  4592   0.105E+02  -0.867E+01
DMP:  63    -0.120344700091E+04   -0.23759E+00   -0.18735E+01  4592   0.701E+01  -0.608E+01
DMP:  64    -0.120374667812E+04   -0.29968E+00   -0.91265E+00  4592   0.349E+01  -0.316E+01
DMP:  65    -0.120385593369E+04   -0.10926E+00   -0.48822E+00  4592   0.189E+01  -0.174E+01
DMP:  66    -0.120395130465E+04   -0.95371E-01   -0.19260E+00  4592   0.764E+00  -0.741E+00
DMP:  67    -0.120398061506E+04   -0.29310E-01   -0.85257E-01  4592   0.341E+00  -0.335E+00
DMP:  68    -0.120400043153E+04   -0.19816E-01   -0.25389E-01  4592   0.107E+00  -0.114E+00
DMP:  69    -0.120400582597E+04   -0.53944E-02   -0.77810E-02  4592   0.334E-01  -0.364E-01
DMP:  70    -0.120400803233E+04   -0.22064E-02   -0.15313E-02  4592   0.706E-02  -0.846E-02
DMP:  71    -0.120400846536E+04   -0.43304E-03   -0.40161E-03  4592   0.164E-02  -0.166E-02
DMP:  72    -0.120400852696E+04   -0.61600E-04   -0.22636E-03  4592   0.829E-03  -0.688E-03
DMP:  73    -0.120400856502E+04   -0.38061E-04   -0.12585E-03  4592   0.463E-03  -0.388E-03
DMP:  74    -0.120400857701E+04   -0.11983E-04   -0.69883E-04  4592   0.268E-03  -0.245E-03
DMP:  75    -0.120400859387E+04   -0.16861E-04   -0.25091E-04  4592   0.101E-03  -0.993E-04
DMP:  76    -0.120400859736E+04   -0.34936E-05   -0.92643E-05  4592   0.385E-04  -0.401E-04
   1 F= -.12040086E+04 E0= -.12040086E+04  d E =-.120401E+04  mag=     0.0000
       N       E                     dE             d eps       ncg     rms           ort
SDA:   1     0.178002532446E+04    0.29840E+04   -0.84341E+04  4592   0.211E+05   0.000E+00
DMP:   2    -0.100371024356E+03   -0.18804E+04   -0.15631E+04  4592   0.514E+04  -0.323E+04
DMP:   3    -0.397868596263E+03   -0.29750E+03   -0.80907E+03  4592   0.251E+04  -0.126E+04
DMP:   4    -0.807938542555E+03   -0.41007E+03   -0.40520E+03  4592   0.923E+03   0.235E+03
DMP:   5    -0.897484341553E+03   -0.89546E+02   -0.32777E+04  4592   0.917E+04  -0.256E+04
DMP:   6    -0.104361834824E+04   -0.14613E+03   -0.19718E+03  4592   0.578E+03  -0.223E+03
DMP:   7    -0.113887429744E+04   -0.95256E+02   -0.43145E+02  4592   0.107E+03   0.298E+01
DMP:   8    -0.116296847049E+04   -0.24094E+02   -0.20965E+02  4592   0.473E+02   0.134E+02
DMP:   9    -0.117287449099E+04   -0.99060E+01   -0.60781E+01  4592   0.163E+02  -0.279E+01
DMP:  10    -0.117575165396E+04   -0.28772E+01   -0.17653E+01  4592   0.467E+01  -0.673E+00
DMP:  11    -0.117647996680E+04   -0.72831E+00   -0.10651E+01  4592   0.295E+01  -0.749E+00
DMP:  12    -0.117708668629E+04   -0.60672E+00   -0.30150E+00  4592   0.615E+00   0.362E+00
DMP:  13    -0.117719490138E+04   -0.10822E+00   -0.12766E+00  4592   0.402E+00  -0.216E+00
DMP:  14    -0.117726675419E+04   -0.71853E-01   -0.50329E-01  4592   0.110E+00   0.406E-01
DMP:  15    -0.117729046142E+04   -0.23707E-01   -0.22618E-01  4592   0.593E-01  -0.715E-02
DMP:  16    -0.117730291811E+04   -0.12457E-01   -0.68615E-02  4592   0.150E-01   0.573E-02
DMP:  17    -0.117730592281E+04   -0.30047E-02   -0.30566E-02  4592   0.845E-02  -0.211E-02
DMP:  18    -0.117730767691E+04   -0.17541E-02   -0.11392E-02  4592   0.242E-02   0.112E-02
DMP:  19    -0.117730827640E+04   -0.59950E-03   -0.57314E-03  4592   0.138E-02   0.146E-03
DMP:  20    -0.117730862603E+04   -0.34962E-03   -0.20189E-03  4592   0.383E-03   0.319E-03
DMP:  21    -0.117730873867E+04   -0.11265E-03   -0.90471E-04  4592   0.204E-03   0.590E-04
DMP:  22    -0.117730880057E+04   -0.61900E-04   -0.41057E-04  4592   0.723E-04   0.794E-04
DMP:  23    -0.117730882918E+04   -0.28608E-04   -0.22371E-04  4592   0.414E-04   0.380E-04
DMP:  24    -0.117730884628E+04   -0.17094E-04   -0.11751E-04  4592   0.181E-04   0.295E-04
DMP:  25    -0.117730885551E+04   -0.92298E-05   -0.69990E-05  4592   0.111E-04   0.169E-04
   2 F= -.11773089E+04 E0= -.11773089E+04  d E =0.266997E+02  mag=     0.0000
       N       E                     dE             d eps       ncg     rms           ort
SDA:   1     0.181531462769E+04    0.29926E+04   -0.50493E+04  4592   0.126E+05   0.000E+00
DMP:   2     0.129295253763E+04   -0.52236E+03   -0.73071E+04  4592   0.223E+05  -0.105E+05
DMP:   3     0.108566241408E+04   -0.20729E+03   -0.77592E+04  4592   0.228E+05  -0.888E+04
DMP:   4    -0.595294593920E+03   -0.16810E+04   -0.56771E+03  4592   0.173E+04  -0.826E+03
DMP:   5    -0.686805759897E+03   -0.91511E+02   -0.75163E+03  4592   0.212E+04  -0.643E+03
DMP:   6    -0.103374148317E+04   -0.34694E+03   -0.20295E+03  4592   0.430E+03   0.203E+03
DMP:   7    -0.114717093962E+04   -0.11343E+03   -0.70256E+02  4592   0.133E+03   0.111E+03
DMP:   8    -0.118420466506E+04   -0.37034E+02   -0.27806E+02  4592   0.662E+02   0.880E+01
DMP:   9    -0.120146566244E+04   -0.17261E+02   -0.12022E+02  4592   0.236E+02   0.168E+02
DMP:  10    -0.120758000196E+04   -0.61143E+01   -0.26689E+01  4592   0.630E+01   0.966E+00
DMP:  11    -0.120901336653E+04   -0.14334E+01   -0.15018E+01  4592   0.357E+01   0.476E+00
DMP:  12    -0.120993696939E+04   -0.92360E+00   -0.56675E+00  4592   0.109E+01   0.852E+00
DMP:  13    -0.121025011151E+04   -0.31314E+00   -0.19471E+00  4592   0.432E+00   0.145E+00
DMP:  14    -0.121036562557E+04   -0.11551E+00   -0.87375E-01  4592   0.184E+00   0.907E-01
DMP:  15    -0.121041942470E+04   -0.53799E-01   -0.38207E-01  4592   0.762E-01   0.506E-01
DMP:  16    -0.121044407799E+04   -0.24653E-01   -0.16401E-01  4592   0.304E-01   0.277E-01
DMP:  17    -0.121045471961E+04   -0.10642E-01   -0.67907E-02  4592   0.123E-01   0.122E-01
DMP:  18    -0.121045971174E+04   -0.49921E-02   -0.38213E-02  4592   0.651E-02   0.796E-02
DMP:  19    -0.121046270379E+04   -0.29920E-02   -0.20284E-02  4592   0.301E-02   0.538E-02
DMP:  20    -0.121046435176E+04   -0.16480E-02   -0.11665E-02  4592   0.171E-02   0.316E-02
DMP:  21    -0.121046535039E+04   -0.99863E-03   -0.73449E-03  4592   0.104E-02   0.207E-02
DMP:  22    -0.121046599386E+04   -0.64347E-03   -0.46445E-03  4592   0.634E-03   0.138E-02
DMP:  23    -0.121046641411E+04   -0.42024E-03   -0.31399E-03  4592   0.427E-03   0.937E-03
DMP:  24    -0.121046670495E+04   -0.29084E-03   -0.22170E-03  4592   0.300E-03   0.665E-03
DMP:  25    -0.121046691322E+04   -0.20827E-03   -0.16282E-03  4592   0.222E-03   0.484E-03
DMP:  26    -0.121046706790E+04   -0.15468E-03   -0.12465E-03  4592   0.172E-03   0.365E-03
DMP:  27    -0.121046718721E+04   -0.11931E-03   -0.98904E-04  4592   0.139E-03   0.284E-03
DMP:  28    -0.121046728241E+04   -0.95197E-04   -0.80822E-04  4592   0.115E-03   0.228E-03
DMP:  29    -0.121046736056E+04   -0.78155E-04   -0.67507E-04  4592   0.969E-04   0.188E-03
DMP:  30    -0.121046742605E+04   -0.65490E-04   -0.57149E-04  4592   0.825E-04   0.158E-03
DMP:  31    -0.121046748163E+04   -0.55573E-04   -0.49061E-04  4592   0.713E-04   0.135E-03
DMP:  32    -0.121046752942E+04   -0.47791E-04   -0.42919E-04  4592   0.630E-04   0.116E-03
DMP:  33    -0.121046757128E+04   -0.41860E-04   -0.38402E-04  4592   0.572E-04   0.102E-03
DMP:  34    -0.121046760876E+04   -0.37480E-04   -0.34981E-04  4592   0.527E-04   0.911E-04
DMP:  35    -0.121046764290E+04   -0.34146E-04   -0.32183E-04  4592   0.488E-04   0.830E-04
DMP:  36    -0.121046767430E+04   -0.31397E-04   -0.29889E-04  4592   0.456E-04   0.762E-04
DMP:  37    -0.121046770335E+04   -0.29053E-04   -0.28374E-04  4592   0.441E-04   0.703E-04
DMP:  38    -0.121046773018E+04   -0.26825E-04   -0.29554E-04  4592   0.499E-04   0.629E-04
DMP:  39    -0.121046775349E+04   -0.23311E-04   -0.42897E-04  4592   0.911E-04   0.424E-04
DMP:  40    -0.121046776708E+04   -0.13589E-04   -0.10101E-03  4592   0.268E-03  -0.395E-04
