 vasp.6.5.1 10Mar25 (build May 05 2025 13:45:00) complex                        
  
 executed on             LinuxIFC date 2026.04.28  12:50:42
 running  112 mpi-ranks, on    1 nodes
 distrk:  each k-point on   28 cores,    4 groups
 distr:  one band on NCORE=   1 cores,   28 groups


--------------------------------------------------------------------------------------------------------


 INCAR:
   ALGO = Damped
   PREC = Normal
   LREAL = Auto
   EDIFF = 1e-05
   ENCUT = 400.0
   LASPH = True
   NELM = 100
   ISIF = 2
   IBRION = 2
   EDIFFG = -0.03
   NSW = 300
   ISMEAR = 0
   SIGMA = 0.1
   ISPIN = 2
   LWAVE = True
   LCHARG = False
   LORBIT = 10
   LHFCALC = True
   PRECFOCK = Fast
   AEXX = 0.36
   HFSCREEN = 0.2
   TIME = 0.4
   NELECT = 1736.0
   KPAR = 4

 POTCAR:    PAW_PBE Zn 06Sep2000                  
 POTCAR:    PAW_PBE O 08Apr2002                   
 POTCAR:    PAW_PBE Nd_3 06Sep2000                
 -----------------------------------------------------------------------------
|                                                                             |
|           W    W    AA    RRRRR   N    N  II  N    N   GGGG   !!!           |
|           W    W   A  A   R    R  NN   N  II  NN   N  G    G  !!!           |
|           W    W  A    A  R    R  N N  N  II  N N  N  G       !!!           |
|           W WW W  AAAAAA  RRRRR   N  N N  II  N  N N  G  GGG   !            |
|           WW  WW  A    A  R   R   N   NN  II  N   NN  G    G                |
|           W    W  A    A  R    R  N    N  II  N    N   GGGG   !!!           |
|                                                                             |
|     You requested a magnetic or noncollinear calculation, but did not       |
|     specify the initial magnetic moment with the MAGMOM tag. Note that      |
|     a default of 1 will be used for all atoms. This ferromagnetic setup     |
|     may break the symmetry of the crystal, in particular it may rule        |
|     out finding an antiferromagnetic solution. Thence, we recommend         |
|     setting the initial magnetic moment manually or verifying carefully     |
|     that this magnetic setup is desired.                                    |
|                                                                             |
 -----------------------------------------------------------------------------

 -----------------------------------------------------------------------------
|                                                                             |
|           W    W    AA    RRRRR   N    N  II  N    N   GGGG   !!!           |
|           W    W   A  A   R    R  NN   N  II  NN   N  G    G  !!!           |
|           W    W  A    A  R    R  N N  N  II  N N  N  G       !!!           |
|           W WW W  AAAAAA  RRRRR   N  N N  II  N  N N  G  GGG   !            |
|           WW  WW  A    A  R   R   N   NN  II  N   NN  G    G                |
|           W    W  A    A  R    R  N    N  II  N    N   GGGG   !!!           |
|                                                                             |
|     For optimal performance we recommend to set                             |
|       NCORE = 2 up to number-of-cores-per-socket                            |
|     NCORE specifies how many cores store one orbital (NPAR=cpu/NCORE).      |
|     This setting can greatly improve the performance of VASP for DFT.       |
|     The default, NCORE=1 might be grossly inefficient on modern             |
|     multi-core architectures or massively parallel machines. Do your        |
|     own testing! More info at https://www.vasp.at/wiki/index.php/NCORE      |
|     Unfortunately you need to use the default for GW and RPA                |
|     calculations (for HF NCORE is supported but not extensively tested      |
|     yet).                                                                   |
|                                                                             |
 -----------------------------------------------------------------------------

 POTCAR:    PAW_PBE Zn 06Sep2000                  
   SHA256 =  501fddbd8274dd8e9725d4f3de27861d7f1e553a7e18441bc79fed8f346e7f23 Zn/POTCAR             
   COPYR  = (c) Copyright 06Sep2000 Georg Kresse                                                    
   COPYR  = This file is part of the software VASP. Any use, copying, and all other rights are regul
   COPYR  = If you do not have a valid VASP license, you may not use, copy or distribute this file. 
   VRHFIN =Zn: d10 p2                                                                               
   LEXCH  = PE                                                                                      
   EATOM  =  1748.8345 eV,  128.5357 Ry                                                             
                                                                                                    
   TITEL  = PAW_PBE Zn 06Sep2000                                                                    
   LULTRA =        F    use ultrasoft PP ?                                                          
   IUNSCR =        1    unscreen: 0-lin 1-nonlin 2-no                                               
   RPACOR =    2.000    partial core radius                                                         
   POMASS =   65.390; ZVAL   =   12.000    mass and valenz                                          
   RCORE  =    2.300    outmost cutoff radius                                                       
   RWIGS  =    2.400; RWIGS  =    1.270    wigner-seitz radius (au A)                               
   ENMAX  =  276.723; ENMIN  =  207.542 eV                                                          
   RCLOC  =    1.828    cutoff for local pot                                                        
   LCOR   =        T    correct aug charges                                                         
   LPAW   =        T    paw PP                                                                      
   EAUG   =  575.892                                                                                
   DEXC   =    0.000                                                                                
   RMAX   =    2.347    core radius for proj-oper                                                   
   RAUG   =    1.300    factor for augmentation sphere                                              
   RDEP   =    2.324    radius for radial grids                                                     
   RDEPT  =    1.788    core radius for aug-charge                                                  
                                                                                                    
   Atomic configuration                                                                             
    9 entries                                                                                       
     n  l   j            E        occ.                                                              
     1  0  0.50     -9524.6913   2.0000                                                             
     2  0  0.50     -1158.1882   2.0000                                                             
     2  1  1.50     -1003.8506   6.0000                                                             
     3  0  0.50      -129.2194   2.0000                                                             
     3  1  1.50       -83.3890   6.0000                                                             
     3  2  2.50       -10.1410  10.0000                                                             
     4  0  0.50        -5.9785   2.0000                                                             
     4  1  0.50        -4.0817   0.0000                                                             
     4  3  2.50        -1.3606   0.0000                                                             
   Description                                                                                      
     l       E           TYP  RCUT    TYP  RCUT                                                     
     2    -10.1410010     23  2.300                                                                 
     2    -11.5015836     23  2.300                                                                 
     0     -5.9785163     23  2.300                                                                 
     0      1.1858015     23  2.300                                                                 
     1     -2.7211652     23  2.300                                                                 
     1     13.2444212     23  2.300                                                                 
  local pseudopotential read in
  partial core-charges read in
  partial kinetic energy density read in
  atomic valenz-charges read in
  non local Contribution for L=           2  read in
    real space projection operators read in
  non local Contribution for L=           2  read in
    real space projection operators read in
  non local Contribution for L=           0  read in
    real space projection operators read in
  non local Contribution for L=           0  read in
    real space projection operators read in
  non local Contribution for L=           1  read in
    real space projection operators read in
  non local Contribution for L=           1  read in
    real space projection operators read in
    PAW grid and wavefunctions read in
 
   number of l-projection  operators is LMAX  =           6
   number of lm-projection operators is LMMAX =          18
 
 POTCAR:    PAW_PBE O 08Apr2002                   
   SHA256 =  818f92134a0a090dccd8ba1447fa70422a3b330e708bb4f08108d8ae51209ddf O/POTCAR              
   COPYR  = (c) Copyright 08Apr2002 Georg Kresse                                                    
   COPYR  = This file is part of the software VASP. Any use, copying, and all other rights are regul
   COPYR  = If you do not have a valid VASP license, you may not use, copy or distribute this file. 
   VRHFIN =O: s2p4                                                                                  
   LEXCH  = PE                                                                                      
   EATOM  =   432.3788 eV,   31.7789 Ry                                                             
                                                                                                    
   TITEL  = PAW_PBE O 08Apr2002                                                                     
   LULTRA =        F    use ultrasoft PP ?                                                          
   IUNSCR =        1    unscreen: 0-lin 1-nonlin 2-no                                               
   RPACOR =    1.200    partial core radius                                                         
   POMASS =   16.000; ZVAL   =    6.000    mass and valenz                                          
   RCORE  =    1.520    outmost cutoff radius                                                       
   RWIGS  =    1.550; RWIGS  =    0.820    wigner-seitz radius (au A)                               
   ENMAX  =  400.000; ENMIN  =  300.000 eV                                                          
   ICORE  =        2    local potential                                                             
   LCOR   =        T    correct aug charges                                                         
   LPAW   =        T    paw PP                                                                      
   EAUG   =  605.392                                                                                
   DEXC   =    0.000                                                                                
   RMAX   =    1.553    core radius for proj-oper                                                   
   RAUG   =    1.300    factor for augmentation sphere                                              
   RDEP   =    1.550    radius for radial grids                                                     
   RDEPT  =    1.329    core radius for aug-charge                                                  
                                                                                                    
   Atomic configuration                                                                             
    4 entries                                                                                       
     n  l   j            E        occ.                                                              
     1  0  0.50      -514.6923   2.0000                                                             
     2  0  0.50       -23.9615   2.0000                                                             
     2  1  0.50        -9.0305   4.0000                                                             
     3  2  1.50        -9.5241   0.0000                                                             
   Description                                                                                      
     l       E           TYP  RCUT    TYP  RCUT                                                     
     0    -23.9615318     23  1.200                                                                 
     0     -9.5240782     23  1.200                                                                 
     1     -9.0304911     23  1.520                                                                 
     1      8.1634956     23  1.520                                                                 
     2     -9.5240782      7  1.500                                                                 
  local pseudopotential read in
  partial core-charges read in
  partial kinetic energy density read in
  kinetic energy density of atom read in
  atomic valenz-charges read in
  non local Contribution for L=           0  read in
    real space projection operators read in
  non local Contribution for L=           0  read in
    real space projection operators read in
  non local Contribution for L=           1  read in
    real space projection operators read in
  non local Contribution for L=           1  read in
    real space projection operators read in
    PAW grid and wavefunctions read in
 
   number of l-projection  operators is LMAX  =           4
   number of lm-projection operators is LMMAX =           8
 
 POTCAR:    PAW_PBE Nd_3 06Sep2000                
   SHA256 =  90782177844a5d17e05a83442c3981b109958f4399d5595472847236a982ac31 Nd_3/POTCAR           
   COPYR  = (c) Copyright 06Sep2000 Georg Kresse                                                    
   COPYR  = This file is part of the software VASP. Any use, copying, and all other rights are regul
   COPYR  = If you do not have a valid VASP license, you may not use, copy or distribute this file. 
   VRHFIN =Nd : [core=Xe4]                                                                          
   LEXCH  = PE                                                                                      
   EATOM  =   934.1494 eV,   68.6580 Ry                                                             
                                                                                                    
   TITEL  = PAW_PBE Nd_3 06Sep2000                                                                  
   LULTRA =        F    use ultrasoft PP ?                                                          
   IUNSCR =        1    unscreen: 0-lin 1-nonlin 2-no                                               
   RPACOR =    2.400    partial core radius                                                         
   POMASS =  144.240; ZVAL   =   11.000    mass and valenz                                          
   RCORE  =    2.800    outmost cutoff radius                                                       
   RWIGS  =    3.000; RWIGS  =    1.588    wigner-seitz radius (au A)                               
   ENMAX  =  182.619; ENMIN  =  136.964 eV                                                          
   RCLOC  =    2.418    cutoff for local pot                                                        
   LCOR   =        T    correct aug charges                                                         
   LPAW   =        T    paw PP                                                                      
   EAUG   =  299.021                                                                                
   DEXC   =    0.000                                                                                
   RMAX   =    2.866    core radius for proj-oper                                                   
   RAUG   =    1.300    factor for augmentation sphere                                              
   RDEP   =    2.838    radius for radial grids                                                     
   RDEPT  =    2.433    core radius for aug-charge                                                  
                                                                                                    
   Atomic configuration                                                                             
   14 entries                                                                                       
     n  l   j            E        occ.                                                              
     1  0  0.50    -43395.8286   2.0000                                                             
     2  0  0.50     -7023.8781   2.0000                                                             
     2  1  1.50     -6278.5294   6.0000                                                             
     3  0  0.50     -1529.8925   2.0000                                                             
     3  1  1.50     -1294.9660   6.0000                                                             
     3  2  2.50      -969.3626  10.0000                                                             
     4  0  0.50      -309.7145   2.0000                                                             
     4  1  1.50      -232.6371   6.0000                                                             
     4  2  2.50      -123.0912  10.0000                                                             
     4  3  2.50        -6.9199   3.0000                                                             
     5  0  0.50       -43.6910   2.0000                                                             
     6  0  0.50        -3.8688   2.0000                                                             
     5  1  1.50       -24.6661   6.0000                                                             
     5  2  2.50        -2.9249   1.0000                                                             
   Description                                                                                      
     l       E           TYP  RCUT    TYP  RCUT                                                     
     0    -43.6910211     23  2.800                                                                 
     0     -3.8687565     23  2.800                                                                 
     1    -24.6660554     23  2.800                                                                 
     1     13.6058260     23  2.800                                                                 
     2     -2.9249058     23  2.800                                                                 
     2      0.2001824     23  2.800                                                                 
  local pseudopotential read in
  partial core-charges read in
  partial kinetic energy density read in
  atomic valenz-charges read in
  non local Contribution for L=           0  read in
    real space projection operators read in
  non local Contribution for L=           0  read in
    real space projection operators read in
  non local Contribution for L=           1  read in
    real space projection operators read in
  non local Contribution for L=           1  read in
    real space projection operators read in
  non local Contribution for L=           2  read in
    real space projection operators read in
  non local Contribution for L=           2  read in
    real space projection operators read in
    PAW grid and wavefunctions read in
 
   number of l-projection  operators is LMAX  =           6
   number of lm-projection operators is LMMAX =          18
 
 Optimization of the real space projectors (new method)

 maximal supplied QI-value         = 16.25
 optimisation between [QCUT,QGAM] = [ 10.24, 20.48] = [ 29.35,117.42] Ry 
 Optimized for a Real-space Cutoff    1.38 Angstroem

   l    n(q)    QCUT    max X(q) W(low)/X(q) W(high)/X(q)  e(spline) 
   2      7    10.239    46.356    0.21E-03    0.48E-03    0.10E-06
   2      7    10.239    41.843    0.21E-03    0.50E-03    0.10E-06
   0      8    10.239    48.958    0.37E-03    0.79E-04    0.11E-06
   0      8    10.239    32.776    0.35E-03    0.73E-04    0.10E-06
   1      8    10.239    17.787    0.49E-03    0.70E-03    0.14E-06
   1      8    10.239    14.435    0.42E-03    0.61E-03    0.13E-06
 Optimization of the real space projectors (new method)

 maximal supplied QI-value         = 24.76
 optimisation between [QCUT,QGAM] = [ 10.15, 20.30] = [ 28.85,115.39] Ry 
 Optimized for a Real-space Cutoff    1.38 Angstroem

   l    n(q)    QCUT    max X(q) W(low)/X(q) W(high)/X(q)  e(spline) 
   0      8    10.150    20.381    0.22E-03    0.32E-03    0.29E-06
   0      8    10.150    15.268    0.23E-03    0.35E-03    0.30E-06
   1      8    10.150     5.964    0.46E-03    0.53E-03    0.21E-06
   1      8    10.150     5.382    0.38E-03    0.45E-03    0.19E-06
 Optimization of the real space projectors (new method)

 maximal supplied QI-value         = 13.42
 optimisation between [QCUT,QGAM] = [ 10.20, 20.39] = [ 29.12,116.47] Ry 
 Optimized for a Real-space Cutoff    1.60 Angstroem

   l    n(q)    QCUT    max X(q) W(low)/X(q) W(high)/X(q)  e(spline) 
   0     10    10.197    14.227    0.14E-04    0.35E-04    0.60E-07
   0     10    10.197     9.532    0.26E-04    0.76E-04    0.13E-06
   1      9    10.197     4.559    0.46E-04    0.39E-04    0.16E-07
   1      9    10.197     4.689    0.18E-03    0.19E-03    0.31E-06
   2      9    10.197    34.547    0.44E-03    0.22E-02    0.11E-05
   2      9    10.197    28.111    0.41E-03    0.20E-02    0.10E-05
  PAW_PBE Zn 06Sep2000                  :
 energy of atom  1       EATOM=-1748.8345
 kinetic energy error for atom=    0.0107 (will be added to EATOM!!)
  PAW_PBE O 08Apr2002                   :
 energy of atom  2       EATOM= -432.3788
 kinetic energy error for atom=    0.1156 (will be added to EATOM!!)
  PAW_PBE Nd_3 06Sep2000                :
 energy of atom  3       EATOM= -934.1494
 kinetic energy error for atom=    0.0015 (will be added to EATOM!!)
 
 
 POSCAR: Nd1 Zn96 O96
  positions in direct lattice
  No initial velocities read in


 exchange-correlation table for PE
   RHO(1)=    0.500       N(1)  =     2000
   RHO(2)=  100.500       N(2)  =     4000
 


--------------------------------------------------------------------------------------------------------


 ion  position               nearest neighbor table
   1  0.083  0.167  0.000- 150 1.98 183 1.98 147 1.98  97 1.98
   2  0.083  0.169  0.336-  98 1.94 148 1.97 181 2.00 145 2.04 193 2.50
   3  0.083  0.167  0.667- 149 1.98 182 1.98 146 1.98  99 1.99
   4  0.083  0.417  0.000- 153 1.98 186 1.98 150 1.98 100 1.99
   5  0.083  0.417  0.333- 151 1.98 184 1.98 148 1.98 101 1.99
   6  0.083  0.417  0.667- 152 1.98 185 1.98 149 1.98 102 1.99
   7  0.083  0.667  0.000- 156 1.98 189 1.98 153 1.98 103 1.99
   8  0.083  0.667  0.333- 154 1.98 187 1.98 151 1.98 104 1.99
   9  0.083  0.667  0.667- 155 1.98 188 1.98 152 1.98 105 1.99
  10  0.083  0.917  0.000- 106 1.92 147 1.98 192 1.98 156 1.98
  11  0.081  0.916  0.335- 107 1.96 190 1.97 145 1.98 154 1.99 193 2.46
  12  0.083  0.917  0.667- 146 1.98 191 1.98 155 1.98 108 1.99
  13  0.333  0.167  0.000- 162 1.98 147 1.98 159 1.98 109 1.99
  14  0.333  0.167  0.333- 145 1.94 160 1.98 157 1.98 110 1.99
  15  0.333  0.167  0.667- 161 1.98 146 1.98 158 1.98 111 1.99
  16  0.333  0.417  0.000- 165 1.98 150 1.98 162 1.98 112 1.99
  17  0.333  0.417  0.333- 163 1.98 148 1.98 160 1.98 113 1.99
  18  0.333  0.417  0.667- 164 1.98 149 1.98 161 1.98 114 1.99
  19  0.333  0.667  0.000- 168 1.98 153 1.98 165 1.98 115 1.99
  20  0.333  0.667  0.333- 166 1.98 151 1.98 163 1.98 116 1.99
  21  0.333  0.667  0.667- 167 1.98 152 1.98 164 1.98 117 1.99
  22  0.333  0.917  0.000- 159 1.98 156 1.98 168 1.98 118 1.99
  23  0.333  0.917  0.333- 157 1.98 154 1.98 166 1.98 119 1.99
  24  0.333  0.917  0.667- 158 1.98 155 1.98 167 1.98 120 1.99
  25  0.583  0.167  0.000- 174 1.98 159 1.98 171 1.98 121 1.99
  26  0.583  0.167  0.333- 172 1.98 157 1.98 169 1.98 122 1.99
  27  0.583  0.167  0.667- 173 1.98 158 1.98 170 1.98 123 1.99
  28  0.583  0.417  0.000- 177 1.98 162 1.98 174 1.98 124 1.99
  29  0.583  0.417  0.333- 175 1.98 160 1.98 172 1.98 125 1.99
  30  0.583  0.417  0.667- 176 1.98 161 1.98 173 1.98 126 1.99
  31  0.583  0.667  0.000- 180 1.98 165 1.98 177 1.98 127 1.99
  32  0.583  0.667  0.333- 178 1.98 163 1.98 175 1.98 128 1.99
  33  0.583  0.667  0.667- 179 1.98 164 1.98 176 1.98 129 1.99
  34  0.583  0.917  0.000- 171 1.98 168 1.98 180 1.98 130 1.99
  35  0.583  0.917  0.333- 169 1.98 166 1.98 178 1.98 131 1.99
  36  0.583  0.917  0.667- 170 1.98 167 1.98 179 1.98 132 1.99
  37  0.833  0.167  0.000- 186 1.98 171 1.98 183 1.98 133 1.99
  38  0.833  0.167  0.333- 181 1.85 184 1.98 169 1.98 134 1.99
  39  0.833  0.167  0.667- 185 1.98 170 1.98 182 1.98 135 1.99
  40  0.833  0.417  0.000- 189 1.98 174 1.98 186 1.98 136 1.99
  41  0.833  0.417  0.333- 187 1.98 172 1.98 184 1.98 137 1.99
  42  0.833  0.417  0.667- 188 1.98 173 1.98 185 1.98 138 1.99
  43  0.833  0.667  0.000- 192 1.98 177 1.98 189 1.98 139 1.99
  44  0.833  0.667  0.333- 175 1.98 187 1.98 140 1.99 190 2.00
  45  0.833  0.667  0.667- 191 1.98 176 1.98 188 1.98 141 1.99
  46  0.833  0.917  0.000- 183 1.98 180 1.98 192 1.98 142 1.98
  47  0.831  0.918  0.336- 143 1.94 178 1.97 190 1.99 181 2.07 193 2.50
  48  0.833  0.917  0.667- 182 1.98 179 1.98 191 1.98 144 1.99
  49  0.155  0.079  0.175- 145 1.89  97 1.93 193 1.96 106 2.00 109 2.14
  50  0.167  0.083  0.500- 107 1.98 110 1.98  98 1.98 146 1.99
  51  0.167  0.083  0.833- 108 1.98 111 1.98  99 1.98 147 1.99
  52  0.167  0.333  0.167- 112 1.98 100 1.98  97 1.98 148 1.99
  53  0.167  0.333  0.500-  98 1.98 113 1.98 101 1.98 149 1.99
  54  0.167  0.333  0.833-  99 1.98 114 1.98 102 1.98 150 1.99
  55  0.167  0.583  0.167- 100 1.98 115 1.98 103 1.98 151 1.99
  56  0.167  0.583  0.500- 101 1.98 116 1.98 104 1.98 152 1.99
  57  0.167  0.583  0.833- 102 1.98 117 1.98 105 1.98 153 1.99
  58  0.167  0.833  0.167- 106 1.97 103 1.98 118 1.98 154 1.99
  59  0.167  0.833  0.500- 104 1.98 119 1.98 107 1.98 155 1.99
  60  0.167  0.833  0.833- 105 1.98 120 1.98 108 1.98 156 1.99
  61  0.417  0.083  0.167- 118 1.98 121 1.98 109 1.98 157 1.99
  62  0.417  0.083  0.500- 119 1.98 122 1.98 110 1.98 158 1.99
  63  0.417  0.083  0.833- 120 1.98 123 1.98 111 1.98 159 1.99
  64  0.417  0.333  0.167- 109 1.98 124 1.98 112 1.98 160 1.99
  65  0.417  0.333  0.500- 110 1.98 125 1.98 113 1.98 161 1.99
  66  0.417  0.333  0.833- 111 1.98 126 1.98 114 1.98 162 1.99
  67  0.417  0.583  0.167- 112 1.98 127 1.98 115 1.98 163 1.99
  68  0.417  0.583  0.500- 113 1.98 128 1.98 116 1.98 164 1.99
  69  0.417  0.583  0.833- 114 1.98 129 1.98 117 1.98 165 1.99
  70  0.417  0.833  0.167- 115 1.98 130 1.98 118 1.98 166 1.99
  71  0.417  0.833  0.500- 116 1.98 131 1.98 119 1.98 167 1.99
  72  0.417  0.833  0.833- 117 1.98 132 1.98 120 1.98 168 1.99
  73  0.667  0.083  0.167- 130 1.98 133 1.98 121 1.98 169 1.99
  74  0.667  0.083  0.500- 131 1.98 134 1.98 122 1.98 170 1.99
  75  0.667  0.083  0.833- 132 1.98 135 1.98 123 1.98 171 1.99
  76  0.667  0.333  0.167- 121 1.98 136 1.98 124 1.98 172 1.99
  77  0.667  0.333  0.500- 122 1.98 137 1.98 125 1.98 173 1.99
  78  0.667  0.333  0.833- 123 1.98 138 1.98 126 1.98 174 1.99
  79  0.667  0.583  0.167- 124 1.98 139 1.98 127 1.98 175 1.99
  80  0.667  0.583  0.500- 125 1.98 140 1.98 128 1.98 176 1.99
  81  0.667  0.583  0.833- 126 1.98 141 1.98 129 1.98 177 1.99
  82  0.667  0.833  0.167- 127 1.98 130 1.98 178 1.99 142 2.02
  83  0.667  0.833  0.500- 128 1.98 143 1.98 131 1.98 179 1.99
  84  0.667  0.833  0.833- 129 1.98 144 1.98 132 1.98 180 1.99
  85  0.916  0.078  0.160- 142 1.81  97 1.98 133 2.00 181 2.12 193 2.14
  86  0.917  0.083  0.500- 143 1.98  98 1.98 134 1.98 182 1.99
  87  0.917  0.083  0.833- 144 1.98  99 1.98 135 1.98 183 1.99
  88  0.917  0.333  0.167- 133 1.98 100 1.98 136 1.98 184 1.99
  89  0.917  0.333  0.500- 134 1.98 101 1.98 137 1.98 185 1.99
  90  0.917  0.333  0.833- 135 1.98 102 1.98 138 1.98 186 1.99
  91  0.917  0.583  0.167- 136 1.98 103 1.98 139 1.98 187 1.99
  92  0.917  0.583  0.500- 137 1.98 104 1.98 140 1.98 188 1.99
  93  0.917  0.583  0.833- 138 1.98 105 1.98 141 1.98 189 1.99
  94  0.925  0.828  0.164- 139 1.91 106 1.94 190 2.04 142 2.14 193 2.22
  95  0.917  0.833  0.500- 140 1.98 107 1.98 143 1.98 191 1.99
  96  0.917  0.833  0.833- 141 1.98 108 1.98 144 1.98 192 1.99
  97  0.085  0.167  0.127-  49 1.93  85 1.98  52 1.98   1 1.98 193 2.49
  98  0.083  0.167  0.460-   2 1.94  53 1.98  86 1.98  50 1.98
  99  0.083  0.167  0.794-  54 1.98  87 1.98  51 1.98   3 1.99
 100  0.083  0.417  0.127-  55 1.98  88 1.98  52 1.98   4 1.99
 101  0.083  0.417  0.460-  56 1.98  89 1.98  53 1.98   5 1.99
 102  0.083  0.417  0.794-  57 1.98  90 1.98  54 1.98   6 1.99
 103  0.083  0.667  0.127-  58 1.98  91 1.98  55 1.98   7 1.99
 104  0.083  0.667  0.460-  59 1.98  92 1.98  56 1.98   8 1.99
 105  0.083  0.667  0.794-  60 1.98  93 1.98  57 1.98   9 1.99
 106  0.087  0.917  0.123-  10 1.92  94 1.94  58 1.97  49 2.00 193 2.56
 107  0.083  0.917  0.460-  11 1.96  50 1.98  95 1.98  59 1.98
 108  0.083  0.917  0.794-  51 1.98  96 1.98  60 1.98  12 1.99
 109  0.333  0.167  0.127-  64 1.98  61 1.98  13 1.99  49 2.14
 110  0.333  0.167  0.460-  65 1.98  50 1.98  62 1.98  14 1.99
 111  0.333  0.167  0.794-  66 1.98  51 1.98  63 1.98  15 1.99
 112  0.333  0.417  0.127-  67 1.98  52 1.98  64 1.98  16 1.99
 113  0.333  0.417  0.460-  68 1.98  53 1.98  65 1.98  17 1.99
 114  0.333  0.417  0.794-  69 1.98  54 1.98  66 1.98  18 1.99
 115  0.333  0.667  0.127-  70 1.98  55 1.98  67 1.98  19 1.99
 116  0.333  0.667  0.460-  71 1.98  56 1.98  68 1.98  20 1.99
 117  0.333  0.667  0.794-  72 1.98  57 1.98  69 1.98  21 1.99
 118  0.333  0.917  0.127-  61 1.98  58 1.98  70 1.98  22 1.99
 119  0.333  0.917  0.460-  62 1.98  59 1.98  71 1.98  23 1.99
 120  0.333  0.917  0.794-  63 1.98  60 1.98  72 1.98  24 1.99
 121  0.583  0.167  0.127-  76 1.98  61 1.98  73 1.98  25 1.99
 122  0.583  0.167  0.460-  77 1.98  62 1.98  74 1.98  26 1.99
 123  0.583  0.167  0.794-  78 1.98  63 1.98  75 1.98  27 1.99
 124  0.583  0.417  0.127-  79 1.98  64 1.98  76 1.98  28 1.99
 125  0.583  0.417  0.460-  80 1.98  65 1.98  77 1.98  29 1.99
 126  0.583  0.417  0.794-  81 1.98  66 1.98  78 1.98  30 1.99
 127  0.583  0.667  0.127-  82 1.98  67 1.98  79 1.98  31 1.99
 128  0.583  0.667  0.460-  83 1.98  68 1.98  80 1.98  32 1.99
 129  0.583  0.667  0.794-  84 1.98  69 1.98  81 1.98  33 1.99
 130  0.583  0.917  0.127-  73 1.98  70 1.98  82 1.98  34 1.99
 131  0.583  0.917  0.460-  74 1.98  71 1.98  83 1.98  35 1.99
 132  0.583  0.917  0.794-  75 1.98  72 1.98  84 1.98  36 1.99
 133  0.833  0.167  0.127-  88 1.98  73 1.98  37 1.99  85 2.00
 134  0.833  0.167  0.460-  89 1.98  74 1.98  86 1.98  38 1.99
 135  0.833  0.167  0.794-  90 1.98  75 1.98  87 1.98  39 1.99
 136  0.833  0.417  0.127-  91 1.98  76 1.98  88 1.98  40 1.99
 137  0.833  0.417  0.460-  92 1.98  77 1.98  89 1.98  41 1.99
 138  0.833  0.417  0.794-  93 1.98  78 1.98  90 1.98  42 1.99
 139  0.833  0.667  0.127-  94 1.91  79 1.98  91 1.98  43 1.99
 140  0.833  0.667  0.460-  95 1.98  80 1.98  92 1.98  44 1.99
 141  0.833  0.667  0.794-  96 1.98  81 1.98  93 1.98  45 1.99
 142  0.838  0.924  0.127-  85 1.81  46 1.98  82 2.02  94 2.14 193 2.46
 143  0.833  0.917  0.460-  47 1.94  86 1.98  83 1.98  95 1.98
 144  0.833  0.917  0.794-  87 1.98  84 1.98  96 1.98  48 1.99
 145  0.169  0.083  0.295-  49 1.89  14 1.94  11 1.98   2 2.04 193 2.14
 146  0.167  0.083  0.627-  12 1.98  15 1.98   3 1.98  50 1.99
 147  0.167  0.083  0.960-  10 1.98  13 1.98   1 1.98  51 1.99
 148  0.167  0.333  0.294-   2 1.97  17 1.98   5 1.98  52 1.99
 149  0.167  0.333  0.627-   3 1.98  18 1.98   6 1.98  53 1.99
 150  0.167  0.333  0.960-   1 1.98  16 1.98   4 1.98  54 1.99
 151  0.167  0.583  0.294-   5 1.98  20 1.98   8 1.98  55 1.99
 152  0.167  0.583  0.627-   6 1.98  21 1.98   9 1.98  56 1.99
 153  0.167  0.583  0.960-   4 1.98  19 1.98   7 1.98  57 1.99
 154  0.167  0.833  0.294-   8 1.98  23 1.98  58 1.99  11 1.99
 155  0.167  0.833  0.627-   9 1.98  24 1.98  12 1.98  59 1.99
 156  0.167  0.833  0.960-   7 1.98  22 1.98  10 1.98  60 1.99
 157  0.417  0.083  0.294-  23 1.98  26 1.98  14 1.98  61 1.99
 158  0.417  0.083  0.627-  24 1.98  27 1.98  15 1.98  62 1.99
 159  0.417  0.083  0.960-  22 1.98  25 1.98  13 1.98  63 1.99
 160  0.417  0.333  0.294-  14 1.98  29 1.98  17 1.98  64 1.99
 161  0.417  0.333  0.627-  15 1.98  30 1.98  18 1.98  65 1.99
 162  0.417  0.333  0.960-  13 1.98  28 1.98  16 1.98  66 1.99
 163  0.417  0.583  0.294-  17 1.98  32 1.98  20 1.98  67 1.99
 164  0.417  0.583  0.627-  18 1.98  33 1.98  21 1.98  68 1.99
 165  0.417  0.583  0.960-  16 1.98  31 1.98  19 1.98  69 1.99
 166  0.417  0.833  0.294-  20 1.98  35 1.98  23 1.98  70 1.99
 167  0.417  0.833  0.627-  21 1.98  36 1.98  24 1.98  71 1.99
 168  0.417  0.833  0.960-  19 1.98  34 1.98  22 1.98  72 1.99
 169  0.667  0.083  0.294-  35 1.98  38 1.98  26 1.98  73 1.99
 170  0.667  0.083  0.627-  36 1.98  39 1.98  27 1.98  74 1.99
 171  0.667  0.083  0.960-  34 1.98  37 1.98  25 1.98  75 1.99
 172  0.667  0.333  0.294-  26 1.98  41 1.98  29 1.98  76 1.99
 173  0.667  0.333  0.627-  27 1.98  42 1.98  30 1.98  77 1.99
 174  0.667  0.333  0.960-  25 1.98  40 1.98  28 1.98  78 1.99
 175  0.667  0.583  0.294-  29 1.98  44 1.98  32 1.98  79 1.99
 176  0.667  0.583  0.627-  30 1.98  45 1.98  33 1.98  80 1.99
 177  0.667  0.583  0.960-  28 1.98  43 1.98  31 1.98  81 1.99
 178  0.667  0.833  0.294-  47 1.97  32 1.98  35 1.98  82 1.99
 179  0.667  0.833  0.627-  33 1.98  48 1.98  36 1.98  83 1.99
 180  0.667  0.833  0.960-  31 1.98  46 1.98  34 1.98  84 1.99
 181  0.915  0.093  0.295-  38 1.85   2 2.00  47 2.07  85 2.12 193 2.23
 182  0.917  0.083  0.627-  48 1.98   3 1.98  39 1.98  86 1.99
 183  0.917  0.083  0.960-  46 1.98   1 1.98  37 1.98  87 1.99
 184  0.917  0.333  0.294-  38 1.98   5 1.98  41 1.98  88 1.99
 185  0.917  0.333  0.627-  39 1.98   6 1.98  42 1.98  89 1.99
 186  0.917  0.333  0.960-  37 1.98   4 1.98  40 1.98  90 1.99
 187  0.917  0.583  0.294-  41 1.98   8 1.98  44 1.98  91 1.99
 188  0.917  0.583  0.627-  42 1.98   9 1.98  45 1.98  92 1.99
 189  0.917  0.583  0.960-  40 1.98   7 1.98  43 1.98  93 1.99
 190  0.915  0.835  0.294-  11 1.97  47 1.99  44 2.00  94 2.04 193 2.09
 191  0.917  0.833  0.627-  45 1.98  12 1.98  48 1.98  95 1.99
 192  0.917  0.833  0.960-  43 1.98  10 1.98  46 1.98  96 1.99
 193  0.000  0.000  0.232-  49 1.96 190 2.09  85 2.14 145 2.14  94 2.22 181 2.23  11 2.46 142 2.46
                            97 2.49   2 2.50  47 2.50 106 2.56
 
  LATTYP: Found a hexagonal cell.
 ALAT       =    12.9974900980
 C/A-ratio  =     1.2026632506
  
  Lattice vectors:
  
 A1 = (  12.9974900980,   0.0000000000,   0.0000000000)
 A2 = (  -6.4987450490,  11.2561566103,   0.0000000000)
 A3 = (   0.0000000000,   0.0000000000,  15.6316036913)


Analysis of symmetry for initial positions (statically):
=====================================================================
 Subroutine PRICEL returns:
 Original cell was already a primitive cell.
 

 Routine SETGRP: Setting up the symmetry group for a 
 hexagonal supercell.


 Subroutine GETGRP returns: Found  1 space group operations
 (whereof  1 operations were pure point group operations)
 out of a pool of 24 trial point group operations.


The static configuration has the point symmetry C_1 .


Analysis of symmetry for dynamics (positions and initial velocities):
=====================================================================
 Subroutine PRICEL returns:
 Original cell was already a primitive cell.
 

 Routine SETGRP: Setting up the symmetry group for a 
 hexagonal supercell.


 Subroutine GETGRP returns: Found  1 space group operations
 (whereof  1 operations were pure point group operations)
 out of a pool of 24 trial point group operations.


The dynamic configuration has the point symmetry C_1 .


Analysis of structural, dynamic, and magnetic symmetry:
=====================================================================
 Subroutine PRICEL returns:
 Original cell was already a primitive cell.
 

 Routine SETGRP: Setting up the symmetry group for a 
 hexagonal supercell.


 Subroutine GETGRP returns: Found  1 space group operations
 (whereof  1 operations were pure point group operations)
 out of a pool of 24 trial point group operations.


The overall configuration has the point symmetry C_1 .


 Subroutine INISYM returns: Found  1 space group operations
 (whereof  1 operations are pure point group operations),
 and found     1 'primitive' translations


----------------------------------------------------------------------------------------

                                     Primitive cell                                     

  volume of cell :    2286.9315

  direct lattice vectors                    reciprocal lattice vectors
    12.997490098  0.000000000  0.000000000     0.076937931  0.044420135  0.000000000
    -6.498745049 11.256156610  0.000000000     0.000000000  0.088840271  0.000000000
     0.000000000  0.000000000 15.631603691     0.000000000  0.000000000  0.063972963

  length of vectors
    12.997490098 12.997490098 15.631603691     0.088840271  0.088840271  0.063972963

  position of ions in fractional coordinates (direct lattice)
     0.083333333  0.166666667  0.000147394
     0.083008117  0.168635487  0.336084249
     0.083333333  0.166666667  0.666814061
     0.083333333  0.416666667  0.000147394
     0.083333333  0.416666667  0.333480727
     0.083333333  0.416666667  0.666814061
     0.083333333  0.666666667  0.000147394
     0.083333333  0.666666667  0.333480727
     0.083333333  0.666666667  0.666814061
     0.083333333  0.916666667  0.000147394
     0.081166913  0.915599681  0.334910498
     0.083333333  0.916666667  0.666814061
     0.333333333  0.166666667  0.000147394
     0.333333333  0.166666667  0.333480727
     0.333333333  0.166666667  0.666814061
     0.333333333  0.416666667  0.000147394
     0.333333333  0.416666667  0.333480727
     0.333333333  0.416666667  0.666814061
     0.333333333  0.666666667  0.000147394
     0.333333333  0.666666667  0.333480727
     0.333333333  0.666666667  0.666814061
     0.333333333  0.916666667  0.000147394
     0.333333333  0.916666667  0.333480727
     0.333333333  0.916666667  0.666814061
     0.583333333  0.166666667  0.000147394
     0.583333333  0.166666667  0.333480727
     0.583333333  0.166666667  0.666814061
     0.583333333  0.416666667  0.000147394
     0.583333333  0.416666667  0.333480727
     0.583333333  0.416666667  0.666814061
     0.583333333  0.666666667  0.000147394
     0.583333333  0.666666667  0.333480727
     0.583333333  0.666666667  0.666814061
     0.583333333  0.916666667  0.000147394
     0.583333333  0.916666667  0.333480727
     0.583333333  0.916666667  0.666814061
     0.833333333  0.166666667  0.000147394
     0.833333333  0.166666667  0.333480727
     0.833333333  0.166666667  0.666814061
     0.833333333  0.416666667  0.000147394
     0.833333333  0.416666667  0.333480727
     0.833333333  0.416666667  0.666814061
     0.833333333  0.666666667  0.000147394
     0.833333333  0.666666667  0.333480727
     0.833333333  0.666666667  0.666814061
     0.833333333  0.916666667  0.000147394
     0.831028909  0.918015124  0.336144482
     0.833333333  0.916666667  0.666814061
     0.155150516  0.079263857  0.174950305
     0.166666667  0.083333333  0.500147394
     0.166666667  0.083333333  0.833480727
     0.166666667  0.333333333  0.166814061
     0.166666667  0.333333333  0.500147394
     0.166666667  0.333333333  0.833480727
     0.166666667  0.583333333  0.166814061
     0.166666667  0.583333333  0.500147394
     0.166666667  0.583333333  0.833480727
     0.166666667  0.833333333  0.166814061
     0.166666667  0.833333333  0.500147394
     0.166666667  0.833333333  0.833480727
     0.416666667  0.083333333  0.166814061
     0.416666667  0.083333333  0.500147394
     0.416666667  0.083333333  0.833480727
     0.416666667  0.333333333  0.166814061
     0.416666667  0.333333333  0.500147394
     0.416666667  0.333333333  0.833480727
     0.416666667  0.583333333  0.166814061
     0.416666667  0.583333333  0.500147394
     0.416666667  0.583333333  0.833480727
     0.416666667  0.833333333  0.166814061
     0.416666667  0.833333333  0.500147394
     0.416666667  0.833333333  0.833480727
     0.666666667  0.083333333  0.166814061
     0.666666667  0.083333333  0.500147394
     0.666666667  0.083333333  0.833480727
     0.666666667  0.333333333  0.166814061
     0.666666667  0.333333333  0.500147394
     0.666666667  0.333333333  0.833480727
     0.666666667  0.583333333  0.166814061
     0.666666667  0.583333333  0.500147394
     0.666666667  0.583333333  0.833480727
     0.666666667  0.833333333  0.166814061
     0.666666667  0.833333333  0.500147394
     0.666666667  0.833333333  0.833480727
     0.915828345  0.077693670  0.160341832
     0.916666667  0.083333333  0.500147394
     0.916666667  0.083333333  0.833480727
     0.916666667  0.333333333  0.166814061
     0.916666667  0.333333333  0.500147394
     0.916666667  0.333333333  0.833480727
     0.916666667  0.583333333  0.166814061
     0.916666667  0.583333333  0.500147394
     0.916666667  0.583333333  0.833480727
     0.924834503  0.827801209  0.164056009
     0.916666667  0.833333333  0.500147394
     0.916666667  0.833333333  0.833480727
     0.085208325  0.166564861  0.126909631
     0.083333333  0.166666667  0.460485940
     0.083333333  0.166666667  0.793819273
     0.083333333  0.416666667  0.127152606
     0.083333333  0.416666667  0.460485940
     0.083333333  0.416666667  0.793819273
     0.083333333  0.666666667  0.127152606
     0.083333333  0.666666667  0.460485940
     0.083333333  0.666666667  0.793819273
     0.086703242  0.917324682  0.122972087
     0.083333333  0.916666667  0.460485940
     0.083333333  0.916666667  0.793819273
     0.333333333  0.166666667  0.127152606
     0.333333333  0.166666667  0.460485940
     0.333333333  0.166666667  0.793819273
     0.333333333  0.416666667  0.127152606
     0.333333333  0.416666667  0.460485940
     0.333333333  0.416666667  0.793819273
     0.333333333  0.666666667  0.127152606
     0.333333333  0.666666667  0.460485940
     0.333333333  0.666666667  0.793819273
     0.333333333  0.916666667  0.127152606
     0.333333333  0.916666667  0.460485940
     0.333333333  0.916666667  0.793819273
     0.583333333  0.166666667  0.127152606
     0.583333333  0.166666667  0.460485940
     0.583333333  0.166666667  0.793819273
     0.583333333  0.416666667  0.127152606
     0.583333333  0.416666667  0.460485940
     0.583333333  0.416666667  0.793819273
     0.583333333  0.666666667  0.127152606
     0.583333333  0.666666667  0.460485940
     0.583333333  0.666666667  0.793819273
     0.583333333  0.916666667  0.127152606
     0.583333333  0.916666667  0.460485940
     0.583333333  0.916666667  0.793819273
     0.833333333  0.166666667  0.127152606
     0.833333333  0.166666667  0.460485940
     0.833333333  0.166666667  0.793819273
     0.833333333  0.416666667  0.127152606
     0.833333333  0.416666667  0.460485940
     0.833333333  0.416666667  0.793819273
     0.833333333  0.666666667  0.127152606
     0.833333333  0.666666667  0.460485940
     0.833333333  0.666666667  0.793819273
     0.837593761  0.923783113  0.126832602
     0.833333333  0.916666667  0.460485940
     0.833333333  0.916666667  0.793819273
     0.169036353  0.083018591  0.295170851
     0.166666667  0.083333333  0.627152606
     0.166666667  0.083333333  0.960485940
     0.166666667  0.333333333  0.293819273
     0.166666667  0.333333333  0.627152606
     0.166666667  0.333333333  0.960485940
     0.166666667  0.583333333  0.293819273
     0.166666667  0.583333333  0.627152606
     0.166666667  0.583333333  0.960485940
     0.166666667  0.833333333  0.293819273
     0.166666667  0.833333333  0.627152606
     0.166666667  0.833333333  0.960485940
     0.416666667  0.083333333  0.293819273
     0.416666667  0.083333333  0.627152606
     0.416666667  0.083333333  0.960485940
     0.416666667  0.333333333  0.293819273
     0.416666667  0.333333333  0.627152606
     0.416666667  0.333333333  0.960485940
     0.416666667  0.583333333  0.293819273
     0.416666667  0.583333333  0.627152606
     0.416666667  0.583333333  0.960485940
     0.416666667  0.833333333  0.293819273
     0.416666667  0.833333333  0.627152606
     0.416666667  0.833333333  0.960485940
     0.666666667  0.083333333  0.293819273
     0.666666667  0.083333333  0.627152606
     0.666666667  0.083333333  0.960485940
     0.666666667  0.333333333  0.293819273
     0.666666667  0.333333333  0.627152606
     0.666666667  0.333333333  0.960485940
     0.666666667  0.583333333  0.293819273
     0.666666667  0.583333333  0.627152606
     0.666666667  0.583333333  0.960485940
     0.666666667  0.833333333  0.293819273
     0.666666667  0.833333333  0.627152606
     0.666666667  0.833333333  0.960485940
     0.915241067  0.093025845  0.295416519
     0.916666667  0.083333333  0.627152606
     0.916666667  0.083333333  0.960485940
     0.916666667  0.333333333  0.293819273
     0.916666667  0.333333333  0.627152606
     0.916666667  0.333333333  0.960485940
     0.916666667  0.583333333  0.293819273
     0.916666667  0.583333333  0.627152606
     0.916666667  0.583333333  0.960485940
     0.915192169  0.835313947  0.294124619
     0.916666667  0.833333333  0.627152606
     0.916666667  0.833333333  0.960485940
     0.000000000  0.000000000  0.232142857

  ion indices of the primitive-cell ions
   primitive index   ion index
                 1           1
                 2           2
                 3           3
                 4           4
                 5           5
                 6           6
                 7           7
                 8           8
                 9           9
                10          10
                11          11
                12          12
                13          13
                14          14
                15          15
                16          16
                17          17
                18          18
                19          19
                20          20
                21          21
                22          22
                23          23
                24          24
                25          25
                26          26
                27          27
                28          28
                29          29
                30          30
                31          31
                32          32
                33          33
                34          34
                35          35
                36          36
                37          37
                38          38
                39          39
                40          40
                41          41
                42          42
                43          43
                44          44
                45          45
                46          46
                47          47
                48          48
                49          49
                50          50
                51          51
                52          52
                53          53
                54          54
                55          55
                56          56
                57          57
                58          58
                59          59
                60          60
                61          61
                62          62
                63          63
                64          64
                65          65
                66          66
                67          67
                68          68
                69          69
                70          70
                71          71
                72          72
                73          73
                74          74
                75          75
                76          76
                77          77
                78          78
                79          79
                80          80
                81          81
                82          82
                83          83
                84          84
                85          85
                86          86
                87          87
                88          88
                89          89
                90          90
                91          91
                92          92
                93          93
                94          94
                95          95
                96          96
                97          97
                98          98
                99          99
               100         100
               101         101
               102         102
               103         103
               104         104
               105         105
               106         106
               107         107
               108         108
               109         109
               110         110
               111         111
               112         112
               113         113
               114         114
               115         115
               116         116
               117         117
               118         118
               119         119
               120         120
               121         121
               122         122
               123         123
               124         124
               125         125
               126         126
               127         127
               128         128
               129         129
               130         130
               131         131
               132         132
               133         133
               134         134
               135         135
               136         136
               137         137
               138         138
               139         139
               140         140
               141         141
               142         142
               143         143
               144         144
               145         145
               146         146
               147         147
               148         148
               149         149
               150         150
               151         151
               152         152
               153         153
               154         154
               155         155
               156         156
               157         157
               158         158
               159         159
               160         160
               161         161
               162         162
               163         163
               164         164
               165         165
               166         166
               167         167
               168         168
               169         169
               170         170
               171         171
               172         172
               173         173
               174         174
               175         175
               176         176
               177         177
               178         178
               179         179
               180         180
               181         181
               182         182
               183         183
               184         184
               185         185
               186         186
               187         187
               188         188
               189         189
               190         190
               191         191
               192         192
               193         193

----------------------------------------------------------------------------------------

 
 
 KPOINTS: Num irrep kpoints: 4                    

Automatic generation of k-mesh.
 Grid dimensions read from file:
 generate k-points for:    2    2    1

 Generating k-lattice:

  Cartesian coordinates                     Fractional coordinates (reciprocal lattice)
     0.038468966  0.022210068  0.000000000     0.500000000  0.000000000  0.000000000
     0.000000000  0.044420135  0.000000000     0.000000000  0.500000000  0.000000000
     0.000000000  0.000000000  0.063972963     0.000000000  0.000000000  1.000000000

  Length of vectors
     0.044420135  0.044420135  0.063972963

  Shift w.r.t. Gamma in fractional coordinates (k-lattice)
     0.000000000  0.000000000  0.000000000

 
 Subroutine IBZKPT returns following result:
 ===========================================
 
 Found      4 irreducible k-points:
 
 Following reciprocal coordinates:
            Coordinates               Weight
  0.000000  0.000000  0.000000      1.000000
  0.500000 -0.000000  0.000000      1.000000
  0.000000  0.500000  0.000000      1.000000
  0.500000  0.500000  0.000000      1.000000
 
 Following cartesian coordinates:
            Coordinates               Weight
  0.000000  0.000000  0.000000      1.000000
  0.038469  0.022210  0.000000      1.000000
  0.000000  0.044420  0.000000      1.000000
  0.038469  0.066630  0.000000      1.000000
 
 
 Subroutine IBZKPT_HF returns following result:
 ==============================================
 
 Found      4 k-points in 1st BZ
 the following      4 k-points will be used (e.g. in the exchange kernel)
 Following reciprocal coordinates:   # in IRBZ
  0.000000  0.000000  0.000000    0.25000000   1 t-inv F
  0.500000 -0.000000  0.000000    0.25000000   2 t-inv F
  0.000000  0.500000  0.000000    0.25000000   3 t-inv F
  0.500000  0.500000  0.000000    0.25000000   4 t-inv F


--------------------------------------------------------------------------------------------------------




 Dimension of arrays:
   k-points           NKPTS =      4   k-points in BZ     NKDIM =      4   number of bands    NBANDS=   1148
   number of dos      NEDOS =    301   number of ions     NIONS =    193
   non local maximal  LDIM  =      6   non local SUM 2l+1 LMDIM =     18
   total plane-waves  NPLWV = 327680
   max r-space proj   IRMAX =   2510   max aug-charges    IRDMAX=  11613
   dimension x,y,z NGX =    64 NGY =   64 NGZ =   80
   dimension x,y,z NGXF=   128 NGYF=  128 NGZF=  160
   support grid    NGXF=   128 NGYF=  128 NGZF=  160
   ions per type =              96  96   1
   NGX,Y,Z   is equivalent  to a cutoff of   8.19,  8.19,  8.51 a.u.
   NGXF,Y,Z  is equivalent  to a cutoff of  16.37, 16.37, 17.02 a.u.

 SYSTEM =  unknown system                          
 POSCAR =  Nd1 Zn96 O96                            

 Startparameter for this run:
   NWRITE =      2    write-flag & timer
   PREC   = normal    normal or accurate (medium, high low for compatibility)
   ISTART =      0    job   : 0-new  1-cont  2-samecut
   ICHARG =      2    charge: 1-file 2-atom 10-const
   ISPIN  =      2    spin polarized calculation?
   LNONCOLLINEAR =      F non collinear calculations
   LSORBIT =      F    spin-orbit coupling
   INIWAV =      1    electr: 0-lowe 1-rand  2-diag
   LASPH  =      T    aspherical Exc in radial PAW
 Electronic Relaxation 1
   ENCUT  =  400.0 eV  29.40 Ry    5.42 a.u.  21.20 21.20 25.49*2*pi/ulx,y,z
   ENINI  =  400.0     initial cutoff
   ENAUG  =  605.4 eV  augmentation charge cutoff
   NELM   =    100;   NELMIN=  2; NELMDL= -5     # of ELM steps 
   EDIFF  = 0.1E-04   stopping-criterion for ELM
   LREAL  =      T    real-space projection
   NLSPLINE    = F    spline interpolate recip. space projectors
   LCOMPAT=      F    compatible to vasp.4.4
   GGA_COMPAT  = T    GGA compatible to vasp.4.4-vasp.4.6
   LMAXPAW     = -100 max onsite density
   LMAXMIX     =    2 max onsite mixed and CHGCAR
   VOSKOWN=      0    Vosko Wilk Nusair interpolation
   ROPT   =   -0.00050  -0.00050  -0.00050
 Ionic relaxation
   EDIFFG = -.3E-01   stopping-criterion for IOM
   NSW    =    300    number of steps for IOM
   NBLOCK =      1;   KBLOCK =    300    inner block; outer block 
   IBRION =      2    ionic relax: 0-MD 1-quasi-New 2-CG
   NFREE  =      1    steps in history (QN), initial steepest desc. (CG)
   ISIF   =      2    stress and relaxation
   IWAVPR =     11    prediction:  0-non 1-charg 2-wave 3-comb
   ISYM   =      3    0-nonsym 1-usesym 2-fastsym
   LCORR  =      T    Harris-Foulkes like correction to forces

   POTIM  = 0.5000    time-step for ionic-motion
   TEIN   =    0.0    initial temperature
   TEBEG  =    0.0;   TEEND  =   0.0 temperature during run
   SMASS  =  -3.00    Nose mass-parameter (am)
   estimated Nose-frequenzy (Omega)   =  0.10E-29 period in steps = 0.13E+47 mass=  -0.386E-26a.u.
   SCALEE = 1.0000    scale energy and forces
   NPACO  =    256;   APACO  = 10.0  distance and # of slots for P.C.
   PSTRESS=    0.0 pullay stress

  Mass of Ions in am
   POMASS =  65.39 16.00144.24
  Ionic Valenz
   ZVAL   =  12.00  6.00 11.00
  Atomic Wigner-Seitz radii
   RWIGS  =  -1.00 -1.00 -1.00
  virtual crystal weights 
   VCA    =   1.00  1.00  1.00
   NELECT =    1736.0000    total number of electrons
   NUPDOWN=      -1.0000    fix difference up-down

 DOS related values:
   EMIN   =  10.00;   EMAX   =-10.00  energy-range for DOS
   EFERMI =   0.00;   METHOD = LEGACY      
   ISMEAR =     0;   SIGMA  =   0.10  broadening in eV -4-tet -1-fermi 0-gaus
   EFERMI_NEDOS =   21; number of points for ismear=-14 and -15

 Electronic relaxation 2 (details)
   IALGO  =     53    algorithm
   LDIAG  =      T    sub-space diagonalisation (order eigenvalues)
   LSUBROT=      F    optimize rotation matrix (better conditioning)
   LROBUST=      F    robust break criterion during scf (extrapolated energy error)
   ISEARCH=      0    line search for conjugate gradient (0, 1=use gradient)
   TURBO    =      0    0=normal 1=particle mesh
   IRESTART =      0    0=no restart 2=restart with 2 vectors
   NREBOOT  =      0    no. of reboots
   NMIN     =      0    reboot dimension
   EREF     =   0.00    reference energy to select bands
   IMIX   =      4    mixing-type and parameters
     AMIX     =   0.40;   BMIX     =  1.00
     AMIX_MAG =   1.60;   BMIX_MAG =  1.00
     AMIN     =   0.10
     WC   =   100.;   INIMIX=   1;  MIXPRE=   1;  MAXMIX= -45

 Intra band minimization:
   WEIMIN = 0.0010     energy-eigenvalue tresh-hold
   EBREAK =  0.22E-08  absolut break condition
   DEPER  =   0.30     relativ break condition  

   TIME   =   0.40     timestep for ELM

  volume/ion in A,a.u.               =      11.85        79.96
  Fermi-wavevector in a.u.,A,eV,Ry     =   1.493392  2.822101 30.343962  2.230218
  Thomas-Fermi vector in A             =   2.605798
 
 Write flags
   LWAVE        =      T    write WAVECAR
   LDOWNSAMPLE  =      F    k-point downsampling of WAVECAR
   LCHARG       =      F    write CHGCAR
   LVTOT        =      F    write LOCPOT, total local potential
   LVHAR        =      F    write LOCPOT, Hartree potential only
   WRT_POTENTIAL= false  ! write potential to hdf5 file
   LELF         =      F    write electronic localiz. function (ELF)
   LORBIT       =     10    0 simple, 1 ext, 2 COOP (PROOUT), +10 PAW based schemes


 Python interface
   PLUGINS active      =      F    recompile with -DPLUGINS to activate
 
 Dipole corrections
   LMONO      =      F    monopole corrections only (constant potential shift)
   LDIPOL     =      F    correct potential (dipole corrections)
   IDIPOL     =      0    1-x, 2-y, 3-z, 4-all directions 
   EPSILON    =  1.0000000 bulk dielectric constant
   LVACPOTAV  =      F  vacuum potentials using an averaging scheme for the charge density
   VACPOTFLAT =  0.1000000 required flatness to determine vacuum potential
 
Coulomb truncation method
  LTRUNCATE          =      F  Coulomb kernel truncation to be used

 
 Exchange correlation treatment:
   GGA     = PE    functional components
   XC_C    = 1    coefficients multiplying the functional components
   LIBXC   =     F    Libxc                    
   VOSKOWN =     0    Vosko Wilk Nusair interpolation
   EXXOEP  =     0    0=HF, 1=EXX-LHF (local Hartree Fock) 2=EXX OEP
   LHFCALC =     T    Hartree Fock is set to
   LSYMGRAD=     F    symmetrize gradient (conserves proper symmetry)
   PRECFOCK=fast      Normal, Fast or Accurate (Low or Medium for compatibility)
   LRHFCALC=     F    long range Hartree Fock
   LRSCOR  =     F    long range correlation only (use DFT for short range part)
   LTHOMAS =     F    Thomas Fermi screening in HF
   LMODELHF=     F    short range full HF, long range fraction AEXX
   FOCKCORR=     1    mode to apply convergence corrections
   LFOCKACE=     T    use Adeptively-Compressed-Exchange operator
   ENCUT4O =  -1.0   cutoff for four orbital integrals eV
   LMAXFOCK=     4    L truncation for augmentation on plane wave grid
   LMAXFOCKAE=  -1    L truncation for all-electron charge restoration on plane wave grid
   NMAXFOCKAE=   1    number of basis functions for all-electron charge restoration
   LFOCKAEDFT=     F  apply the AE augmentation even for DFT
   NKREDX  =     1    reduce k-point grid by
   NKREDY  =     1    reduce k-point grid by
   NKREDZ  =     1    reduce k-point grid by
   SHIFTRED=     F    shift reduced grid of Gamma
   HFKIDENT=     F    idential grid for each k-point
   ODDONLY =     F    use only odd q-grid points
   EVENONLY=     F    use only even q-grid points
   HFALPHA =   -1.0000 decay constant for conv. correction
   MCALPHA =    0.0000 extent of test-charge in conv. correction in multipole expansion
   AEXX    =    0.3600 exact exchange contribution
   HFSCREEN=    0.2000 screening length (either q_TF or 0.3 A-1)
   HFSCREENC=   0.2000 screening length for correlation (either q_TF or 0.3 A-1)
   HFRCUT  =    0.0000 spherical cutoff for potential kernel
   ALDAX   =    0.6400 LDA exchange part
   AGGAX   =    0.6400 GGA exchange part
   AMGGAX  =    0.6400 meta-GGA exchange part
   ALDAC   =    1.0000 LDA correlation
   AGGAC   =    1.0000 GGA correlation
   AMGGAC  =    1.0000 meta-GGA correlation
   ENCUTFOCK=  -1.0 apply spherical cutoff to Coloumb kernel
   NBANDSGWLOW=     1    first orbital included in HF term
   NBLOCK_FOCK=    64    blocking factor in FOCK_ACC

 Parameters of functionals:
   PE:
     No parameter
 
 Van der Waals corrections
   IVDW    =     0    specifies the selected vdW correction

 Linear response parameters
   LEPSILON=     F    determine dielectric tensor
   LRPA    =     F    only Hartree local field effects (RPA)
   LNABLA  =     F    use nabla operator in PAW spheres
   LVEL    =     F    velocity operator in full k-point grid
   CSHIFT  =0.1000    complex shift for real part using Kramers Kronig
   OMEGAMAX=  -1.0    maximum frequency
   DEG_THRESHOLD= 0.2000000E-02 threshold for treating states as degnerate
   RTIME   =   -0.100 relaxation time in fs
  (WPLASMAI=    0.000 imaginary part of plasma frequency in eV, 0.658/RTIME)
   DFIELD  = 0.0000000 0.0000000 0.0000000 field for delta impulse in time
 
  Optional k-point grid parameters
   LKPOINTS_OPT  =     F    use optional k-point grid
   KPOINTS_OPT_MODE=     1    mode for optional k-point grid
 
 Orbital magnetization related:
   ORBITALMAG=     F  switch on orbital magnetization
   LCHIMAG   =     F  perturbation theory with respect to B field
   DQ        =  0.001000  dq finite difference perturbation B field
   LLRAUG    =     F  two centre corrections for induced B field
   LBONE     =     F  B-component reconstruction in AE one-centre
   LVGVCALC  =     T  calculate vGv susceptibility
   LVGVAPPL  =     F  apply vGv susceptibility instead of pGv for G=0

 Random number generation:
   RANDOM_GENERATOR = DEFAULT
   PCG_SEED         = not used


--------------------------------------------------------------------------------------------------------


 conjugate gradient relaxation of ions
 charge density and potential will be updated during run
 spin polarized calculation
 Conjugate gradient for all bands (Freysoldt, et al. PRB 79, 241103 (2009))
 perform sub-space diagonalisation
    before iterative eigenvector-optimisation
 modified Broyden-mixing scheme, WC =      100.0
 initial mixing is a Kerker type mixing with AMIX =  0.4000 and BMIX =      1.0000
 Hartree-type preconditioning will be used
 using additional bands          280
 real space projection scheme for non local part
 use partial core corrections
 no Harris-corrections to forces 
 use gradient corrections 
 use of overlap-Matrix (Vanderbilt PP)
 Gauss-broadening in eV      SIGMA  =   0.10


--------------------------------------------------------------------------------------------------------


  energy-cutoff  :      400.00
  volume of cell :     2286.93
      direct lattice vectors                 reciprocal lattice vectors
    12.997490098  0.000000000  0.000000000     0.076937931  0.044420135  0.000000000
    -6.498745049 11.256156610  0.000000000     0.000000000  0.088840271  0.000000000
     0.000000000  0.000000000 15.631603691     0.000000000  0.000000000  0.063972963

  length of vectors
    12.997490098 12.997490098 15.631603691     0.088840271  0.088840271  0.063972963


 
 k-points in units of 2pi/SCALE and weight: Num irrep kpoints: 4                    
   0.00000000  0.00000000  0.00000000       0.250
   0.03846897  0.02221007  0.00000000       0.250
   0.00000000  0.04442014  0.00000000       0.250
   0.03846897  0.06663020  0.00000000       0.250
 
 k-points in reciprocal lattice and weights: Num irrep kpoints: 4                    
   0.00000000  0.00000000  0.00000000       0.250
   0.50000000 -0.00000000  0.00000000       0.250
   0.00000000  0.50000000  0.00000000       0.250
   0.50000000  0.50000000  0.00000000       0.250
 
 position of ions in fractional coordinates (direct lattice) 
   0.08333333  0.16666667  0.00014739
   0.08300812  0.16863549  0.33608425
   0.08333333  0.16666667  0.66681406
   0.08333333  0.41666667  0.00014739
   0.08333333  0.41666667  0.33348073
   0.08333333  0.41666667  0.66681406
   0.08333333  0.66666667  0.00014739
   0.08333333  0.66666667  0.33348073
   0.08333333  0.66666667  0.66681406
   0.08333333  0.91666667  0.00014739
   0.08116691  0.91559968  0.33491050
   0.08333333  0.91666667  0.66681406
   0.33333333  0.16666667  0.00014739
   0.33333333  0.16666667  0.33348073
   0.33333333  0.16666667  0.66681406
   0.33333333  0.41666667  0.00014739
   0.33333333  0.41666667  0.33348073
   0.33333333  0.41666667  0.66681406
   0.33333333  0.66666667  0.00014739
   0.33333333  0.66666667  0.33348073
   0.33333333  0.66666667  0.66681406
   0.33333333  0.91666667  0.00014739
   0.33333333  0.91666667  0.33348073
   0.33333333  0.91666667  0.66681406
   0.58333333  0.16666667  0.00014739
   0.58333333  0.16666667  0.33348073
   0.58333333  0.16666667  0.66681406
   0.58333333  0.41666667  0.00014739
   0.58333333  0.41666667  0.33348073
   0.58333333  0.41666667  0.66681406
   0.58333333  0.66666667  0.00014739
   0.58333333  0.66666667  0.33348073
   0.58333333  0.66666667  0.66681406
   0.58333333  0.91666667  0.00014739
   0.58333333  0.91666667  0.33348073
   0.58333333  0.91666667  0.66681406
   0.83333333  0.16666667  0.00014739
   0.83333333  0.16666667  0.33348073
   0.83333333  0.16666667  0.66681406
   0.83333333  0.41666667  0.00014739
   0.83333333  0.41666667  0.33348073
   0.83333333  0.41666667  0.66681406
   0.83333333  0.66666667  0.00014739
   0.83333333  0.66666667  0.33348073
   0.83333333  0.66666667  0.66681406
   0.83333333  0.91666667  0.00014739
   0.83102891  0.91801512  0.33614448
   0.83333333  0.91666667  0.66681406
   0.15515052  0.07926386  0.17495031
   0.16666667  0.08333333  0.50014739
   0.16666667  0.08333333  0.83348073
   0.16666667  0.33333333  0.16681406
   0.16666667  0.33333333  0.50014739
   0.16666667  0.33333333  0.83348073
   0.16666667  0.58333333  0.16681406
   0.16666667  0.58333333  0.50014739
   0.16666667  0.58333333  0.83348073
   0.16666667  0.83333333  0.16681406
   0.16666667  0.83333333  0.50014739
   0.16666667  0.83333333  0.83348073
   0.41666667  0.08333333  0.16681406
   0.41666667  0.08333333  0.50014739
   0.41666667  0.08333333  0.83348073
   0.41666667  0.33333333  0.16681406
   0.41666667  0.33333333  0.50014739
   0.41666667  0.33333333  0.83348073
   0.41666667  0.58333333  0.16681406
   0.41666667  0.58333333  0.50014739
   0.41666667  0.58333333  0.83348073
   0.41666667  0.83333333  0.16681406
   0.41666667  0.83333333  0.50014739
   0.41666667  0.83333333  0.83348073
   0.66666667  0.08333333  0.16681406
   0.66666667  0.08333333  0.50014739
   0.66666667  0.08333333  0.83348073
   0.66666667  0.33333333  0.16681406
   0.66666667  0.33333333  0.50014739
   0.66666667  0.33333333  0.83348073
   0.66666667  0.58333333  0.16681406
   0.66666667  0.58333333  0.50014739
   0.66666667  0.58333333  0.83348073
   0.66666667  0.83333333  0.16681406
   0.66666667  0.83333333  0.50014739
   0.66666667  0.83333333  0.83348073
   0.91582834  0.07769367  0.16034183
   0.91666667  0.08333333  0.50014739
   0.91666667  0.08333333  0.83348073
   0.91666667  0.33333333  0.16681406
   0.91666667  0.33333333  0.50014739
   0.91666667  0.33333333  0.83348073
   0.91666667  0.58333333  0.16681406
   0.91666667  0.58333333  0.50014739
   0.91666667  0.58333333  0.83348073
   0.92483450  0.82780121  0.16405601
   0.91666667  0.83333333  0.50014739
   0.91666667  0.83333333  0.83348073
   0.08520833  0.16656486  0.12690963
   0.08333333  0.16666667  0.46048594
   0.08333333  0.16666667  0.79381927
   0.08333333  0.41666667  0.12715261
   0.08333333  0.41666667  0.46048594
   0.08333333  0.41666667  0.79381927
   0.08333333  0.66666667  0.12715261
   0.08333333  0.66666667  0.46048594
   0.08333333  0.66666667  0.79381927
   0.08670324  0.91732468  0.12297209
   0.08333333  0.91666667  0.46048594
   0.08333333  0.91666667  0.79381927
   0.33333333  0.16666667  0.12715261
   0.33333333  0.16666667  0.46048594
   0.33333333  0.16666667  0.79381927
   0.33333333  0.41666667  0.12715261
   0.33333333  0.41666667  0.46048594
   0.33333333  0.41666667  0.79381927
   0.33333333  0.66666667  0.12715261
   0.33333333  0.66666667  0.46048594
   0.33333333  0.66666667  0.79381927
   0.33333333  0.91666667  0.12715261
   0.33333333  0.91666667  0.46048594
   0.33333333  0.91666667  0.79381927
   0.58333333  0.16666667  0.12715261
   0.58333333  0.16666667  0.46048594
   0.58333333  0.16666667  0.79381927
   0.58333333  0.41666667  0.12715261
   0.58333333  0.41666667  0.46048594
   0.58333333  0.41666667  0.79381927
   0.58333333  0.66666667  0.12715261
   0.58333333  0.66666667  0.46048594
   0.58333333  0.66666667  0.79381927
   0.58333333  0.91666667  0.12715261
   0.58333333  0.91666667  0.46048594
   0.58333333  0.91666667  0.79381927
   0.83333333  0.16666667  0.12715261
   0.83333333  0.16666667  0.46048594
   0.83333333  0.16666667  0.79381927
   0.83333333  0.41666667  0.12715261
   0.83333333  0.41666667  0.46048594
   0.83333333  0.41666667  0.79381927
   0.83333333  0.66666667  0.12715261
   0.83333333  0.66666667  0.46048594
   0.83333333  0.66666667  0.79381927
   0.83759376  0.92378311  0.12683260
   0.83333333  0.91666667  0.46048594
   0.83333333  0.91666667  0.79381927
   0.16903635  0.08301859  0.29517085
   0.16666667  0.08333333  0.62715261
   0.16666667  0.08333333  0.96048594
   0.16666667  0.33333333  0.29381927
   0.16666667  0.33333333  0.62715261
   0.16666667  0.33333333  0.96048594
   0.16666667  0.58333333  0.29381927
   0.16666667  0.58333333  0.62715261
   0.16666667  0.58333333  0.96048594
   0.16666667  0.83333333  0.29381927
   0.16666667  0.83333333  0.62715261
   0.16666667  0.83333333  0.96048594
   0.41666667  0.08333333  0.29381927
   0.41666667  0.08333333  0.62715261
   0.41666667  0.08333333  0.96048594
   0.41666667  0.33333333  0.29381927
   0.41666667  0.33333333  0.62715261
   0.41666667  0.33333333  0.96048594
   0.41666667  0.58333333  0.29381927
   0.41666667  0.58333333  0.62715261
   0.41666667  0.58333333  0.96048594
   0.41666667  0.83333333  0.29381927
   0.41666667  0.83333333  0.62715261
   0.41666667  0.83333333  0.96048594
   0.66666667  0.08333333  0.29381927
   0.66666667  0.08333333  0.62715261
   0.66666667  0.08333333  0.96048594
   0.66666667  0.33333333  0.29381927
   0.66666667  0.33333333  0.62715261
   0.66666667  0.33333333  0.96048594
   0.66666667  0.58333333  0.29381927
   0.66666667  0.58333333  0.62715261
   0.66666667  0.58333333  0.96048594
   0.66666667  0.83333333  0.29381927
   0.66666667  0.83333333  0.62715261
   0.66666667  0.83333333  0.96048594
   0.91524107  0.09302584  0.29541652
   0.91666667  0.08333333  0.62715261
   0.91666667  0.08333333  0.96048594
   0.91666667  0.33333333  0.29381927
   0.91666667  0.33333333  0.62715261
   0.91666667  0.33333333  0.96048594
   0.91666667  0.58333333  0.29381927
   0.91666667  0.58333333  0.62715261
   0.91666667  0.58333333  0.96048594
   0.91519217  0.83531395  0.29412462
   0.91666667  0.83333333  0.62715261
   0.91666667  0.83333333  0.96048594
   0.00000000  0.00000000  0.23214286
 
 position of ions in cartesian coordinates  (Angst):
  -0.00000000  1.87602610  0.00230400
  -0.01702186  1.89818745  5.25353578
  -0.00000000  1.87602610 10.42337313
  -1.62468626  4.69006525  0.00230400
  -1.62468626  4.69006525  5.21283857
  -1.62468626  4.69006525 10.42337313
  -3.24937253  7.50410441  0.00230400
  -3.24937253  7.50410441  5.21283857
  -3.24937253  7.50410441 10.42337313
  -4.87405879 10.31814356  0.00230400
  -4.89528274 10.30613340  5.23518817
  -4.87405879 10.31814356 10.42337313
   3.24937252  1.87602610  0.00230400
   3.24937252  1.87602610  5.21283857
   3.24937252  1.87602610 10.42337313
   1.62468626  4.69006525  0.00230400
   1.62468626  4.69006525  5.21283857
   1.62468626  4.69006525 10.42337313
  -0.00000000  7.50410441  0.00230400
  -0.00000000  7.50410441  5.21283857
  -0.00000000  7.50410441 10.42337313
  -1.62468626 10.31814356  0.00230400
  -1.62468626 10.31814356  5.21283857
  -1.62468626 10.31814356 10.42337313
   6.49874505  1.87602610  0.00230400
   6.49874505  1.87602610  5.21283857
   6.49874505  1.87602610 10.42337313
   4.87405879  4.69006525  0.00230400
   4.87405879  4.69006525  5.21283857
   4.87405879  4.69006525 10.42337313
   3.24937252  7.50410441  0.00230400
   3.24937252  7.50410441  5.21283857
   3.24937252  7.50410441 10.42337313
   1.62468626 10.31814356  0.00230400
   1.62468626 10.31814356  5.21283857
   1.62468626 10.31814356 10.42337313
   9.74811757  1.87602610  0.00230400
   9.74811757  1.87602610  5.21283857
   9.74811757  1.87602610 10.42337313
   8.12343131  4.69006525  0.00230400
   8.12343131  4.69006525  5.21283857
   8.12343131  4.69006525 10.42337313
   6.49874505  7.50410441  0.00230400
   6.49874505  7.50410441  5.21283857
   6.49874505  7.50410441 10.42337313
   4.87405879 10.31814356  0.00230400
   4.83534377 10.33332200  5.25447733
   4.87405879 10.31814356 10.42337313
   1.50145169  0.89220639  2.73475384
   1.62468626  0.93801305  7.81810585
   1.62468626  0.93801305 13.02864041
   0.00000000  3.75205220  2.60757128
   0.00000000  3.75205220  7.81810585
   0.00000000  3.75205220 13.02864041
  -1.62468626  6.56609136  2.60757128
  -1.62468626  6.56609136  7.81810585
  -1.62468626  6.56609136 13.02864041
  -3.24937252  9.38013051  2.60757128
  -3.24937252  9.38013051  7.81810585
  -3.24937252  9.38013051 13.02864041
   4.87405879  0.93801305  2.60757128
   4.87405879  0.93801305  7.81810585
   4.87405879  0.93801305 13.02864041
   3.24937253  3.75205220  2.60757128
   3.24937253  3.75205220  7.81810585
   3.24937253  3.75205220 13.02864041
   1.62468626  6.56609136  2.60757128
   1.62468626  6.56609136  7.81810585
   1.62468626  6.56609136 13.02864041
   0.00000000  9.38013051  2.60757128
   0.00000000  9.38013051  7.81810585
   0.00000000  9.38013051 13.02864041
   8.12343131  0.93801305  2.60757128
   8.12343131  0.93801305  7.81810585
   8.12343131  0.93801305 13.02864041
   6.49874505  3.75205220  2.60757128
   6.49874505  3.75205220  7.81810585
   6.49874505  3.75205220 13.02864041
   4.87405879  6.56609136  2.60757128
   4.87405879  6.56609136  7.81810585
   4.87405879  6.56609136 13.02864041
   3.24937253  9.38013051  2.60757128
   3.24937253  9.38013051  7.81810585
   3.24937253  9.38013051 13.02864041
  11.39855849  0.87453212  2.50639998
  11.37280384  0.93801305  7.81810585
  11.37280384  0.93801305 13.02864041
   9.74811757  3.75205220  2.60757128
   9.74811757  3.75205220  7.81810585
   9.74811757  3.75205220 13.02864041
   8.12343131  6.56609136  2.60757128
   8.12343131  6.56609136  7.81810585
   8.12343131  6.56609136 13.02864041
   6.64085829  9.31786005  2.56445852
   6.49874505  9.38013051  7.81810585
   6.49874505  9.38013051 13.02864041
   0.02503180  1.87488016  1.98380105
  -0.00000000  1.87602610  7.19813371
  -0.00000000  1.87602610 12.40866827
  -1.62468626  4.69006525  1.98759915
  -1.62468626  4.69006525  7.19813371
  -1.62468626  4.69006525 12.40866827
  -3.24937253  7.50410441  1.98759915
  -3.24937253  7.50410441  7.19813371
  -3.24937253  7.50410441 12.40866827
  -4.83453471 10.32555029  1.92225093
  -4.87405879 10.31814356  7.19813371
  -4.87405879 10.31814356 12.40866827
   3.24937252  1.87602610  1.98759915
   3.24937252  1.87602610  7.19813371
   3.24937252  1.87602610 12.40866827
   1.62468626  4.69006525  1.98759915
   1.62468626  4.69006525  7.19813371
   1.62468626  4.69006525 12.40866827
  -0.00000000  7.50410441  1.98759915
  -0.00000000  7.50410441  7.19813371
  -0.00000000  7.50410441 12.40866827
  -1.62468626 10.31814356  1.98759915
  -1.62468626 10.31814356  7.19813371
  -1.62468626 10.31814356 12.40866827
   6.49874505  1.87602610  1.98759915
   6.49874505  1.87602610  7.19813371
   6.49874505  1.87602610 12.40866827
   4.87405879  4.69006525  1.98759915
   4.87405879  4.69006525  7.19813371
   4.87405879  4.69006525 12.40866827
   3.24937252  7.50410441  1.98759915
   3.24937252  7.50410441  7.19813371
   3.24937252  7.50410441 12.40866827
   1.62468626 10.31814356  1.98759915
   1.62468626 10.31814356  7.19813371
   1.62468626 10.31814356 12.40866827
   9.74811757  1.87602610  1.98759915
   9.74811757  1.87602610  7.19813371
   9.74811757  1.87602610 12.40866827
   8.12343131  4.69006525  1.98759915
   8.12343131  4.69006525  7.19813371
   8.12343131  4.69006525 12.40866827
   6.49874505  7.50410441  1.98759915
   6.49874505  7.50410441  7.19813371
   6.49874505  7.50410441 12.40866827
   4.88318568 10.39824740  1.98259697
   4.87405879 10.31814356  7.19813371
   4.87405879 10.31814356 12.40866827
   1.65753166  0.93447026  4.61399377
   1.62468626  0.93801305  9.80340099
   1.62468626  0.93801305 15.01393556
   0.00000000  3.75205220  4.59286643
   0.00000000  3.75205220  9.80340099
   0.00000000  3.75205220 15.01393556
  -1.62468626  6.56609136  4.59286643
  -1.62468626  6.56609136  9.80340099
  -1.62468626  6.56609136 15.01393556
[...]

  energy without entropy =    -1210.46728241  energy(sigma->0) =    -1210.46728241
  exchange ACFDT corr.  =        -0.24668809  see jH, gK, PRB 81, 115126


--------------------------------------------------------------------------------------------------------




--------------------------------------- Iteration      3(  29)  ---------------------------------------


    POTLOK:  cpu time      0.2878: real time      0.3040
    SETDIJ:  cpu time      0.8077: real time      0.8211
    TRIAL :  cpu time   1754.1000: real time   1762.9681
    CORREC:  cpu time      0.0018: real time      0.0031
    CHARGE:  cpu time      0.5746: real time      0.6210
    --------------------------------------------
      LOOP:  cpu time   1755.7934: real time   1764.7589

 eigenvalue-minimisations  :     0
 total energy-change (2. order) :-0.7815519E-04  (-0.6750663E-04)
 number of electron    1736.0002566 magnetization       0.0000000
 augmentation part      849.0367925 magnetization      -0.0001755

 Free energy of the ion-electron system (eV)
  ---------------------------------------------------
  alpha Z        PSCENC =     11503.89908733
  Ewald energy   TEWEN  =   -143195.00489827
  -Hartree energ DENC   =    -63921.21322379
  -exchange      EXHF   =      7344.00878871
  -V(xc)+E(xc)   XCENC  =      5456.91756681
  PAW double counting   =    212247.84951459  -227866.58181822
  entropy T*S    EENTRO =        -0.00000000
  eigenvalues    EBANDS =    -12448.18692100
  atomic energy  EATOM  =    209667.84454329
  ---------------------------------------------------
  free energy    TOTEN  =     -1210.46736056 eV

  energy without entropy =    -1210.46736056  energy(sigma->0) =    -1210.46736056
  exchange ACFDT corr.  =        -0.24668855  see jH, gK, PRB 81, 115126


--------------------------------------------------------------------------------------------------------




--------------------------------------- Iteration      3(  30)  ---------------------------------------


    POTLOK:  cpu time      0.2901: real time      0.3069
    SETDIJ:  cpu time      0.8018: real time      0.8167
    TRIAL :  cpu time   1754.4452: real time   1763.0766
    CORREC:  cpu time      0.0021: real time      0.0031
    CHARGE:  cpu time      0.6060: real time      0.6269
    --------------------------------------------
      LOOP:  cpu time   1756.1643: real time   1764.8583

 eigenvalue-minimisations  :     0
 total energy-change (2. order) :-0.6549041E-04  (-0.5714936E-04)
 number of electron    1736.0002566 magnetization       0.0000000
 augmentation part      849.0363028 magnetization      -0.0001685

 Free energy of the ion-electron system (eV)
  ---------------------------------------------------
  alpha Z        PSCENC =     11503.89908733
  Ewald energy   TEWEN  =   -143195.00489827
  -Hartree energ DENC   =    -63921.22118444
  -exchange      EXHF   =      7344.00922095
  -V(xc)+E(xc)   XCENC  =      5456.91784646
  PAW double counting   =    212248.08011931  -227866.80544100
  entropy T*S    EENTRO =        -0.00000000
  eigenvalues    EBANDS =    -12448.18671967
  atomic energy  EATOM  =    209667.84454329
  ---------------------------------------------------
  free energy    TOTEN  =     -1210.46742605 eV

  energy without entropy =    -1210.46742605  energy(sigma->0) =    -1210.46742605
  exchange ACFDT corr.  =        -0.24668787  see jH, gK, PRB 81, 115126


--------------------------------------------------------------------------------------------------------




--------------------------------------- Iteration      3(  31)  ---------------------------------------


    POTLOK:  cpu time      0.2857: real time      0.3014
    SETDIJ:  cpu time      0.8047: real time      0.8201
    TRIAL :  cpu time   1754.7439: real time   1762.9691
    CORREC:  cpu time      0.0023: real time      0.0033
    CHARGE:  cpu time      0.5933: real time      0.6997
    --------------------------------------------
      LOOP:  cpu time   1756.4519: real time   1764.8334

 eigenvalue-minimisations  :     0
 total energy-change (2. order) :-0.5557324E-04  (-0.4906053E-04)
 number of electron    1736.0002566 magnetization       0.0000000
 augmentation part      849.0358612 magnetization      -0.0001618

 Free energy of the ion-electron system (eV)
  ---------------------------------------------------
  alpha Z        PSCENC =     11503.89908733
  Ewald energy   TEWEN  =   -143195.00489827
  -Hartree energ DENC   =    -63921.22822891
  -exchange      EXHF   =      7344.00962152
  -V(xc)+E(xc)   XCENC  =      5456.91810007
  PAW double counting   =    212248.28239191  -227867.00147013
  entropy T*S    EENTRO =        -0.00000000
  eigenvalues    EBANDS =    -12448.18662843
  atomic energy  EATOM  =    209667.84454329
  ---------------------------------------------------
  free energy    TOTEN  =     -1210.46748163 eV

  energy without entropy =    -1210.46748163  energy(sigma->0) =    -1210.46748163
  exchange ACFDT corr.  =        -0.24668734  see jH, gK, PRB 81, 115126


--------------------------------------------------------------------------------------------------------




--------------------------------------- Iteration      3(  32)  ---------------------------------------


    POTLOK:  cpu time      0.3036: real time      0.3415
    SETDIJ:  cpu time      0.8012: real time      0.8167
    TRIAL :  cpu time   1753.0074: real time   1761.5030
    CORREC:  cpu time      0.0018: real time      0.0032
    CHARGE:  cpu time      0.6087: real time      0.6295
    --------------------------------------------
      LOOP:  cpu time   1754.7451: real time   1763.3377

 eigenvalue-minimisations  :     0
 total energy-change (2. order) :-0.4779089E-04  (-0.4291912E-04)
 number of electron    1736.0002566 magnetization       0.0000000
 augmentation part      849.0354540 magnetization      -0.0001554

 Free energy of the ion-electron system (eV)
  ---------------------------------------------------
  alpha Z        PSCENC =     11503.89908733
  Ewald energy   TEWEN  =   -143195.00489827
  -Hartree energ DENC   =    -63921.23367243
  -exchange      EXHF   =      7344.00995862
  -V(xc)+E(xc)   XCENC  =      5456.91830421
  PAW double counting   =    212248.46307799  -227867.17606717
  entropy T*S    EENTRO =        -0.00000000
  eigenvalues    EBANDS =    -12448.18786299
  atomic energy  EATOM  =    209667.84454329
  ---------------------------------------------------
  free energy    TOTEN  =     -1210.46752942 eV

  energy without entropy =    -1210.46752942  energy(sigma->0) =    -1210.46752942
  exchange ACFDT corr.  =        -0.24668726  see jH, gK, PRB 81, 115126


--------------------------------------------------------------------------------------------------------




--------------------------------------- Iteration      3(  33)  ---------------------------------------


    POTLOK:  cpu time      0.2949: real time      0.3108
    SETDIJ:  cpu time      0.7773: real time      0.7966
    TRIAL :  cpu time   1754.1438: real time   1762.9968
    CORREC:  cpu time      0.0019: real time      0.0034
    CHARGE:  cpu time      0.6116: real time      0.6609
    --------------------------------------------
      LOOP:  cpu time   1755.8534: real time   1764.8231

 eigenvalue-minimisations  :     0
 total energy-change (2. order) :-0.4186023E-04  (-0.3840195E-04)
 number of electron    1736.0002566 magnetization       0.0000000
 augmentation part      849.0350725 magnetization      -0.0001492

 Free energy of the ion-electron system (eV)
  ---------------------------------------------------
  alpha Z        PSCENC =     11503.89908733
  Ewald energy   TEWEN  =   -143195.00489827
  -Hartree energ DENC   =    -63921.23816073
  -exchange      EXHF   =      7344.01025184
  -V(xc)+E(xc)   XCENC  =      5456.91847592
  PAW double counting   =    212248.62835219  -227867.33551522
  entropy T*S    EENTRO =        -0.00000000
  eigenvalues    EBANDS =    -12448.18970760
  atomic energy  EATOM  =    209667.84454329
  ---------------------------------------------------
  free energy    TOTEN  =     -1210.46757128 eV

  energy without entropy =    -1210.46757128  energy(sigma->0) =    -1210.46757128
  exchange ACFDT corr.  =        -0.24668745  see jH, gK, PRB 81, 115126


--------------------------------------------------------------------------------------------------------




--------------------------------------- Iteration      3(  34)  ---------------------------------------


    POTLOK:  cpu time      0.2930: real time      0.3100
    SETDIJ:  cpu time      0.7792: real time      0.7911
    TRIAL :  cpu time   1756.7130: real time   1764.6187
    CORREC:  cpu time      0.0019: real time      0.0031
    CHARGE:  cpu time      0.6104: real time      0.6303
    --------------------------------------------
      LOOP:  cpu time   1758.4185: real time   1766.3942

 eigenvalue-minimisations  :     0
 total energy-change (2. order) :-0.3747994E-04  (-0.3498055E-04)
 number of electron    1736.0002566 magnetization       0.0000000
 augmentation part      849.0347095 magnetization      -0.0001432

 Free energy of the ion-electron system (eV)
  ---------------------------------------------------
  alpha Z        PSCENC =     11503.89908733
  Ewald energy   TEWEN  =   -143195.00489827
  -Hartree energ DENC   =    -63921.24244510
  -exchange      EXHF   =      7344.01053021
  -V(xc)+E(xc)   XCENC  =      5456.91863818
  PAW double counting   =    212248.78311033  -227867.48487536
  entropy T*S    EENTRO =        -0.00000000
  eigenvalues    EBANDS =    -12448.19129936
  atomic energy  EATOM  =    209667.84454329
  ---------------------------------------------------
  free energy    TOTEN  =     -1210.46760876 eV

  energy without entropy =    -1210.46760876  energy(sigma->0) =    -1210.46760876
  exchange ACFDT corr.  =        -0.24668774  see jH, gK, PRB 81, 115126


--------------------------------------------------------------------------------------------------------




--------------------------------------- Iteration      3(  35)  ---------------------------------------


    POTLOK:  cpu time      0.2962: real time      0.3298
    SETDIJ:  cpu time      0.8055: real time      0.8185
    TRIAL :  cpu time   1754.3229: real time   1761.8853
    CORREC:  cpu time      0.0019: real time      0.0032
    CHARGE:  cpu time      0.5920: real time      0.6157
    --------------------------------------------
      LOOP:  cpu time   1756.0395: real time   1763.6920

 eigenvalue-minimisations  :     0
 total energy-change (2. order) :-0.3414569E-04  (-0.3218262E-04)
 number of electron    1736.0002566 magnetization       0.0000000
 augmentation part      849.0343590 magnetization      -0.0001373

 Free energy of the ion-electron system (eV)
  ---------------------------------------------------
  alpha Z        PSCENC =     11503.89908733
  Ewald energy   TEWEN  =   -143195.00489827
  -Hartree energ DENC   =    -63921.24678730
  -exchange      EXHF   =      7344.01080862
  -V(xc)+E(xc)   XCENC  =      5456.91880080
  PAW double counting   =    212248.93050718  -227867.62723554
  entropy T*S    EENTRO =        -0.00000000
  eigenvalues    EBANDS =    -12448.19246901
  atomic energy  EATOM  =    209667.84454329
  ---------------------------------------------------
  free energy    TOTEN  =     -1210.46764290 eV

  energy without entropy =    -1210.46764290  energy(sigma->0) =    -1210.46764290
  exchange ACFDT corr.  =        -0.24668807  see jH, gK, PRB 81, 115126


--------------------------------------------------------------------------------------------------------




--------------------------------------- Iteration      3(  36)  ---------------------------------------


    POTLOK:  cpu time      0.2931: real time      0.3062
    SETDIJ:  cpu time      0.7803: real time      0.7924
    TRIAL :  cpu time   1755.5386: real time   1762.9918
    CORREC:  cpu time      0.0023: real time      0.0032
    CHARGE:  cpu time      0.6086: real time      0.6268
    --------------------------------------------
      LOOP:  cpu time   1757.2436: real time   1764.7588

 eigenvalue-minimisations  :     0
 total energy-change (2. order) :-0.3139678E-04  (-0.2988883E-04)
 number of electron    1736.0002566 magnetization       0.0000000
 augmentation part      849.0340173 magnetization      -0.0001316

 Free energy of the ion-electron system (eV)
  ---------------------------------------------------
  alpha Z        PSCENC =     11503.89908733
  Ewald energy   TEWEN  =   -143195.00489827
  -Hartree energ DENC   =    -63921.25106753
  -exchange      EXHF   =      7344.01108287
  -V(xc)+E(xc)   XCENC  =      5456.91896096
  PAW double counting   =    212249.07244829  -227867.76435146
  entropy T*S    EENTRO =        -0.00000000
  eigenvalues    EBANDS =    -12448.19347977
  atomic energy  EATOM  =    209667.84454329
  ---------------------------------------------------
  free energy    TOTEN  =     -1210.46767430 eV

  energy without entropy =    -1210.46767430  energy(sigma->0) =    -1210.46767430
  exchange ACFDT corr.  =        -0.24668844  see jH, gK, PRB 81, 115126


--------------------------------------------------------------------------------------------------------




--------------------------------------- Iteration      3(  37)  ---------------------------------------


    POTLOK:  cpu time      0.2920: real time      0.3025
    SETDIJ:  cpu time      0.7470: real time      0.7608
    TRIAL :  cpu time   1757.7722: real time   1766.1113
    CORREC:  cpu time      0.0021: real time      0.0032
    CHARGE:  cpu time      0.6028: real time      0.6277
    --------------------------------------------
      LOOP:  cpu time   1759.4369: real time   1767.8409

 eigenvalue-minimisations  :     0
 total energy-change (2. order) :-0.2905326E-04  (-0.2837417E-04)
 number of electron    1736.0002566 magnetization       0.0000000
 augmentation part      849.0336785 magnetization      -0.0001257

 Free energy of the ion-electron system (eV)
  ---------------------------------------------------
  alpha Z        PSCENC =     11503.89908733
  Ewald energy   TEWEN  =   -143195.00489827
  -Hartree energ DENC   =    -63921.25525232
  -exchange      EXHF   =      7344.01135551
  -V(xc)+E(xc)   XCENC  =      5456.91911889
  PAW double counting   =    212249.21061210  -227867.89776783
  entropy T*S    EENTRO =        -0.00000000
  eigenvalues    EBANDS =    -12448.19450206
  atomic energy  EATOM  =    209667.84454329
  ---------------------------------------------------
  free energy    TOTEN  =     -1210.46770335 eV

  energy without entropy =    -1210.46770335  energy(sigma->0) =    -1210.46770335
  exchange ACFDT corr.  =        -0.24668885  see jH, gK, PRB 81, 115126


--------------------------------------------------------------------------------------------------------




--------------------------------------- Iteration      3(  38)  ---------------------------------------


    POTLOK:  cpu time      0.2911: real time      0.3106
    SETDIJ:  cpu time      0.7935: real time      0.8099
    TRIAL :  cpu time   1754.4847: real time   1762.0729
    CORREC:  cpu time      0.0020: real time      0.0034
    CHARGE:  cpu time      0.6062: real time      0.6236
    --------------------------------------------
      LOOP:  cpu time   1756.1973: real time   1763.8614

 eigenvalue-minimisations  :     0
 total energy-change (2. order) :-0.2682500E-04  (-0.2955371E-04)
 number of electron    1736.0002566 magnetization       0.0000000
 augmentation part      849.0333432 magnetization      -0.0001202

 Free energy of the ion-electron system (eV)
  ---------------------------------------------------
  alpha Z        PSCENC =     11503.89908733
  Ewald energy   TEWEN  =   -143195.00489827
  -Hartree energ DENC   =    -63921.25928967
  -exchange      EXHF   =      7344.01161475
  -V(xc)+E(xc)   XCENC  =      5456.91927016
  PAW double counting   =    212249.34688974  -227868.02938677
  entropy T*S    EENTRO =        -0.00000000
  eigenvalues    EBANDS =    -12448.19556074
  atomic energy  EATOM  =    209667.84454329
  ---------------------------------------------------
  free energy    TOTEN  =     -1210.46773018 eV

  energy without entropy =    -1210.46773018  energy(sigma->0) =    -1210.46773018
  exchange ACFDT corr.  =        -0.24668927  see jH, gK, PRB 81, 115126


--------------------------------------------------------------------------------------------------------




--------------------------------------- Iteration      3(  39)  ---------------------------------------


    POTLOK:  cpu time      0.3003: real time      0.3558
    SETDIJ:  cpu time      0.7796: real time      0.7952
    TRIAL :  cpu time   1754.7394: real time   1762.7788
    CORREC:  cpu time      0.0024: real time      0.0034
    CHARGE:  cpu time      0.6020: real time      0.6563
    --------------------------------------------
      LOOP:  cpu time   1756.4422: real time   1764.6305

 eigenvalue-minimisations  :     0
 total energy-change (2. order) :-0.2331095E-04  (-0.4289718E-04)
 number of electron    1736.0002566 magnetization       0.0000000
 augmentation part      849.0330009 magnetization      -0.0001135

 Free energy of the ion-electron system (eV)
  ---------------------------------------------------
  alpha Z        PSCENC =     11503.89908733
  Ewald energy   TEWEN  =   -143195.00489827
  -Hartree energ DENC   =    -63921.26345118
  -exchange      EXHF   =      7344.01189283
  -V(xc)+E(xc)   XCENC  =      5456.91942926
  PAW double counting   =    212249.48239089  -227868.16014927
  entropy T*S    EENTRO =        -0.00000000
  eigenvalues    EBANDS =    -12448.19659836
  atomic energy  EATOM  =    209667.84454329
  ---------------------------------------------------
  free energy    TOTEN  =     -1210.46775349 eV

  energy without entropy =    -1210.46775349  energy(sigma->0) =    -1210.46775349
  exchange ACFDT corr.  =        -0.24668969  see jH, gK, PRB 81, 115126


--------------------------------------------------------------------------------------------------------




--------------------------------------- Iteration      3(  40)  ---------------------------------------


    POTLOK:  cpu time      0.2870: real time      0.3035
    SETDIJ:  cpu time      0.7813: real time      0.7937
    TRIAL :  cpu time   1753.8232: real time   1761.7258
    CORREC:  cpu time      0.0023: real time      0.0034
    CHARGE:  cpu time      0.6085: real time      0.6508
    --------------------------------------------
      LOOP:  cpu time   1755.5277: real time   1763.5222

 eigenvalue-minimisations  :     0
 total energy-change (2. order) :-0.1358893E-04  (-0.1010144E-03)
 number of electron    1736.0002566 magnetization       0.0000000
 augmentation part      849.0326672 magnetization      -0.0001091

 Free energy of the ion-electron system (eV)
  ---------------------------------------------------
  alpha Z        PSCENC =     11503.89908733
  Ewald energy   TEWEN  =   -143195.00489827
  -Hartree energ DENC   =    -63921.26741362
  -exchange      EXHF   =      7344.01213389
  -V(xc)+E(xc)   XCENC  =      5456.91957420
  PAW double counting   =    212249.61920280  -227868.29242342
  entropy T*S    EENTRO =        -0.00000000
  eigenvalues    EBANDS =    -12448.19757327
  atomic energy  EATOM  =    209667.84454329
  ---------------------------------------------------
  free energy    TOTEN  =     -1210.46776708 eV

  energy without entropy =    -1210.46776708  energy(sigma->0) =    -1210.46776708
  exchange ACFDT corr.  =        -0.24669011  see jH, gK, PRB 81, 115126


--------------------------------------------------------------------------------------------------------




--------------------------------------- Iteration      3(  41)  ---------------------------------------


    POTLOK:  cpu time      0.2943: real time      0.3103
    SETDIJ:  cpu time      0.8043: real time      0.8204
