<?xml version="1.0" encoding="ISO-8859-1"?>
<modeling>
 <generator>
  <i name="program" type="string">vasp </i>
  <i name="version" type="string">6.5.1  </i>
  <i name="subversion" type="string">10Mar25 (build May 05 2025 13:45:00) complex                          parallel </i>
  <i name="platform" type="string">LinuxIFC </i>
  <i name="date" type="string">2026 04 28 </i>
  <i name="time" type="string">12:50:42 </i>
 </generator>
 <incar>
  <i type="string" name="PREC">Normal</i>
  <i type="string" name="ALGO">Damped</i>
  <i type="int" name="ISPIN">     2</i>
  <i type="int" name="NELM">   100</i>
  <i type="int" name="IBRION">     2</i>
  <i name="EDIFF">      0.00001000</i>
  <i name="EDIFFG">     -0.03000000</i>
  <i type="int" name="NSW">   300</i>
  <i type="int" name="ISIF">     2</i>
  <i name="ENCUT">    400.00000000</i>
  <i name="NELECT">   1736.00000000</i>
  <i type="string" name="LREAL">Auto</i>
  <i name="TIME">      0.40000000</i>
  <i type="int" name="ISMEAR">     0</i>
  <i name="SIGMA">      0.10000000</i>
  <i type="logical" name="LWAVE"> T  </i>
  <i type="logical" name="LCHARG"> F  </i>
  <i type="int" name="LORBIT">    10</i>
  <i type="logical" name="LASPH"> T  </i>
  <i name="HFSCREEN">      0.20000000</i>
  <i type="logical" name="LHFCALC"> T  </i>
  <i name="AEXX">      0.36000000</i>
  <i type="string" name="PRECFOCK">Fast</i>
 </incar>
 <primitive_cell>
  <structure name="primitive_cell" >
   <crystal>
    <varray name="basis" >
     <v>      12.99749010       0.00000000       0.00000000 </v>
     <v>      -6.49874505      11.25615661       0.00000000 </v>
     <v>       0.00000000       0.00000000      15.63160369 </v>
    </varray>
    <i name="volume">   2286.93150813 </i>
    <varray name="rec_basis" >
     <v>       0.07693793       0.04442014       0.00000000 </v>
     <v>       0.00000000       0.08884027       0.00000000 </v>
     <v>       0.00000000       0.00000000       0.06397296 </v>
    </varray>
   </crystal>
   <varray name="positions" >
    <v>       0.08333333       0.16666667       0.00014739 </v>
    <v>       0.08300812       0.16863549       0.33608425 </v>
    <v>       0.08333333       0.16666667       0.66681406 </v>
    <v>       0.08333333       0.41666667       0.00014739 </v>
    <v>       0.08333333       0.41666667       0.33348073 </v>
    <v>       0.08333333       0.41666667       0.66681406 </v>
    <v>       0.08333333       0.66666667       0.00014739 </v>
    <v>       0.08333333       0.66666667       0.33348073 </v>
    <v>       0.08333333       0.66666667       0.66681406 </v>
    <v>       0.08333333       0.91666667       0.00014739 </v>
    <v>       0.08116691       0.91559968       0.33491050 </v>
    <v>       0.08333333       0.91666667       0.66681406 </v>
    <v>       0.33333333       0.16666667       0.00014739 </v>
    <v>       0.33333333       0.16666667       0.33348073 </v>
    <v>       0.33333333       0.16666667       0.66681406 </v>
    <v>       0.33333333       0.41666667       0.00014739 </v>
    <v>       0.33333333       0.41666667       0.33348073 </v>
    <v>       0.33333333       0.41666667       0.66681406 </v>
    <v>       0.33333333       0.66666667       0.00014739 </v>
    <v>       0.33333333       0.66666667       0.33348073 </v>
    <v>       0.33333333       0.66666667       0.66681406 </v>
    <v>       0.33333333       0.91666667       0.00014739 </v>
    <v>       0.33333333       0.91666667       0.33348073 </v>
    <v>       0.33333333       0.91666667       0.66681406 </v>
    <v>       0.58333333       0.16666667       0.00014739 </v>
    <v>       0.58333333       0.16666667       0.33348073 </v>
    <v>       0.58333333       0.16666667       0.66681406 </v>
    <v>       0.58333333       0.41666667       0.00014739 </v>
    <v>       0.58333333       0.41666667       0.33348073 </v>
    <v>       0.58333333       0.41666667       0.66681406 </v>
    <v>       0.58333333       0.66666667       0.00014739 </v>
    <v>       0.58333333       0.66666667       0.33348073 </v>
    <v>       0.58333333       0.66666667       0.66681406 </v>
    <v>       0.58333333       0.91666667       0.00014739 </v>
    <v>       0.58333333       0.91666667       0.33348073 </v>
    <v>       0.58333333       0.91666667       0.66681406 </v>
    <v>       0.83333333       0.16666667       0.00014739 </v>
    <v>       0.83333333       0.16666667       0.33348073 </v>
    <v>       0.83333333       0.16666667       0.66681406 </v>
    <v>       0.83333333       0.41666667       0.00014739 </v>
    <v>       0.83333333       0.41666667       0.33348073 </v>
    <v>       0.83333333       0.41666667       0.66681406 </v>
    <v>       0.83333333       0.66666667       0.00014739 </v>
    <v>       0.83333333       0.66666667       0.33348073 </v>
    <v>       0.83333333       0.66666667       0.66681406 </v>
    <v>       0.83333333       0.91666667       0.00014739 </v>
    <v>       0.83102891       0.91801512       0.33614448 </v>
    <v>       0.83333333       0.91666667       0.66681406 </v>
    <v>       0.15515052       0.07926386       0.17495031 </v>
    <v>       0.16666667       0.08333333       0.50014739 </v>
    <v>       0.16666667       0.08333333       0.83348073 </v>
    <v>       0.16666667       0.33333333       0.16681406 </v>
    <v>       0.16666667       0.33333333       0.50014739 </v>
    <v>       0.16666667       0.33333333       0.83348073 </v>
    <v>       0.16666667       0.58333333       0.16681406 </v>
    <v>       0.16666667       0.58333333       0.50014739 </v>
    <v>       0.16666667       0.58333333       0.83348073 </v>
    <v>       0.16666667       0.83333333       0.16681406 </v>
    <v>       0.16666667       0.83333333       0.50014739 </v>
    <v>       0.16666667       0.83333333       0.83348073 </v>
    <v>       0.41666667       0.08333333       0.16681406 </v>
    <v>       0.41666667       0.08333333       0.50014739 </v>
    <v>       0.41666667       0.08333333       0.83348073 </v>
    <v>       0.41666667       0.33333333       0.16681406 </v>
    <v>       0.41666667       0.33333333       0.50014739 </v>
    <v>       0.41666667       0.33333333       0.83348073 </v>
    <v>       0.41666667       0.58333333       0.16681406 </v>
    <v>       0.41666667       0.58333333       0.50014739 </v>
    <v>       0.41666667       0.58333333       0.83348073 </v>
    <v>       0.41666667       0.83333333       0.16681406 </v>
    <v>       0.41666667       0.83333333       0.50014739 </v>
    <v>       0.41666667       0.83333333       0.83348073 </v>
    <v>       0.66666667       0.08333333       0.16681406 </v>
    <v>       0.66666667       0.08333333       0.50014739 </v>
    <v>       0.66666667       0.08333333       0.83348073 </v>
    <v>       0.66666667       0.33333333       0.16681406 </v>
    <v>       0.66666667       0.33333333       0.50014739 </v>
    <v>       0.66666667       0.33333333       0.83348073 </v>
    <v>       0.66666667       0.58333333       0.16681406 </v>
    <v>       0.66666667       0.58333333       0.50014739 </v>
    <v>       0.66666667       0.58333333       0.83348073 </v>
    <v>       0.66666667       0.83333333       0.16681406 </v>
    <v>       0.66666667       0.83333333       0.50014739 </v>
    <v>       0.66666667       0.83333333       0.83348073 </v>
    <v>       0.91582834       0.07769367       0.16034183 </v>
    <v>       0.91666667       0.08333333       0.50014739 </v>
    <v>       0.91666667       0.08333333       0.83348073 </v>
    <v>       0.91666667       0.33333333       0.16681406 </v>
    <v>       0.91666667       0.33333333       0.50014739 </v>
    <v>       0.91666667       0.33333333       0.83348073 </v>
    <v>       0.91666667       0.58333333       0.16681406 </v>
    <v>       0.91666667       0.58333333       0.50014739 </v>
    <v>       0.91666667       0.58333333       0.83348073 </v>
    <v>       0.92483450       0.82780121       0.16405601 </v>
    <v>       0.91666667       0.83333333       0.50014739 </v>
    <v>       0.91666667       0.83333333       0.83348073 </v>
    <v>       0.08520833       0.16656486       0.12690963 </v>
    <v>       0.08333333       0.16666667       0.46048594 </v>
    <v>       0.08333333       0.16666667       0.79381927 </v>
    <v>       0.08333333       0.41666667       0.12715261 </v>
    <v>       0.08333333       0.41666667       0.46048594 </v>
    <v>       0.08333333       0.41666667       0.79381927 </v>
    <v>       0.08333333       0.66666667       0.12715261 </v>
    <v>       0.08333333       0.66666667       0.46048594 </v>
    <v>       0.08333333       0.66666667       0.79381927 </v>
    <v>       0.08670324       0.91732468       0.12297209 </v>
    <v>       0.08333333       0.91666667       0.46048594 </v>
    <v>       0.08333333       0.91666667       0.79381927 </v>
    <v>       0.33333333       0.16666667       0.12715261 </v>
    <v>       0.33333333       0.16666667       0.46048594 </v>
    <v>       0.33333333       0.16666667       0.79381927 </v>
    <v>       0.33333333       0.41666667       0.12715261 </v>
    <v>       0.33333333       0.41666667       0.46048594 </v>
    <v>       0.33333333       0.41666667       0.79381927 </v>
    <v>       0.33333333       0.66666667       0.12715261 </v>
    <v>       0.33333333       0.66666667       0.46048594 </v>
    <v>       0.33333333       0.66666667       0.79381927 </v>
    <v>       0.33333333       0.91666667       0.12715261 </v>
    <v>       0.33333333       0.91666667       0.46048594 </v>
    <v>       0.33333333       0.91666667       0.79381927 </v>
    <v>       0.58333333       0.16666667       0.12715261 </v>
    <v>       0.58333333       0.16666667       0.46048594 </v>
    <v>       0.58333333       0.16666667       0.79381927 </v>
    <v>       0.58333333       0.41666667       0.12715261 </v>
    <v>       0.58333333       0.41666667       0.46048594 </v>
    <v>       0.58333333       0.41666667       0.79381927 </v>
    <v>       0.58333333       0.66666667       0.12715261 </v>
    <v>       0.58333333       0.66666667       0.46048594 </v>
    <v>       0.58333333       0.66666667       0.79381927 </v>
    <v>       0.58333333       0.91666667       0.12715261 </v>
    <v>       0.58333333       0.91666667       0.46048594 </v>
    <v>       0.58333333       0.91666667       0.79381927 </v>
    <v>       0.83333333       0.16666667       0.12715261 </v>
    <v>       0.83333333       0.16666667       0.46048594 </v>
    <v>       0.83333333       0.16666667       0.79381927 </v>
    <v>       0.83333333       0.41666667       0.12715261 </v>
    <v>       0.83333333       0.41666667       0.46048594 </v>
    <v>       0.83333333       0.41666667       0.79381927 </v>
    <v>       0.83333333       0.66666667       0.12715261 </v>
    <v>       0.83333333       0.66666667       0.46048594 </v>
    <v>       0.83333333       0.66666667       0.79381927 </v>
    <v>       0.83759376       0.92378311       0.12683260 </v>
    <v>       0.83333333       0.91666667       0.46048594 </v>
    <v>       0.83333333       0.91666667       0.79381927 </v>
    <v>       0.16903635       0.08301859       0.29517085 </v>
    <v>       0.16666667       0.08333333       0.62715261 </v>
    <v>       0.16666667       0.08333333       0.96048594 </v>
    <v>       0.16666667       0.33333333       0.29381927 </v>
    <v>       0.16666667       0.33333333       0.62715261 </v>
    <v>       0.16666667       0.33333333       0.96048594 </v>
    <v>       0.16666667       0.58333333       0.29381927 </v>
    <v>       0.16666667       0.58333333       0.62715261 </v>
    <v>       0.16666667       0.58333333       0.96048594 </v>
    <v>       0.16666667       0.83333333       0.29381927 </v>
    <v>       0.16666667       0.83333333       0.62715261 </v>
    <v>       0.16666667       0.83333333       0.96048594 </v>
    <v>       0.41666667       0.08333333       0.29381927 </v>
    <v>       0.41666667       0.08333333       0.62715261 </v>
    <v>       0.41666667       0.08333333       0.96048594 </v>
    <v>       0.41666667       0.33333333       0.29381927 </v>
    <v>       0.41666667       0.33333333       0.62715261 </v>
    <v>       0.41666667       0.33333333       0.96048594 </v>
    <v>       0.41666667       0.58333333       0.29381927 </v>
    <v>       0.41666667       0.58333333       0.62715261 </v>
    <v>       0.41666667       0.58333333       0.96048594 </v>
    <v>       0.41666667       0.83333333       0.29381927 </v>
    <v>       0.41666667       0.83333333       0.62715261 </v>
    <v>       0.41666667       0.83333333       0.96048594 </v>
    <v>       0.66666667       0.08333333       0.29381927 </v>
    <v>       0.66666667       0.08333333       0.62715261 </v>
    <v>       0.66666667       0.08333333       0.96048594 </v>
    <v>       0.66666667       0.33333333       0.29381927 </v>
    <v>       0.66666667       0.33333333       0.62715261 </v>
    <v>       0.66666667       0.33333333       0.96048594 </v>
    <v>       0.66666667       0.58333333       0.29381927 </v>
    <v>       0.66666667       0.58333333       0.62715261 </v>
    <v>       0.66666667       0.58333333       0.96048594 </v>
    <v>       0.66666667       0.83333333       0.29381927 </v>
    <v>       0.66666667       0.83333333       0.62715261 </v>
    <v>       0.66666667       0.83333333       0.96048594 </v>
    <v>       0.91524107       0.09302584       0.29541652 </v>
    <v>       0.91666667       0.08333333       0.62715261 </v>
    <v>       0.91666667       0.08333333       0.96048594 </v>
    <v>       0.91666667       0.33333333       0.29381927 </v>
    <v>       0.91666667       0.33333333       0.62715261 </v>
    <v>       0.91666667       0.33333333       0.96048594 </v>
    <v>       0.91666667       0.58333333       0.29381927 </v>
    <v>       0.91666667       0.58333333       0.62715261 </v>
    <v>       0.91666667       0.58333333       0.96048594 </v>
    <v>       0.91519217       0.83531395       0.29412462 </v>
    <v>       0.91666667       0.83333333       0.62715261 </v>
    <v>       0.91666667       0.83333333       0.96048594 </v>
    <v>       0.00000000       0.00000000       0.23214286 </v>
   </varray>
  </structure>
  <varray name="primitive_index" >
   <v type="int" >        1 </v>
   <v type="int" >        2 </v>
   <v type="int" >        3 </v>
   <v type="int" >        4 </v>
   <v type="int" >        5 </v>
   <v type="int" >        6 </v>
   <v type="int" >        7 </v>
   <v type="int" >        8 </v>
   <v type="int" >        9 </v>
   <v type="int" >       10 </v>
   <v type="int" >       11 </v>
   <v type="int" >       12 </v>
   <v type="int" >       13 </v>
   <v type="int" >       14 </v>
   <v type="int" >       15 </v>
   <v type="int" >       16 </v>
   <v type="int" >       17 </v>
   <v type="int" >       18 </v>
   <v type="int" >       19 </v>
   <v type="int" >       20 </v>
   <v type="int" >       21 </v>
   <v type="int" >       22 </v>
   <v type="int" >       23 </v>
   <v type="int" >       24 </v>
   <v type="int" >       25 </v>
   <v type="int" >       26 </v>
   <v type="int" >       27 </v>
   <v type="int" >       28 </v>
   <v type="int" >       29 </v>
   <v type="int" >       30 </v>
   <v type="int" >       31 </v>
   <v type="int" >       32 </v>
   <v type="int" >       33 </v>
   <v type="int" >       34 </v>
   <v type="int" >       35 </v>
   <v type="int" >       36 </v>
   <v type="int" >       37 </v>
   <v type="int" >       38 </v>
   <v type="int" >       39 </v>
   <v type="int" >       40 </v>
   <v type="int" >       41 </v>
   <v type="int" >       42 </v>
   <v type="int" >       43 </v>
   <v type="int" >       44 </v>
   <v type="int" >       45 </v>
   <v type="int" >       46 </v>
   <v type="int" >       47 </v>
   <v type="int" >       48 </v>
   <v type="int" >       49 </v>
   <v type="int" >       50 </v>
   <v type="int" >       51 </v>
   <v type="int" >       52 </v>
   <v type="int" >       53 </v>
   <v type="int" >       54 </v>
   <v type="int" >       55 </v>
   <v type="int" >       56 </v>
   <v type="int" >       57 </v>
   <v type="int" >       58 </v>
   <v type="int" >       59 </v>
   <v type="int" >       60 </v>
   <v type="int" >       61 </v>
   <v type="int" >       62 </v>
   <v type="int" >       63 </v>
   <v type="int" >       64 </v>
   <v type="int" >       65 </v>
   <v type="int" >       66 </v>
   <v type="int" >       67 </v>
   <v type="int" >       68 </v>
   <v type="int" >       69 </v>
   <v type="int" >       70 </v>
   <v type="int" >       71 </v>
   <v type="int" >       72 </v>
   <v type="int" >       73 </v>
   <v type="int" >       74 </v>
   <v type="int" >       75 </v>
   <v type="int" >       76 </v>
   <v type="int" >       77 </v>
   <v type="int" >       78 </v>
   <v type="int" >       79 </v>
   <v type="int" >       80 </v>
   <v type="int" >       81 </v>
   <v type="int" >       82 </v>
   <v type="int" >       83 </v>
   <v type="int" >       84 </v>
   <v type="int" >       85 </v>
   <v type="int" >       86 </v>
   <v type="int" >       87 </v>
   <v type="int" >       88 </v>
   <v type="int" >       89 </v>
   <v type="int" >       90 </v>
   <v type="int" >       91 </v>
   <v type="int" >       92 </v>
   <v type="int" >       93 </v>
   <v type="int" >       94 </v>
   <v type="int" >       95 </v>
   <v type="int" >       96 </v>
   <v type="int" >       97 </v>
   <v type="int" >       98 </v>
   <v type="int" >       99 </v>
   <v type="int" >      100 </v>
   <v type="int" >      101 </v>
   <v type="int" >      102 </v>
   <v type="int" >      103 </v>
   <v type="int" >      104 </v>
   <v type="int" >      105 </v>
   <v type="int" >      106 </v>
   <v type="int" >      107 </v>
   <v type="int" >      108 </v>
   <v type="int" >      109 </v>
   <v type="int" >      110 </v>
   <v type="int" >      111 </v>
   <v type="int" >      112 </v>
   <v type="int" >      113 </v>
   <v type="int" >      114 </v>
   <v type="int" >      115 </v>
   <v type="int" >      116 </v>
   <v type="int" >      117 </v>
   <v type="int" >      118 </v>
   <v type="int" >      119 </v>
   <v type="int" >      120 </v>
   <v type="int" >      121 </v>
   <v type="int" >      122 </v>
   <v type="int" >      123 </v>
   <v type="int" >      124 </v>
   <v type="int" >      125 </v>
   <v type="int" >      126 </v>
   <v type="int" >      127 </v>
   <v type="int" >      128 </v>
   <v type="int" >      129 </v>
   <v type="int" >      130 </v>
   <v type="int" >      131 </v>
   <v type="int" >      132 </v>
   <v type="int" >      133 </v>
   <v type="int" >      134 </v>
   <v type="int" >      135 </v>
   <v type="int" >      136 </v>
   <v type="int" >      137 </v>
   <v type="int" >      138 </v>
   <v type="int" >      139 </v>
   <v type="int" >      140 </v>
   <v type="int" >      141 </v>
   <v type="int" >      142 </v>
   <v type="int" >      143 </v>
   <v type="int" >      144 </v>
   <v type="int" >      145 </v>
   <v type="int" >      146 </v>
   <v type="int" >      147 </v>
   <v type="int" >      148 </v>
   <v type="int" >      149 </v>
   <v type="int" >      150 </v>
   <v type="int" >      151 </v>
   <v type="int" >      152 </v>
   <v type="int" >      153 </v>
   <v type="int" >      154 </v>
   <v type="int" >      155 </v>
   <v type="int" >      156 </v>
   <v type="int" >      157 </v>
   <v type="int" >      158 </v>
   <v type="int" >      159 </v>
   <v type="int" >      160 </v>
   <v type="int" >      161 </v>
   <v type="int" >      162 </v>
   <v type="int" >      163 </v>
   <v type="int" >      164 </v>
   <v type="int" >      165 </v>
   <v type="int" >      166 </v>
   <v type="int" >      167 </v>
   <v type="int" >      168 </v>
   <v type="int" >      169 </v>
   <v type="int" >      170 </v>
   <v type="int" >      171 </v>
   <v type="int" >      172 </v>
   <v type="int" >      173 </v>
   <v type="int" >      174 </v>
   <v type="int" >      175 </v>
   <v type="int" >      176 </v>
   <v type="int" >      177 </v>
   <v type="int" >      178 </v>
   <v type="int" >      179 </v>
   <v type="int" >      180 </v>
   <v type="int" >      181 </v>
   <v type="int" >      182 </v>
   <v type="int" >      183 </v>
   <v type="int" >      184 </v>
   <v type="int" >      185 </v>
   <v type="int" >      186 </v>
   <v type="int" >      187 </v>
   <v type="int" >      188 </v>
   <v type="int" >      189 </v>
   <v type="int" >      190 </v>
   <v type="int" >      191 </v>
   <v type="int" >      192 </v>
   <v type="int" >      193 </v>
  </varray>
 </primitive_cell>
 <kpoints>
  <generation param="Gamma">
   <v type="int" name="divisions">       2        2        1 </v>
   <v name="usershift">      0.00000000       0.00000000       0.00000000 </v>
   <v name="genvec1">      0.50000000       0.00000000       0.00000000 </v>
   <v name="genvec2">      0.00000000       0.50000000       0.00000000 </v>
   <v name="genvec3">      0.00000000       0.00000000       1.00000000 </v>
   <v name="shift">      0.00000000       0.00000000       0.00000000 </v>
  </generation>
  <varray name="kpointlist" >
   <v>       0.00000000       0.00000000       0.00000000 </v>
   <v>       0.50000000      -0.00000000       0.00000000 </v>
   <v>       0.00000000       0.50000000       0.00000000 </v>
   <v>       0.50000000       0.50000000       0.00000000 </v>
  </varray>
  <varray name="weights" >
   <v>       0.25000000 </v>
   <v>       0.25000000 </v>
   <v>       0.25000000 </v>
   <v>       0.25000000 </v>
  </varray>
 </kpoints>
 <parameters>
  <separator name="general" >
   <i type="string" name="SYSTEM">unknown system</i>
   <i type="logical" name="LCOMPAT"> F  </i>
  </separator>
  <separator name="electronic" >
   <i type="string" name="PREC">normal</i>
   <i name="ENMAX">    400.00000000</i>
   <i name="ENAUG">    605.39200000</i>
   <i name="EDIFF">      0.00001000</i>
   <i type="int" name="IALGO">    53</i>
   <i type="int" name="IWAVPR">    11</i>
   <i type="int" name="NBANDS">  1148</i>
   <i type="int" name="NBANDSLOW">    -1</i>
   <i type="int" name="NBANDSHIGH">    -1</i>
   <i name="NELECT">   1736.00000000</i>
   <i type="int" name="TURBO">     0</i>
   <i type="int" name="IRESTART">     0</i>
   <i type="int" name="NREBOOT">     0</i>
   <i type="int" name="NMIN">     0</i>
   <i name="EREF">      0.00000000</i>
   <separator name="electronic smearing" >
    <i type="int" name="ISMEAR">     0</i>
    <i name="SIGMA">      0.10000000</i>
    <i name="KSPACING">      0.50000000</i>
    <i type="logical" name="KGAMMA"> T  </i>
    <i type="logical" name="KBLOWUP"> T  </i>
   </separator>
   <separator name="electronic projectors" >
    <i type="logical" name="LREAL"> T  </i>
    <v name="ROPT">     -0.00050000     -0.00050000     -0.00050000</v>
    <i type="int" name="LMAXPAW">  -100</i>
    <i type="int" name="LMAXMIX">     2</i>
    <i type="logical" name="NLSPLINE"> F  </i>
   </separator>
   <separator name="electronic startup" >
    <i type="int" name="ISTART">     0</i>
    <i type="int" name="ICHARG">     2</i>
    <i type="int" name="INIWAV">     1</i>
   </separator>
   <separator name="electronic spin" >
    <i type="int" name="ISPIN">     2</i>
    <i type="logical" name="LNONCOLLINEAR"> F  </i>
    <v name="MAGMOM">      1.00000000      1.00000000      1.00000000      1.00000000      1.00000000      1.00000000      1.00000000      1.00000000      1.00000000      1.00000000      1.00000000      1.00000000      1.00000000      1.00000000      1.00000000      1.00000000      1.00000000      1.00000000      1.00000000      1.00000000
      1.00000000      1.00000000      1.00000000      1.00000000      1.00000000      1.00000000      1.00000000      1.00000000      1.00000000      1.00000000      1.00000000      1.00000000      1.00000000      1.00000000      1.00000000      1.00000000      1.00000000      1.00000000      1.00000000      1.00000000
      1.00000000      1.00000000      1.00000000      1.00000000      1.00000000      1.00000000      1.00000000      1.00000000      1.00000000      1.00000000      1.00000000      1.00000000      1.00000000      1.00000000      1.00000000      1.00000000      1.00000000      1.00000000      1.00000000      1.00000000
      1.00000000      1.00000000      1.00000000      1.00000000      1.00000000      1.00000000      1.00000000      1.00000000      1.00000000      1.00000000      1.00000000      1.00000000      1.00000000      1.00000000      1.00000000      1.00000000      1.00000000      1.00000000      1.00000000      1.00000000
      1.00000000      1.00000000      1.00000000      1.00000000      1.00000000      1.00000000      1.00000000      1.00000000      1.00000000      1.00000000      1.00000000      1.00000000      1.00000000      1.00000000      1.00000000      1.00000000      1.00000000      1.00000000      1.00000000      1.00000000
      1.00000000      1.00000000      1.00000000      1.00000000      1.00000000      1.00000000      1.00000000      1.00000000      1.00000000      1.00000000      1.00000000      1.00000000      1.00000000      1.00000000      1.00000000      1.00000000      1.00000000      1.00000000      1.00000000      1.00000000
      1.00000000      1.00000000      1.00000000      1.00000000      1.00000000      1.00000000      1.00000000      1.00000000      1.00000000      1.00000000      1.00000000      1.00000000      1.00000000      1.00000000      1.00000000      1.00000000      1.00000000      1.00000000      1.00000000      1.00000000
      1.00000000      1.00000000      1.00000000      1.00000000      1.00000000      1.00000000      1.00000000      1.00000000      1.00000000      1.00000000      1.00000000      1.00000000      1.00000000      1.00000000      1.00000000      1.00000000      1.00000000      1.00000000      1.00000000      1.00000000
      1.00000000      1.00000000      1.00000000      1.00000000      1.00000000      1.00000000      1.00000000      1.00000000      1.00000000      1.00000000      1.00000000      1.00000000      1.00000000      1.00000000      1.00000000      1.00000000      1.00000000      1.00000000      1.00000000      1.00000000
      1.00000000      1.00000000      1.00000000      1.00000000      1.00000000      1.00000000      1.00000000      1.00000000      1.00000000      1.00000000      1.00000000      1.00000000      1.00000000</v>
    <i name="NUPDOWN">     -1.00000000</i>
    <i type="logical" name="LSORBIT"> F  </i>
    <v name="SAXIS">      0.00000000      0.00000000      1.00000000</v>
    <i type="logical" name="LSPIRAL"> F  </i>
    <v name="QSPIRAL">      0.00000000      0.00000000      0.00000000</v>
    <i type="logical" name="LZEROZ"> F  </i>
   </separator>
   <separator name="electronic exchange-correlation" >
    <i type="logical" name="LASPH"> T  </i>
   </separator>
   <separator name="electronic convergence" >
    <i type="int" name="NELM">   100</i>
    <i type="int" name="NELMDL">    -5</i>
    <i type="int" name="NELMIN">     2</i>
    <i name="ENINI">    400.00000000</i>
    <separator name="electronic convergence detail" >
     <i type="logical" name="LDIAG"> T  </i>
     <i type="logical" name="LSUBROT"> F  </i>
     <i type="logical" name="LROBUST"> F  </i>
     <i type="int" name="ISEARCH">     0</i>
     <i name="WEIMIN">      0.00100000</i>
     <i name="EBREAK">      0.00000000</i>
     <i name="DEPER">      0.30000000</i>
     <i type="int" name="NRMM">     4</i>
     <i name="TIME">      0.40000000</i>
    </separator>
   </separator>
   <separator name="electronic mixer" >
    <i name="AMIX">      0.40000000</i>
    <i name="BMIX">      1.00000000</i>
    <i name="AMIN">      0.10000000</i>
    <i name="AMIX_MAG">      1.60000000</i>
    <i name="BMIX_MAG">      1.00000000</i>
    <separator name="electronic mixer details" >
     <i type="int" name="IMIX">     4</i>
     <i type="logical" name="MIXFIRST"> F  </i>
     <i type="int" name="MAXMIX">   -45</i>
     <i name="WC">    100.00000000</i>
     <i type="int" name="INIMIX">     1</i>
     <i type="int" name="MIXPRE">     1</i>
     <i type="int" name="MREMOVE">     5</i>
    </separator>
   </separator>
   <separator name="electronic dipolcorrection" >
    <i type="logical" name="LDIPOL"> F  </i>
    <i type="logical" name="LMONO"> F  </i>
    <i type="int" name="IDIPOL">     0</i>
    <i name="EPSILON">      1.00000000</i>
    <v name="DIPOL">   -100.00000000   -100.00000000   -100.00000000</v>
    <i name="EFIELD">      0.00000000</i>
    <i type="logical" name="LVACPOTAV"> F  </i>
   </separator>
  </separator>
  <separator name="grids" >
   <i type="int" name="NGX">    64</i>
   <i type="int" name="NGY">    64</i>
   <i type="int" name="NGZ">    80</i>
   <i type="int" name="NGXF">   128</i>
   <i type="int" name="NGYF">   128</i>
   <i type="int" name="NGZF">   160</i>
   <i type="logical" name="ADDGRID"> F  </i>
  </separator>
  <separator name="ionic" >
   <i type="int" name="NSW">   300</i>
   <i type="int" name="IBRION">     2</i>
   <i type="int" name="MDALGO">     0</i>
   <i type="int" name="ISIF">     2</i>
   <i name="PSTRESS">      0.00000000</i>
   <i name="EDIFFG">     -0.03000000</i>
   <i type="int" name="NFREE">     1</i>
   <i name="POTIM">      0.50000000</i>
   <i name="SMASS">     -3.00000000</i>
   <i name="SCALEE">      1.00000000</i>
  </separator>
  <separator name="ionic md" >
   <i name="TEBEG">      0.00010000</i>
   <i name="TEEND">      0.00010000</i>
   <i type="int" name="NBLOCK">     1</i>
   <i type="int" name="KBLOCK">   300</i>
   <i type="int" name="NPACO">   256</i>
   <i name="APACO">     10.00000000</i>
  </separator>
  <separator name="symmetry" >
   <i type="int" name="ISYM">     3</i>
   <i name="SYMPREC">      0.00001000</i>
  </separator>
  <separator name="dos" >
   <i type="int" name="LORBIT">    10</i>
   <v name="RWIGS">     -1.00000000     -1.00000000     -1.00000000</v>
   <i type="int" name="NEDOS">   301</i>
   <i name="EMIN">     10.00000000</i>
   <i name="EMAX">    -10.00000000</i>
   <i name="EFERMI">      0.00000000</i>
  </separator>
  <separator name="writing" >
   <i type="int" name="NWRITE">     2</i>
   <i type="logical" name="LWAVE"> T  </i>
   <i type="logical" name="LDOWNSAMPLE"> F  </i>
   <i type="logical" name="LCHARG"> F  </i>
   <i type="logical" name="LPARD"> F  </i>
   <i type="logical" name="LVTOT"> F  </i>
   <i type="logical" name="LVHAR"> F  </i>
   <i type="logical" name="LELF"> F  </i>
   <i type="logical" name="LOPTICS"> F  </i>
   <v name="STM">      0.00000000      0.00000000      0.00000000      0.00000000      0.00000000      0.00000000      0.00000000</v>
  </separator>
  <separator name="performance" >
   <i type="int" name="NPAR">    28</i>
   <i type="int" name="NSIM">     4</i>
   <i type="int" name="NBLK">    -1</i>
   <i type="logical" name="LPLANE"> T  </i>
   <i type="logical" name="LSCALAPACK"> T  </i>
   <i type="logical" name="LSCAAWARE"> F  </i>
   <i type="logical" name="LSCALU"> F  </i>
   <i type="logical" name="LASYNC"> F  </i>
   <i type="logical" name="LORBITALREAL"> F  </i>
  </separator>
  <separator name="miscellaneous" >
   <i type="int" name="IDIOT">     3</i>
   <i type="int" name="PHON_NSTRUCT">    -1</i>
   <i type="logical" name="LMUSIC"> F  </i>
   <v name="POMASS">     65.39000000     16.00000000    144.24000000</v>
   <v name="DARWINR">      0.00000000      0.00000000      0.00000000</v>
   <v name="DARWINV">      1.00000000      1.00000000      1.00000000</v>
   <i type="logical" name="LCORR"> T  </i>
  </separator>
  <i type="logical" name="GGA_COMPAT"> T  </i>
  <i type="logical" name="LBERRY"> F  </i>
  <i type="int" name="ICORELEVEL">     0</i>
  <i type="logical" name="LDAU"> F  </i>
  <i type="int" name="I_CONSTRAINED_M">     0</i>
  <separator name="electronic exchange-correlation" >
   <i type="string" name="GGA    ">PE</i>
   <i type="string" name="XC_C">1</i>
   <i type="int" name="VOSKOWN">     0</i>
   <i type="logical" name="LHFCALC"> T  </i>
   <i type="string" name="PRECFOCK">fast</i>
   <i type="logical" name="LSYMGRAD"> F  </i>
   <i type="logical" name="LHFONE"> F  </i>
   <i type="logical" name="LRHFCALC"> F  </i>
   <i type="logical" name="LTHOMAS"> F  </i>
   <i type="logical" name="LMODELHF"> F  </i>
   <i type="logical" name="LFOCKACE"> T  </i>
   <i name="ENCUT4O">     -1.00000000</i>
   <i type="int" name="EXXOEP">     0</i>
   <i type="int" name="FOURORBIT">     0</i>
   <i name="AEXX">      0.36000000</i>
   <i name="HFALPHA">     -1.00000000</i>
   <i name="MCALPHA">      0.00000000</i>
   <i name="ALDAX">      0.64000000</i>
   <i name="AGGAX">      0.64000000</i>
   <i name="AMGGAX">      0.64000000</i>
   <i name="ALDAC">      1.00000000</i>
   <i name="AGGAC">      1.00000000</i>
   <i name="AMGGAC">      1.00000000</i>
   <i type="int" name="NKREDX">     1</i>
   <i type="int" name="NKREDY">     1</i>
   <i type="int" name="NKREDZ">     1</i>
   <i type="logical" name="SHIFTRED"> F  </i>
   <i type="logical" name="ODDONLY"> F  </i>
   <i type="logical" name="EVENONLY"> F  </i>
   <i type="int" name="LMAXFOCK">     4</i>
   <i type="int" name="NMAXFOCKAE">     1</i>
   <i type="logical" name="LFOCKAEDFT"> F  </i>
   <i name="HFSCREEN">      0.20000000</i>
   <i name="HFSCREENC">      0.20000000</i>
   <i type="int" name="NBANDSGWLOW">     1</i>
  </separator>
  <separator name="vdW DFT" >
   <i type="logical" name="LUSE_VDW"> F  </i>
   <i type="int" name="IVDW_NL">    -1</i>
   <i type="logical" name="LSPIN_VDW"> F  </i>
   <i name="ZAB_VDW">     -0.84910000</i>
   <i name="GAMMA_VDW">      1.39626340</i>
   <i name="ALPHA_VDW">      0.00000000</i>
   <i name="PARAM1">      0.12340000</i>
   <i name="PARAM2">      1.00000000</i>
   <i name="BPARAM">      6.30000000</i>
   <i name="CPARAM">      0.00930000</i>
  </separator>
  <separator name="model GW" >
   <i type="int" name="MODEL_GW">     0</i>
   <i name="MODEL_EPS0">      7.10963163</i>
   <i name="MODEL_ALPHA">      1.00000000</i>
  </separator>
  <separator name="linear response parameters" >
   <i type="logical" name="LEPSILON"> F  </i>
   <i type="logical" name="LRPA"> F  </i>
   <i type="logical" name="LNABLA"> F  </i>
   <i type="logical" name="LVEL"> F  </i>
   <i name="CSHIFT">      0.10000000</i>
   <i name="OMEGAMAX">     -1.00000000</i>
   <i name="DEG_THRESHOLD">      0.00200000</i>
   <i name="RTIME">     -0.10000000</i>
   <i name="WPLASMAI">      0.00000000</i>
   <v name="DFIELD">      0.00000000      0.00000000      0.00000000</v>
   <v name="WPLASMA">      0.00000000      0.00000000      0.00000000      0.00000000      0.00000000      0.00000000      0.00000000      0.00000000      0.00000000</v>
  </separator>
  <separator name="orbital magnetization" >
   <i type="logical" name="NUCIND"> F  </i>
   <v name="MAGPOS">      0.00000000      0.00000000      0.00000000</v>
   <i type="logical" name="LNICSALL"> T  </i>
   <i type="logical" name="ORBITALMAG"> F  </i>
   <i type="logical" name="LMAGBLOCH"> F  </i>
   <i type="logical" name="LCHIMAG"> F  </i>
   <i type="logical" name="LGAUGE"> T  </i>
   <i type="int" name="MAGATOM">     0</i>
   <v name="MAGDIPOL">      0.00000000      0.00000000      0.00000000</v>
   <v name="AVECCONST">      0.00000000      0.00000000      0.00000000</v>
  </separator>
  <separator name="response functions" >
   <i type="logical" name="LALL_IN_ONE"> F  </i>
   <i type="int" name="IALL_IN_ONE">    -1</i>
   <i type="int" name="NBANDS_WAVE">    -1</i>
   <i type="logical" name="LFINITE_TEMPERATURE"> F  </i>
   <i type="logical" name="LADDER"> F  </i>
   <i type="logical" name="LRPAFORCE"> F  </i>
   <i type="logical" name="LFXC"> F  </i>
   <i type="logical" name="LHARTREE"> T  </i>
   <i type="int" name="IBSE">     2</i>
   <v type="int" name="KPOINT">    -1     0     0     0</v>
   <i type="logical" name="LTCTC"> F  </i>
   <i type="logical" name="LTCTE"> F  </i>
   <i type="logical" name="LTETE"> F  </i>
   <i type="logical" name="LTRIPLET"> F  </i>
   <i type="logical" name="LFXCEPS"> F  </i>
   <i type="logical" name="LFXHEG"> F  </i>
   <i type="int" name="NATURALO">     2</i>
   <i type="logical" name="LHOLEGF"> F  </i>
   <i type="logical" name="L2ORDER"> F  </i>
   <i type="logical" name="LDMP1"> F  </i>
   <i type="logical" name="LMP2LT"> F  </i>
   <i type="logical" name="LSMP2LT"> F  </i>
   <i type="logical" name="LGWLF"> F  </i>
   <i name="ENCUTGW">     -1.60000002</i>
   <i name="ENCUTGWSOFT">     -1.60000002</i>
   <i name="ENCUTLF">     -1.00000000</i>
   <i type="logical" name="ESF_SPLINES"> F  </i>
   <i name="ESF_CONV">      0.01000000</i>
   <i type="int" name="ESF_NINTER">    15</i>
   <i type="int" name="LMAXMP2">    -1</i>
   <i name="SCISSOR">      0.00000000</i>
   <i type="int" name="NOMEGA">     0</i>
   <i type="int" name="NOMEGAR">     0</i>
   <i type="int" name="NBANDSGW">    -1</i>
   <i type="int" name="NBANDSO">    -1</i>
   <i type="int" name="NBANDSV">    -1</i>
   <i type="int" name="NELMGW">     1</i>
   <i type="int" name="NELMHF">     1</i>
   <i type="int" name="DIM">     3</i>
   <i type="int" name="IESPILON">     4</i>
   <i type="int" name="ANTIRES">     0</i>
   <i name="OMEGAMAX">    -30.00000000</i>
   <i name="OMEGAMIN">    -30.00000000</i>
   <i name="OMEGATL">   -200.00000000</i>
   <i type="int" name="OMEGAGRID">     0</i>
   <i name="CSHIFT">     -0.10000000</i>
   <i type="logical" name="LSELFENERGY"> F  </i>
   <i type="logical" name="LSPECTRAL"> F  </i>
   <i type="logical" name="LSPECTRALGW"> F  </i>
   <i type="logical" name="LSINGLES"> F  </i>
   <i type="logical" name="LFERMIGW"> F  </i>
   <i type="logical" name="ODDONLYGW"> F  </i>
   <i type="logical" name="EVENONLYGW"> F  </i>
   <i type="int" name="NKREDLFX">     1</i>
   <i type="int" name="NKREDLFY">     1</i>
   <i type="int" name="NKREDLFZ">     1</i>
   <i type="int" name="MAXMEM">  2800</i>
   <i type="int" name="TELESCOPE">     0</i>
   <i type="int" name="NTAUPAR">    -1</i>
   <i type="int" name="NOMEGAPAR">    -1</i>
   <i name="DAMP_NEWTON">      0.80000001</i>
   <i name="LAMBDA">      1.00000000</i>
  </separator>
  <separator name="External order field" >
   <i name="OFIELD_KAPPA">      0.00000000</i>
   <v name="OFIELD_K">      0.00000000      0.00000000      0.00000000</v>
   <i name="OFIELD_Q6_NEAR">      0.00000000</i>
   <i name="OFIELD_Q6_FAR">      0.00000000</i>
   <i name="OFIELD_A">      0.00000000</i>
  </separator>
  <separator name="optional k-points parameters" >
   <i type="int" name="KPOINTS_OPT_MODE">     1</i>
   <i type="logical" name="LKPOINTS_OPT"> F  </i>
  </separator>
 </parameters>
 <atominfo>
  <atoms>     193 </atoms>
  <types>       3 </types>
  <array name="atoms" >
   <dimension dim="1">ion</dimension>
   <field type="string">element</field>
   <field type="int">atomtype</field>
   <set>
    <rc><c>Zn</c><c>   1</c></rc>
    <rc><c>Zn</c><c>   1</c></rc>
    <rc><c>Zn</c><c>   1</c></rc>
    <rc><c>Zn</c><c>   1</c></rc>
    <rc><c>Zn</c><c>   1</c></rc>
    <rc><c>Zn</c><c>   1</c></rc>
    <rc><c>Zn</c><c>   1</c></rc>
    <rc><c>Zn</c><c>   1</c></rc>
    <rc><c>Zn</c><c>   1</c></rc>
    <rc><c>Zn</c><c>   1</c></rc>
    <rc><c>Zn</c><c>   1</c></rc>
    <rc><c>Zn</c><c>   1</c></rc>
    <rc><c>Zn</c><c>   1</c></rc>
    <rc><c>Zn</c><c>   1</c></rc>
    <rc><c>Zn</c><c>   1</c></rc>
    <rc><c>Zn</c><c>   1</c></rc>
    <rc><c>Zn</c><c>   1</c></rc>
    <rc><c>Zn</c><c>   1</c></rc>
    <rc><c>Zn</c><c>   1</c></rc>
    <rc><c>Zn</c><c>   1</c></rc>
    <rc><c>Zn</c><c>   1</c></rc>
    <rc><c>Zn</c><c>   1</c></rc>
    <rc><c>Zn</c><c>   1</c></rc>
    <rc><c>Zn</c><c>   1</c></rc>
    <rc><c>Zn</c><c>   1</c></rc>
    <rc><c>Zn</c><c>   1</c></rc>
    <rc><c>Zn</c><c>   1</c></rc>
    <rc><c>Zn</c><c>   1</c></rc>
    <rc><c>Zn</c><c>   1</c></rc>
    <rc><c>Zn</c><c>   1</c></rc>
    <rc><c>Zn</c><c>   1</c></rc>
    <rc><c>Zn</c><c>   1</c></rc>
    <rc><c>Zn</c><c>   1</c></rc>
    <rc><c>Zn</c><c>   1</c></rc>
    <rc><c>Zn</c><c>   1</c></rc>
    <rc><c>Zn</c><c>   1</c></rc>
    <rc><c>Zn</c><c>   1</c></rc>
    <rc><c>Zn</c><c>   1</c></rc>
    <rc><c>Zn</c><c>   1</c></rc>
    <rc><c>Zn</c><c>   1</c></rc>
    <rc><c>Zn</c><c>   1</c></rc>
    <rc><c>Zn</c><c>   1</c></rc>
    <rc><c>Zn</c><c>   1</c></rc>
    <rc><c>Zn</c><c>   1</c></rc>
    <rc><c>Zn</c><c>   1</c></rc>
    <rc><c>Zn</c><c>   1</c></rc>
    <rc><c>Zn</c><c>   1</c></rc>
    <rc><c>Zn</c><c>   1</c></rc>
    <rc><c>Zn</c><c>   1</c></rc>
    <rc><c>Zn</c><c>   1</c></rc>
    <rc><c>Zn</c><c>   1</c></rc>
    <rc><c>Zn</c><c>   1</c></rc>
    <rc><c>Zn</c><c>   1</c></rc>
    <rc><c>Zn</c><c>   1</c></rc>
    <rc><c>Zn</c><c>   1</c></rc>
    <rc><c>Zn</c><c>   1</c></rc>
    <rc><c>Zn</c><c>   1</c></rc>
    <rc><c>Zn</c><c>   1</c></rc>
    <rc><c>Zn</c><c>   1</c></rc>
    <rc><c>Zn</c><c>   1</c></rc>
    <rc><c>Zn</c><c>   1</c></rc>
    <rc><c>Zn</c><c>   1</c></rc>
    <rc><c>Zn</c><c>   1</c></rc>
    <rc><c>Zn</c><c>   1</c></rc>
    <rc><c>Zn</c><c>   1</c></rc>
    <rc><c>Zn</c><c>   1</c></rc>
    <rc><c>Zn</c><c>   1</c></rc>
    <rc><c>Zn</c><c>   1</c></rc>
    <rc><c>Zn</c><c>   1</c></rc>
    <rc><c>Zn</c><c>   1</c></rc>
    <rc><c>Zn</c><c>   1</c></rc>
    <rc><c>Zn</c><c>   1</c></rc>
    <rc><c>Zn</c><c>   1</c></rc>
    <rc><c>Zn</c><c>   1</c></rc>
    <rc><c>Zn</c><c>   1</c></rc>
    <rc><c>Zn</c><c>   1</c></rc>
    <rc><c>Zn</c><c>   1</c></rc>
    <rc><c>Zn</c><c>   1</c></rc>
    <rc><c>Zn</c><c>   1</c></rc>
    <rc><c>Zn</c><c>   1</c></rc>
    <rc><c>Zn</c><c>   1</c></rc>
    <rc><c>Zn</c><c>   1</c></rc>
    <rc><c>Zn</c><c>   1</c></rc>
    <rc><c>Zn</c><c>   1</c></rc>
    <rc><c>Zn</c><c>   1</c></rc>
    <rc><c>Zn</c><c>   1</c></rc>
    <rc><c>Zn</c><c>   1</c></rc>
    <rc><c>Zn</c><c>   1</c></rc>
    <rc><c>Zn</c><c>   1</c></rc>
    <rc><c>Zn</c><c>   1</c></rc>
    <rc><c>Zn</c><c>   1</c></rc>
    <rc><c>Zn</c><c>   1</c></rc>
    <rc><c>Zn</c><c>   1</c></rc>
    <rc><c>Zn</c><c>   1</c></rc>
    <rc><c>Zn</c><c>   1</c></rc>
    <rc><c>Zn</c><c>   1</c></rc>
    <rc><c>O </c><c>   2</c></rc>
    <rc><c>O </c><c>   2</c></rc>
    <rc><c>O </c><c>   2</c></rc>
    <rc><c>O </c><c>   2</c></rc>
    <rc><c>O </c><c>   2</c></rc>
    <rc><c>O </c><c>   2</c></rc>
    <rc><c>O </c><c>   2</c></rc>
    <rc><c>O </c><c>   2</c></rc>
    <rc><c>O </c><c>   2</c></rc>
    <rc><c>O </c><c>   2</c></rc>
    <rc><c>O </c><c>   2</c></rc>
    <rc><c>O </c><c>   2</c></rc>
    <rc><c>O </c><c>   2</c></rc>
    <rc><c>O </c><c>   2</c></rc>
    <rc><c>O </c><c>   2</c></rc>
    <rc><c>O </c><c>   2</c></rc>
    <rc><c>O </c><c>   2</c></rc>
    <rc><c>O </c><c>   2</c></rc>
    <rc><c>O </c><c>   2</c></rc>
    <rc><c>O </c><c>   2</c></rc>
    <rc><c>O </c><c>   2</c></rc>
    <rc><c>O </c><c>   2</c></rc>
    <rc><c>O </c><c>   2</c></rc>
    <rc><c>O </c><c>   2</c></rc>
    <rc><c>O </c><c>   2</c></rc>
    <rc><c>O </c><c>   2</c></rc>
    <rc><c>O </c><c>   2</c></rc>
    <rc><c>O </c><c>   2</c></rc>
    <rc><c>O </c><c>   2</c></rc>
    <rc><c>O </c><c>   2</c></rc>
    <rc><c>O </c><c>   2</c></rc>
    <rc><c>O </c><c>   2</c></rc>
    <rc><c>O </c><c>   2</c></rc>
    <rc><c>O </c><c>   2</c></rc>
    <rc><c>O </c><c>   2</c></rc>
    <rc><c>O </c><c>   2</c></rc>
    <rc><c>O </c><c>   2</c></rc>
    <rc><c>O </c><c>   2</c></rc>
    <rc><c>O </c><c>   2</c></rc>
    <rc><c>O </c><c>   2</c></rc>
    <rc><c>O </c><c>   2</c></rc>
    <rc><c>O </c><c>   2</c></rc>
    <rc><c>O </c><c>   2</c></rc>
    <rc><c>O </c><c>   2</c></rc>
    <rc><c>O </c><c>   2</c></rc>
    <rc><c>O </c><c>   2</c></rc>
    <rc><c>O </c><c>   2</c></rc>
    <rc><c>O </c><c>   2</c></rc>
    <rc><c>O </c><c>   2</c></rc>
    <rc><c>O </c><c>   2</c></rc>
    <rc><c>O </c><c>   2</c></rc>
    <rc><c>O </c><c>   2</c></rc>
    <rc><c>O </c><c>   2</c></rc>
    <rc><c>O </c><c>   2</c></rc>
    <rc><c>O </c><c>   2</c></rc>
    <rc><c>O </c><c>   2</c></rc>
    <rc><c>O </c><c>   2</c></rc>
    <rc><c>O </c><c>   2</c></rc>
    <rc><c>O </c><c>   2</c></rc>
    <rc><c>O </c><c>   2</c></rc>
    <rc><c>O </c><c>   2</c></rc>
    <rc><c>O </c><c>   2</c></rc>
    <rc><c>O </c><c>   2</c></rc>
    <rc><c>O </c><c>   2</c></rc>
    <rc><c>O </c><c>   2</c></rc>
    <rc><c>O </c><c>   2</c></rc>
    <rc><c>O </c><c>   2</c></rc>
    <rc><c>O </c><c>   2</c></rc>
    <rc><c>O </c><c>   2</c></rc>
    <rc><c>O </c><c>   2</c></rc>
    <rc><c>O </c><c>   2</c></rc>
    <rc><c>O </c><c>   2</c></rc>
    <rc><c>O </c><c>   2</c></rc>
    <rc><c>O </c><c>   2</c></rc>
    <rc><c>O </c><c>   2</c></rc>
    <rc><c>O </c><c>   2</c></rc>
    <rc><c>O </c><c>   2</c></rc>
    <rc><c>O </c><c>   2</c></rc>
    <rc><c>O </c><c>   2</c></rc>
    <rc><c>O </c><c>   2</c></rc>
    <rc><c>O </c><c>   2</c></rc>
    <rc><c>O </c><c>   2</c></rc>
    <rc><c>O </c><c>   2</c></rc>
    <rc><c>O </c><c>   2</c></rc>
    <rc><c>O </c><c>   2</c></rc>
    <rc><c>O </c><c>   2</c></rc>
    <rc><c>O </c><c>   2</c></rc>
    <rc><c>O </c><c>   2</c></rc>
    <rc><c>O </c><c>   2</c></rc>
    <rc><c>O </c><c>   2</c></rc>
    <rc><c>O </c><c>   2</c></rc>
    <rc><c>O </c><c>   2</c></rc>
    <rc><c>O </c><c>   2</c></rc>
    <rc><c>O </c><c>   2</c></rc>
    <rc><c>O </c><c>   2</c></rc>
    <rc><c>O </c><c>   2</c></rc>
    <rc><c>Nd</c><c>   3</c></rc>
   </set>
  </array>
  <array name="atomtypes" >
   <dimension dim="1">type</dimension>
   <field type="int">atomspertype</field>
   <field type="string">element</field>
   <field>mass</field>
   <field>valence</field>
   <field type="string">pseudopotential</field>
   <set>
    <rc><c>  96</c><c>Zn</c><c>     65.39000000</c><c>     12.00000000</c><c>  PAW_PBE Zn 06Sep2000                  </c></rc>
    <rc><c>  96</c><c>O </c><c>     16.00000000</c><c>      6.00000000</c><c>  PAW_PBE O 08Apr2002                   </c></rc>
    <rc><c>   1</c><c>Nd</c><c>    144.24000000</c><c>     11.00000000</c><c>  PAW_PBE Nd_3 06Sep2000                </c></rc>
   </set>
  </array>
 </atominfo>
 <structure name="initialpos" >
  <crystal>
   <varray name="basis" >
    <v>      12.99749010       0.00000000       0.00000000 </v>
    <v>      -6.49874505      11.25615661       0.00000000 </v>
    <v>       0.00000000       0.00000000      15.63160369 </v>
   </varray>
   <i name="volume">   2286.93150813 </i>
   <varray name="rec_basis" >
    <v>       0.07693793       0.04442014       0.00000000 </v>
    <v>       0.00000000       0.08884027       0.00000000 </v>
    <v>       0.00000000       0.00000000       0.06397296 </v>
   </varray>
  </crystal>
  <varray name="positions" >
   <v>       0.08333333       0.16666667       0.00014739 </v>
   <v>       0.08300812       0.16863549       0.33608425 </v>
   <v>       0.08333333       0.16666667       0.66681406 </v>
   <v>       0.08333333       0.41666667       0.00014739 </v>
   <v>       0.08333333       0.41666667       0.33348073 </v>
   <v>       0.08333333       0.41666667       0.66681406 </v>
   <v>       0.08333333       0.66666667       0.00014739 </v>
   <v>       0.08333333       0.66666667       0.33348073 </v>
   <v>       0.08333333       0.66666667       0.66681406 </v>
   <v>       0.08333333       0.91666667       0.00014739 </v>
   <v>       0.08116691       0.91559968       0.33491050 </v>
   <v>       0.08333333       0.91666667       0.66681406 </v>
   <v>       0.33333333       0.16666667       0.00014739 </v>
   <v>       0.33333333       0.16666667       0.33348073 </v>
   <v>       0.33333333       0.16666667       0.66681406 </v>
   <v>       0.33333333       0.41666667       0.00014739 </v>
   <v>       0.33333333       0.41666667       0.33348073 </v>
   <v>       0.33333333       0.41666667       0.66681406 </v>
   <v>       0.33333333       0.66666667       0.00014739 </v>
   <v>       0.33333333       0.66666667       0.33348073 </v>
   <v>       0.33333333       0.66666667       0.66681406 </v>
   <v>       0.33333333       0.91666667       0.00014739 </v>
   <v>       0.33333333       0.91666667       0.33348073 </v>
   <v>       0.33333333       0.91666667       0.66681406 </v>
   <v>       0.58333333       0.16666667       0.00014739 </v>
   <v>       0.58333333       0.16666667       0.33348073 </v>
   <v>       0.58333333       0.16666667       0.66681406 </v>
   <v>       0.58333333       0.41666667       0.00014739 </v>
   <v>       0.58333333       0.41666667       0.33348073 </v>
   <v>       0.58333333       0.41666667       0.66681406 </v>
   <v>       0.58333333       0.66666667       0.00014739 </v>
   <v>       0.58333333       0.66666667       0.33348073 </v>
   <v>       0.58333333       0.66666667       0.66681406 </v>
   <v>       0.58333333       0.91666667       0.00014739 </v>
   <v>       0.58333333       0.91666667       0.33348073 </v>
   <v>       0.58333333       0.91666667       0.66681406 </v>
   <v>       0.83333333       0.16666667       0.00014739 </v>
   <v>       0.83333333       0.16666667       0.33348073 </v>
   <v>       0.83333333       0.16666667       0.66681406 </v>
   <v>       0.83333333       0.41666667       0.00014739 </v>
   <v>       0.83333333       0.41666667       0.33348073 </v>
   <v>       0.83333333       0.41666667       0.66681406 </v>
   <v>       0.83333333       0.66666667       0.00014739 </v>
   <v>       0.83333333       0.66666667       0.33348073 </v>
   <v>       0.83333333       0.66666667       0.66681406 </v>
   <v>       0.83333333       0.91666667       0.00014739 </v>
   <v>       0.83102891       0.91801512       0.33614448 </v>
   <v>       0.83333333       0.91666667       0.66681406 </v>
   <v>       0.15515052       0.07926386       0.17495031 </v>
   <v>       0.16666667       0.08333333       0.50014739 </v>
   <v>       0.16666667       0.08333333       0.83348073 </v>
   <v>       0.16666667       0.33333333       0.16681406 </v>
   <v>       0.16666667       0.33333333       0.50014739 </v>
   <v>       0.16666667       0.33333333       0.83348073 </v>
   <v>       0.16666667       0.58333333       0.16681406 </v>
   <v>       0.16666667       0.58333333       0.50014739 </v>
   <v>       0.16666667       0.58333333       0.83348073 </v>
   <v>       0.16666667       0.83333333       0.16681406 </v>
   <v>       0.16666667       0.83333333       0.50014739 </v>
   <v>       0.16666667       0.83333333       0.83348073 </v>
   <v>       0.41666667       0.08333333       0.16681406 </v>
   <v>       0.41666667       0.08333333       0.50014739 </v>
   <v>       0.41666667       0.08333333       0.83348073 </v>
   <v>       0.41666667       0.33333333       0.16681406 </v>
   <v>       0.41666667       0.33333333       0.50014739 </v>
   <v>       0.41666667       0.33333333       0.83348073 </v>
   <v>       0.41666667       0.58333333       0.16681406 </v>
   <v>       0.41666667       0.58333333       0.50014739 </v>
   <v>       0.41666667       0.58333333       0.83348073 </v>
   <v>       0.41666667       0.83333333       0.16681406 </v>
   <v>       0.41666667       0.83333333       0.50014739 </v>
   <v>       0.41666667       0.83333333       0.83348073 </v>
   <v>       0.66666667       0.08333333       0.16681406 </v>
   <v>       0.66666667       0.08333333       0.50014739 </v>
   <v>       0.66666667       0.08333333       0.83348073 </v>
   <v>       0.66666667       0.33333333       0.16681406 </v>
   <v>       0.66666667       0.33333333       0.50014739 </v>
   <v>       0.66666667       0.33333333       0.83348073 </v>
   <v>       0.66666667       0.58333333       0.16681406 </v>
   <v>       0.66666667       0.58333333       0.50014739 </v>
   <v>       0.66666667       0.58333333       0.83348073 </v>
   <v>       0.66666667       0.83333333       0.16681406 </v>
   <v>       0.66666667       0.83333333       0.50014739 </v>
   <v>       0.66666667       0.83333333       0.83348073 </v>
   <v>       0.91582834       0.07769367       0.16034183 </v>
   <v>       0.91666667       0.08333333       0.50014739 </v>
   <v>       0.91666667       0.08333333       0.83348073 </v>
   <v>       0.91666667       0.33333333       0.16681406 </v>
   <v>       0.91666667       0.33333333       0.50014739 </v>
   <v>       0.91666667       0.33333333       0.83348073 </v>
   <v>       0.91666667       0.58333333       0.16681406 </v>
   <v>       0.91666667       0.58333333       0.50014739 </v>
   <v>       0.91666667       0.58333333       0.83348073 </v>
   <v>       0.92483450       0.82780121       0.16405601 </v>
   <v>       0.91666667       0.83333333       0.50014739 </v>
   <v>       0.91666667       0.83333333       0.83348073 </v>
   <v>       0.08520833       0.16656486       0.12690963 </v>
   <v>       0.08333333       0.16666667       0.46048594 </v>
   <v>       0.08333333       0.16666667       0.79381927 </v>
   <v>       0.08333333       0.41666667       0.12715261 </v>
   <v>       0.08333333       0.41666667       0.46048594 </v>
   <v>       0.08333333       0.41666667       0.79381927 </v>
   <v>       0.08333333       0.66666667       0.12715261 </v>
   <v>       0.08333333       0.66666667       0.46048594 </v>
   <v>       0.08333333       0.66666667       0.79381927 </v>
   <v>       0.08670324       0.91732468       0.12297209 </v>
   <v>       0.08333333       0.91666667       0.46048594 </v>
   <v>       0.08333333       0.91666667       0.79381927 </v>
   <v>       0.33333333       0.16666667       0.12715261 </v>
   <v>       0.33333333       0.16666667       0.46048594 </v>
   <v>       0.33333333       0.16666667       0.79381927 </v>
   <v>       0.33333333       0.41666667       0.12715261 </v>
   <v>       0.33333333       0.41666667       0.46048594 </v>
   <v>       0.33333333       0.41666667       0.79381927 </v>
   <v>       0.33333333       0.66666667       0.12715261 </v>
   <v>       0.33333333       0.66666667       0.46048594 </v>
   <v>       0.33333333       0.66666667       0.79381927 </v>
   <v>       0.33333333       0.91666667       0.12715261 </v>
   <v>       0.33333333       0.91666667       0.46048594 </v>
   <v>       0.33333333       0.91666667       0.79381927 </v>
   <v>       0.58333333       0.16666667       0.12715261 </v>
   <v>       0.58333333       0.16666667       0.46048594 </v>
   <v>       0.58333333       0.16666667       0.79381927 </v>
   <v>       0.58333333       0.41666667       0.12715261 </v>
   <v>       0.58333333       0.41666667       0.46048594 </v>
   <v>       0.58333333       0.41666667       0.79381927 </v>
   <v>       0.58333333       0.66666667       0.12715261 </v>
   <v>       0.58333333       0.66666667       0.46048594 </v>
   <v>       0.58333333       0.66666667       0.79381927 </v>
   <v>       0.58333333       0.91666667       0.12715261 </v>
   <v>       0.58333333       0.91666667       0.46048594 </v>
   <v>       0.58333333       0.91666667       0.79381927 </v>
   <v>       0.83333333       0.16666667       0.12715261 </v>
   <v>       0.83333333       0.16666667       0.46048594 </v>
   <v>       0.83333333       0.16666667       0.79381927 </v>
   <v>       0.83333333       0.41666667       0.12715261 </v>
   <v>       0.83333333       0.41666667       0.46048594 </v>
   <v>       0.83333333       0.41666667       0.79381927 </v>
   <v>       0.83333333       0.66666667       0.12715261 </v>
   <v>       0.83333333       0.66666667       0.46048594 </v>
   <v>       0.83333333       0.66666667       0.79381927 </v>
   <v>       0.83759376       0.92378311       0.12683260 </v>
   <v>       0.83333333       0.91666667       0.46048594 </v>
   <v>       0.83333333       0.91666667       0.79381927 </v>
   <v>       0.16903635       0.08301859       0.29517085 </v>
   <v>       0.16666667       0.08333333       0.62715261 </v>
   <v>       0.16666667       0.08333333       0.96048594 </v>
   <v>       0.16666667       0.33333333       0.29381927 </v>
   <v>       0.16666667       0.33333333       0.62715261 </v>
   <v>       0.16666667       0.33333333       0.96048594 </v>
   <v>       0.16666667       0.58333333       0.29381927 </v>
   <v>       0.16666667       0.58333333       0.62715261 </v>
   <v>       0.16666667       0.58333333       0.96048594 </v>
   <v>       0.16666667       0.83333333       0.29381927 </v>
   <v>       0.16666667       0.83333333       0.62715261 </v>
   <v>       0.16666667       0.83333333       0.96048594 </v>
   <v>       0.41666667       0.08333333       0.29381927 </v>
   <v>       0.41666667       0.08333333       0.62715261 </v>
   <v>       0.41666667       0.08333333       0.96048594 </v>
   <v>       0.41666667       0.33333333       0.29381927 </v>
   <v>       0.41666667       0.33333333       0.62715261 </v>
   <v>       0.41666667       0.33333333       0.96048594 </v>
   <v>       0.41666667       0.58333333       0.29381927 </v>
   <v>       0.41666667       0.58333333       0.62715261 </v>
   <v>       0.41666667       0.58333333       0.96048594 </v>
   <v>       0.41666667       0.83333333       0.29381927 </v>
   <v>       0.41666667       0.83333333       0.62715261 </v>
   <v>       0.41666667       0.83333333       0.96048594 </v>
   <v>       0.66666667       0.08333333       0.29381927 </v>
   <v>       0.66666667       0.08333333       0.62715261 </v>
   <v>       0.66666667       0.08333333       0.96048594 </v>
   <v>       0.66666667       0.33333333       0.29381927 </v>
   <v>       0.66666667       0.33333333       0.62715261 </v>
   <v>       0.66666667       0.33333333       0.96048594 </v>
   <v>       0.66666667       0.58333333       0.29381927 </v>
   <v>       0.66666667       0.58333333       0.62715261 </v>
   <v>       0.66666667       0.58333333       0.96048594 </v>
   <v>       0.66666667       0.83333333       0.29381927 </v>
   <v>       0.66666667       0.83333333       0.62715261 </v>
   <v>       0.66666667       0.83333333       0.96048594 </v>
   <v>       0.91524107       0.09302584       0.29541652 </v>
   <v>       0.91666667       0.08333333       0.62715261 </v>
   <v>       0.91666667       0.08333333       0.96048594 </v>
   <v>       0.91666667       0.33333333       0.29381927 </v>
   <v>       0.91666667       0.33333333       0.62715261 </v>
   <v>       0.91666667       0.33333333       0.96048594 </v>
   <v>       0.91666667       0.58333333       0.29381927 </v>
   <v>       0.91666667       0.58333333       0.62715261 </v>
   <v>       0.91666667       0.58333333       0.96048594 </v>
   <v>       0.91519217       0.83531395       0.29412462 </v>
   <v>       0.91666667       0.83333333       0.62715261 </v>
   <v>       0.91666667       0.83333333       0.96048594 </v>
   <v>       0.00000000       0.00000000       0.23214286 </v>
  </varray>
 </structure>
 <calculation>
  <scstep>
   <time name="total">   17.44   17.79</time>
   <energy>
    <i name="alphaZ">  11503.89908733 </i>
    <i name="ewald">-143004.77766039 </i>
    <i name="hartreedc"> -62131.67808862 </i>
    <i name="XCdc">   8205.08268085 </i>
    <i name="pawpsdc"> 173667.62885879 </i>
    <i name="pawaedc">-249658.28215683 </i>
    <i name="eentropy">     -0.08441017 </i>
    <i name="bandstr">  13196.57152629 </i>
    <i name="atom"> 209667.84454329 </i>
    <i name="e_fr_energy"> -38553.79561948 </i>
    <i name="e_wo_entrp"> -38553.71120931 </i>
    <i name="e_0_energy"> -38553.75341439 </i>
   </energy>
  </scstep>
  <scstep>
   <time name="total">   22.32   22.46</time>
   <energy>
    <i name="e_fr_energy"> -59439.49708488 </i>
    <i name="e_wo_entrp"> -59439.40867752 </i>
    <i name="e_0_energy"> -59439.45288120 </i>
   </energy>
  </scstep>
  <scstep>
   <time name="total">   24.67   24.80</time>
   <energy>
    <i name="e_fr_energy"> -65695.31568877 </i>
    <i name="e_wo_entrp"> -65695.31568877 </i>
    <i name="e_0_energy"> -65695.31568877 </i>
   </energy>
  </scstep>
  <scstep>
   <time name="total">   24.79   24.90</time>
   <energy>
    <i name="e_fr_energy"> -66671.74547375 </i>
    <i name="e_wo_entrp"> -66671.74547375 </i>
    <i name="e_0_energy"> -66671.74547375 </i>
   </energy>
  </scstep>
  <scstep>
   <time name="total"> 1782.36 1793.55</time>
   <energy>
    <i name="e_fr_energy">  -1295.91562099 </i>
    <i name="e_wo_entrp">  -1295.91562099 </i>
    <i name="e_0_energy">  -1295.91562099 </i>
   </energy>
  </scstep>
  <scstep>
   <time name="total"> 1755.83 1766.77</time>
   <energy>
    <i name="e_fr_energy">   -680.55093354 </i>
    <i name="e_wo_entrp">   -680.55093354 </i>
    <i name="e_0_energy">   -680.55093354 </i>
   </energy>
  </scstep>
  <scstep>
   <time name="total"> 1755.90 1766.71</time>
   <energy>
    <i name="e_fr_energy">  -1135.80905578 </i>
    <i name="e_wo_entrp">  -1135.80905578 </i>
    <i name="e_0_energy">  -1135.80905578 </i>
   </energy>
  </scstep>
  <scstep>
   <time name="total"> 1756.03 1766.24</time>
   <energy>
    <i name="e_fr_energy">  -1117.72752164 </i>
    <i name="e_wo_entrp">  -1117.72752164 </i>
    <i name="e_0_energy">  -1117.72752164 </i>
   </energy>
  </scstep>
  <scstep>
   <time name="total"> 1757.38 1768.22</time>
   <energy>
    <i name="e_fr_energy">  -1181.76604536 </i>
    <i name="e_wo_entrp">  -1181.76604536 </i>
    <i name="e_0_energy">  -1181.76604536 </i>
   </energy>
  </scstep>
  <scstep>
   <time name="total"> 1755.72 1767.63</time>
   <energy>
    <i name="e_fr_energy">  -1195.24977095 </i>
    <i name="e_wo_entrp">  -1195.24977095 </i>
    <i name="e_0_energy">  -1195.24977095 </i>
   </energy>
  </scstep>
  <scstep>
   <time name="total"> 1755.67 1766.11</time>
   <energy>
    <i name="e_fr_energy">  -1199.82290563 </i>
    <i name="e_wo_entrp">  -1199.82290563 </i>
    <i name="e_0_energy">  -1199.82290563 </i>
   </energy>
  </scstep>
  <scstep>
   <time name="total"> 1754.96 1765.67</time>
   <energy>
    <i name="e_fr_energy">  -1203.07134391 </i>
    <i name="e_wo_entrp">  -1203.07134391 </i>
    <i name="e_0_energy">  -1203.07134391 </i>
   </energy>
  </scstep>
  <scstep>
   <time name="total"> 1756.60 1768.03</time>
   <energy>
    <i name="e_fr_energy">  -1203.32611075 </i>
    <i name="e_wo_entrp">  -1203.32611075 </i>
    <i name="e_0_energy">  -1203.32611075 </i>
   </energy>
  </scstep>
  <scstep>
   <time name="total"> 1756.94 1768.39</time>
   <energy>
    <i name="e_fr_energy">  -1203.78864725 </i>
    <i name="e_wo_entrp">  -1203.78864725 </i>
    <i name="e_0_energy">  -1203.78864725 </i>
   </energy>
  </scstep>
  <scstep>
   <time name="total"> 1755.85 1768.07</time>
   <energy>
    <i name="e_fr_energy">  -1203.90058526 </i>
    <i name="e_wo_entrp">  -1203.90058526 </i>
    <i name="e_0_energy">  -1203.90058526 </i>
   </energy>
  </scstep>
  <scstep>
   <time name="total"> 1756.13 1767.15</time>
   <energy>
    <i name="e_fr_energy">  -1203.94340212 </i>
    <i name="e_wo_entrp">  -1203.94340212 </i>
    <i name="e_0_energy">  -1203.94340212 </i>
   </energy>
  </scstep>
  <scstep>
   <time name="total"> 1755.86 1771.15</time>
   <energy>
    <i name="e_fr_energy">  -1203.98188251 </i>
    <i name="e_wo_entrp">  -1203.98188251 </i>
    <i name="e_0_energy">  -1203.98188251 </i>
   </energy>
  </scstep>
  <scstep>
   <time name="total"> 1757.83 1773.82</time>
   <energy>
    <i name="e_fr_energy">  -1203.99171192 </i>
    <i name="e_wo_entrp">  -1203.99171192 </i>
    <i name="e_0_energy">  -1203.99171192 </i>
   </energy>
  </scstep>
  <scstep>
   <time name="total"> 1754.63 1770.63</time>
   <energy>
    <i name="e_fr_energy">  -1203.99926943 </i>
    <i name="e_wo_entrp">  -1203.99926943 </i>
    <i name="e_0_energy">  -1203.99926943 </i>
   </energy>
  </scstep>
  <scstep>
   <time name="total"> 1755.72 1771.16</time>
   <energy>
    <i name="e_fr_energy">  -1204.00290923 </i>
    <i name="e_wo_entrp">  -1204.00290923 </i>
    <i name="e_0_energy">  -1204.00290923 </i>
   </energy>
  </scstep>
  <scstep>
   <time name="total"> 1755.63 1771.18</time>
   <energy>
    <i name="e_fr_energy">  -1204.00474846 </i>
    <i name="e_wo_entrp">  -1204.00474846 </i>
    <i name="e_0_energy">  -1204.00474846 </i>
   </energy>
  </scstep>
  <scstep>
   <time name="total"> 1754.45 1771.39</time>
   <energy>
    <i name="e_fr_energy">  -1204.00592063 </i>
    <i name="e_wo_entrp">  -1204.00592063 </i>
    <i name="e_0_energy">  -1204.00592063 </i>
   </energy>
  </scstep>
  <scstep>
   <time name="total"> 1754.40 1771.00</time>
   <energy>
    <i name="e_fr_energy">  -1204.00656670 </i>
    <i name="e_wo_entrp">  -1204.00656670 </i>
    <i name="e_0_energy">  -1204.00656670 </i>
   </energy>
  </scstep>
  <scstep>
   <time name="total"> 1757.60 1772.35</time>
   <energy>
    <i name="e_fr_energy">  -1204.00699814 </i>
    <i name="e_wo_entrp">  -1204.00699814 </i>
    <i name="e_0_energy">  -1204.00699814 </i>
   </energy>
  </scstep>
  <scstep>
   <time name="total"> 1756.20 1772.57</time>
   <energy>
    <i name="e_fr_energy">  -1204.00728399 </i>
    <i name="e_wo_entrp">  -1204.00728399 </i>
    <i name="e_0_energy">  -1204.00728399 </i>
   </energy>
  </scstep>
  <scstep>
   <time name="total"> 1754.46 1770.91</time>
   <energy>
    <i name="e_fr_energy">  -1204.00748446 </i>
    <i name="e_wo_entrp">  -1204.00748446 </i>
    <i name="e_0_energy">  -1204.00748446 </i>
   </energy>
  </scstep>
  <scstep>
   <time name="total"> 1756.68 1773.78</time>
   <energy>
    <i name="e_fr_energy">  -1204.00763753 </i>
    <i name="e_wo_entrp">  -1204.00763753 </i>
    <i name="e_0_energy">  -1204.00763753 </i>
   </energy>
  </scstep>
  <scstep>
   <time name="total"> 1756.21 1772.22</time>
   <energy>
    <i name="e_fr_energy">  -1204.00776098 </i>
    <i name="e_wo_entrp">  -1204.00776098 </i>
    <i name="e_0_energy">  -1204.00776098 </i>
   </energy>
  </scstep>
  <scstep>
   <time name="total"> 1755.41 1772.34</time>
   <energy>
    <i name="e_fr_energy">  -1204.00786500 </i>
    <i name="e_wo_entrp">  -1204.00786500 </i>
    <i name="e_0_energy">  -1204.00786500 </i>
   </energy>
  </scstep>
  <scstep>
   <time name="total"> 1756.41 1770.41</time>
   <energy>
    <i name="e_fr_energy">  -1204.00795237 </i>
    <i name="e_wo_entrp">  -1204.00795237 </i>
    <i name="e_0_energy">  -1204.00795237 </i>
   </energy>
  </scstep>
  <scstep>
   <time name="total"> 1754.72 1768.12</time>
   <energy>
    <i name="e_fr_energy">  -1204.00802649 </i>
    <i name="e_wo_entrp">  -1204.00802649 </i>
    <i name="e_0_energy">  -1204.00802649 </i>
   </energy>
  </scstep>
  <scstep>
   <time name="total"> 1755.96 1768.81</time>
   <energy>
    <i name="e_fr_energy">  -1204.00809190 </i>
    <i name="e_wo_entrp">  -1204.00809190 </i>
    <i name="e_0_energy">  -1204.00809190 </i>
   </energy>
  </scstep>
  <scstep>
   <time name="total"> 1754.53 1768.43</time>
   <energy>
    <i name="e_fr_energy">  -1204.00815113 </i>
    <i name="e_wo_entrp">  -1204.00815113 </i>
    <i name="e_0_energy">  -1204.00815113 </i>
   </energy>
  </scstep>
  <scstep>
   <time name="total"> 1754.32 1771.19</time>
   <energy>
    <i name="e_fr_energy">  -1204.00820541 </i>
    <i name="e_wo_entrp">  -1204.00820541 </i>
    <i name="e_0_energy">  -1204.00820541 </i>
   </energy>
  </scstep>
  <scstep>
   <time name="total"> 1756.04 1770.47</time>
   <energy>
    <i name="e_fr_energy">  -1204.00825498 </i>
    <i name="e_wo_entrp">  -1204.00825498 </i>
    <i name="e_0_energy">  -1204.00825498 </i>
   </energy>
  </scstep>
  <scstep>
   <time name="total"> 1754.75 1768.87</time>
   <energy>
    <i name="e_fr_energy">  -1204.00830071 </i>
    <i name="e_wo_entrp">  -1204.00830071 </i>
    <i name="e_0_energy">  -1204.00830071 </i>
   </energy>
  </scstep>
  <scstep>
   <time name="total"> 1753.96 1768.55</time>
   <energy>
    <i name="e_fr_energy">  -1204.00834314 </i>
    <i name="e_wo_entrp">  -1204.00834314 </i>
    <i name="e_0_energy">  -1204.00834314 </i>
   </energy>
  </scstep>
  <scstep>
   <time name="total"> 1752.13 1765.74</time>
   <energy>
    <i name="e_fr_energy">  -1204.00838243 </i>
    <i name="e_wo_entrp">  -1204.00838243 </i>
    <i name="e_0_energy">  -1204.00838243 </i>
   </energy>
  </scstep>
  <scstep>
   <time name="total"> 1751.76 1764.91</time>
   <energy>
    <i name="e_fr_energy">  -1204.00841856 </i>
    <i name="e_wo_entrp">  -1204.00841856 </i>
    <i name="e_0_energy">  -1204.00841856 </i>
   </energy>
  </scstep>
  <scstep>
   <time name="total"> 1752.46 1766.32</time>
   <energy>
    <i name="e_fr_energy">  -1204.00845141 </i>
    <i name="e_wo_entrp">  -1204.00845141 </i>
    <i name="e_0_energy">  -1204.00845141 </i>
   </energy>
  </scstep>
  <scstep>
   <time name="total"> 1748.68 1764.98</time>
   <energy>
    <i name="e_fr_energy">  -1204.00848081 </i>
    <i name="e_wo_entrp">  -1204.00848081 </i>
    <i name="e_0_energy">  -1204.00848081 </i>
   </energy>
  </scstep>
  <scstep>
   <time name="total"> 1752.71 1766.38</time>
   <energy>
    <i name="e_fr_energy">  -1204.00850664 </i>
    <i name="e_wo_entrp">  -1204.00850664 </i>
    <i name="e_0_energy">  -1204.00850664 </i>
   </energy>
  </scstep>
  <scstep>
   <time name="total"> 1755.73 1766.16</time>
   <energy>
    <i name="e_fr_energy">  -1204.00852858 </i>
    <i name="e_wo_entrp">  -1204.00852858 </i>
    <i name="e_0_energy">  -1204.00852858 </i>
   </energy>
  </scstep>
  <scstep>
   <time name="total"> 1755.97 1764.94</time>
   <energy>
    <i name="e_fr_energy">  -1204.00854625 </i>
    <i name="e_wo_entrp">  -1204.00854625 </i>
    <i name="e_0_energy">  -1204.00854625 </i>
   </energy>
  </scstep>
  <scstep>
   <time name="total"> 1754.84 1765.17</time>
   <energy>
    <i name="e_fr_energy">  -1204.00855185 </i>
    <i name="e_wo_entrp">  -1204.00855185 </i>
    <i name="e_0_energy">  -1204.00855185 </i>
   </energy>
  </scstep>
  <scstep>
   <time name="total"> 1757.23 1767.02</time>
   <energy>
    <i name="e_fr_energy">  -1204.00849359 </i>
    <i name="e_wo_entrp">  -1204.00849359 </i>
    <i name="e_0_energy">  -1204.00849359 </i>
   </energy>
  </scstep>
  <scstep>
   <time name="total"> 1756.02 1766.27</time>
   <energy>
    <i name="e_fr_energy">  -1204.00807116 </i>
    <i name="e_wo_entrp">  -1204.00807116 </i>
    <i name="e_0_energy">  -1204.00807116 </i>
   </energy>
  </scstep>
  <scstep>
   <time name="total"> 1754.72 1765.77</time>
   <energy>
    <i name="e_fr_energy">  -1204.00616261 </i>
    <i name="e_wo_entrp">  -1204.00616261 </i>
    <i name="e_0_energy">  -1204.00616261 </i>
   </energy>
  </scstep>
  <scstep>
   <time name="total"> 1755.48 1766.10</time>
   <energy>
    <i name="e_fr_energy">  -1204.00008164 </i>
    <i name="e_wo_entrp">  -1204.00008164 </i>
    <i name="e_0_energy">  -1204.00008164 </i>
   </energy>
  </scstep>
  <scstep>
   <time name="total"> 1757.00 1766.52</time>
   <energy>
    <i name="e_fr_energy">  -1203.98654355 </i>
    <i name="e_wo_entrp">  -1203.98654355 </i>
    <i name="e_0_energy">  -1203.98654355 </i>
   </energy>
  </scstep>
  <scstep>
   <time name="total"> 1754.83 1764.97</time>
   <energy>
    <i name="e_fr_energy">  -1203.96359119 </i>
    <i name="e_wo_entrp">  -1203.96359119 </i>
    <i name="e_0_energy">  -1203.96359119 </i>
   </energy>
  </scstep>
  <scstep>
   <time name="total"> 1756.20 1766.64</time>
   <energy>
    <i name="e_fr_energy">  -1203.92700973 </i>
    <i name="e_wo_entrp">  -1203.92700973 </i>
    <i name="e_0_energy">  -1203.92700973 </i>
   </energy>
  </scstep>
  <scstep>
   <time name="total"> 1757.32 1768.21</time>
   <energy>
    <i name="e_fr_energy">  -1203.86268335 </i>
    <i name="e_wo_entrp">  -1203.86268335 </i>
    <i name="e_0_energy">  -1203.86268335 </i>
   </energy>
  </scstep>
  <scstep>
   <time name="total"> 1756.57 1768.55</time>
   <energy>
    <i name="e_fr_energy">  -1203.76445332 </i>
    <i name="e_wo_entrp">  -1203.76445332 </i>
    <i name="e_0_energy">  -1203.76445332 </i>
   </energy>
  </scstep>
  <scstep>
   <time name="total"> 1755.78 1769.11</time>
   <energy>
    <i name="e_fr_energy">  -1203.64505276 </i>
    <i name="e_wo_entrp">  -1203.64505276 </i>
    <i name="e_0_energy">  -1203.64505276 </i>
   </energy>
  </scstep>
  <scstep>
   <time name="total"> 1755.87 1768.75</time>
   <energy>
    <i name="e_fr_energy">  -1203.45088603 </i>
    <i name="e_wo_entrp">  -1203.45088603 </i>
    <i name="e_0_energy">  -1203.45088603 </i>
   </energy>
  </scstep>
  <scstep>
   <time name="total"> 1755.53 1768.10</time>
   <energy>
    <i name="e_fr_energy">  -1203.14657268 </i>
    <i name="e_wo_entrp">  -1203.14657268 </i>
    <i name="e_0_energy">  -1203.14657268 </i>
   </energy>
  </scstep>
  <scstep>
   <time name="total"> 1757.03 1773.61</time>
   <energy>
    <i name="e_fr_energy">  -1202.78198522 </i>
    <i name="e_wo_entrp">  -1202.78198522 </i>
    <i name="e_0_energy">  -1202.78198522 </i>
   </energy>
  </scstep>
  <scstep>
   <time name="total"> 1757.83 1776.15</time>
   <energy>
    <i name="e_fr_energy">  -1202.57764690 </i>
    <i name="e_wo_entrp">  -1202.57764690 </i>
    <i name="e_0_energy">  -1202.57764690 </i>
   </energy>
  </scstep>
  <scstep>
   <time name="total"> 1756.14 1770.81</time>
   <energy>
    <i name="e_fr_energy">  -1202.66063588 </i>
    <i name="e_wo_entrp">  -1202.66063588 </i>
    <i name="e_0_energy">  -1202.66063588 </i>
   </energy>
  </scstep>
  <scstep>
   <time name="total"> 1755.63 1769.56</time>
   <energy>
    <i name="e_fr_energy">  -1202.81782555 </i>
    <i name="e_wo_entrp">  -1202.81782555 </i>
    <i name="e_0_energy">  -1202.81782555 </i>
   </energy>
  </scstep>
  <scstep>
   <time name="total"> 1756.30 1772.42</time>
   <energy>
    <i name="e_fr_energy">  -1203.20940922 </i>
    <i name="e_wo_entrp">  -1203.20940922 </i>
    <i name="e_0_energy">  -1203.20940922 </i>
   </energy>
  </scstep>
  <scstep>
   <time name="total"> 1757.68 1772.98</time>
   <energy>
    <i name="e_fr_energy">  -1203.44700091 </i>
    <i name="e_wo_entrp">  -1203.44700091 </i>
    <i name="e_0_energy">  -1203.44700091 </i>
   </energy>
  </scstep>
  <scstep>
   <time name="total"> 1755.63 1772.15</time>
   <energy>
    <i name="e_fr_energy">  -1203.74667812 </i>
    <i name="e_wo_entrp">  -1203.74667812 </i>
    <i name="e_0_energy">  -1203.74667812 </i>
   </energy>
  </scstep>
  <scstep>
   <time name="total"> 1757.59 1770.90</time>
   <energy>
    <i name="e_fr_energy">  -1203.85593369 </i>
    <i name="e_wo_entrp">  -1203.85593369 </i>
    <i name="e_0_energy">  -1203.85593369 </i>
   </energy>
  </scstep>
  <scstep>
   <time name="total"> 1758.66 1768.98</time>
   <energy>
    <i name="e_fr_energy">  -1203.95130465 </i>
    <i name="e_wo_entrp">  -1203.95130465 </i>
    <i name="e_0_energy">  -1203.95130465 </i>
   </energy>
  </scstep>
  <scstep>
   <time name="total"> 1755.60 1767.46</time>
   <energy>
    <i name="e_fr_energy">  -1203.98061506 </i>
    <i name="e_wo_entrp">  -1203.98061506 </i>
    <i name="e_0_energy">  -1203.98061506 </i>
   </energy>
  </scstep>
  <scstep>
   <time name="total"> 1757.78 1769.49</time>
   <energy>
    <i name="e_fr_energy">  -1204.00043153 </i>
    <i name="e_wo_entrp">  -1204.00043153 </i>
    <i name="e_0_energy">  -1204.00043153 </i>
   </energy>
  </scstep>
  <scstep>
   <time name="total"> 1757.54 1768.43</time>
   <energy>
    <i name="e_fr_energy">  -1204.00582597 </i>
    <i name="e_wo_entrp">  -1204.00582597 </i>
    <i name="e_0_energy">  -1204.00582597 </i>
   </energy>
  </scstep>
  <scstep>
   <time name="total"> 1756.47 1769.66</time>
   <energy>
    <i name="e_fr_energy">  -1204.00803233 </i>
    <i name="e_wo_entrp">  -1204.00803233 </i>
    <i name="e_0_energy">  -1204.00803233 </i>
   </energy>
  </scstep>
  <scstep>
   <time name="total"> 1756.66 1768.77</time>
   <energy>
    <i name="e_fr_energy">  -1204.00846536 </i>
    <i name="e_wo_entrp">  -1204.00846536 </i>
    <i name="e_0_energy">  -1204.00846536 </i>
   </energy>
  </scstep>
  <scstep>
   <time name="total"> 1757.67 1771.23</time>
   <energy>
    <i name="e_fr_energy">  -1204.00852696 </i>
    <i name="e_wo_entrp">  -1204.00852696 </i>
    <i name="e_0_energy">  -1204.00852696 </i>
   </energy>
  </scstep>
  <scstep>
   <time name="total"> 1756.59 1769.33</time>
   <energy>
    <i name="e_fr_energy">  -1204.00856502 </i>
    <i name="e_wo_entrp">  -1204.00856502 </i>
    <i name="e_0_energy">  -1204.00856502 </i>
   </energy>
  </scstep>
  <scstep>
   <time name="total"> 1755.16 1770.05</time>
   <energy>
    <i name="e_fr_energy">  -1204.00857701 </i>
    <i name="e_wo_entrp">  -1204.00857701 </i>
    <i name="e_0_energy">  -1204.00857701 </i>
   </energy>
  </scstep>
  <scstep>
   <time name="total"> 1758.26 1771.55</time>
   <energy>
    <i name="e_fr_energy">  -1204.00859387 </i>
    <i name="e_wo_entrp">  -1204.00859387 </i>
    <i name="e_0_energy">  -1204.00859387 </i>
   </energy>
  </scstep>
  <scstep>
   <time name="total"> 3501.35 3528.34</time>
   <energy>
    <i name="alphaZ">  11503.89908733 </i>
    <i name="ewald">-143004.77766039 </i>
    <i name="hartreedc"> -64061.77878416 </i>
    <i name="XCdc">   5456.86258706 </i>
    <i name="pawpsdc"> 212481.54482930 </i>
    <i name="pawaedc">-228101.64359318 </i>
    <i name="eentropy">     -0.00000000 </i>
    <i name="bandstr"> -12489.38162601 </i>
    <i name="atom"> 209667.84454329 </i>
    <i name="e_fr_energy">  -1204.00859736 </i>
    <i name="e_wo_entrp">  -1204.00859736 </i>
    <i name="e_0_energy">  -1204.00859736 </i>
   </energy>
  </scstep>
  <structure>
   <crystal>
    <varray name="basis" >
     <v>      12.99749010       0.00000000       0.00000000 </v>
     <v>      -6.49874505      11.25615661       0.00000000 </v>
     <v>       0.00000000       0.00000000      15.63160369 </v>
    </varray>
    <i name="volume">   2286.93150813 </i>
    <varray name="rec_basis" >
     <v>       0.07693793       0.04442014       0.00000000 </v>
     <v>       0.00000000       0.08884027       0.00000000 </v>
     <v>       0.00000000       0.00000000       0.06397296 </v>
    </varray>
   </crystal>
   <varray name="positions" >
    <v>       0.08333333       0.16666667       0.00014739 </v>
    <v>       0.08300812       0.16863549       0.33608425 </v>
    <v>       0.08333333       0.16666667       0.66681406 </v>
    <v>       0.08333333       0.41666667       0.00014739 </v>
    <v>       0.08333333       0.41666667       0.33348073 </v>
    <v>       0.08333333       0.41666667       0.66681406 </v>
    <v>       0.08333333       0.66666667       0.00014739 </v>
    <v>       0.08333333       0.66666667       0.33348073 </v>
    <v>       0.08333333       0.66666667       0.66681406 </v>
    <v>       0.08333333       0.91666667       0.00014739 </v>
    <v>       0.08116691       0.91559968       0.33491050 </v>
    <v>       0.08333333       0.91666667       0.66681406 </v>
    <v>       0.33333333       0.16666667       0.00014739 </v>
    <v>       0.33333333       0.16666667       0.33348073 </v>
    <v>       0.33333333       0.16666667       0.66681406 </v>
    <v>       0.33333333       0.41666667       0.00014739 </v>
    <v>       0.33333333       0.41666667       0.33348073 </v>
    <v>       0.33333333       0.41666667       0.66681406 </v>
    <v>       0.33333333       0.66666667       0.00014739 </v>
    <v>       0.33333333       0.66666667       0.33348073 </v>
    <v>       0.33333333       0.66666667       0.66681406 </v>
    <v>       0.33333333       0.91666667       0.00014739 </v>
    <v>       0.33333333       0.91666667       0.33348073 </v>
[...]
   <v>       0.04753862       0.36666359      -0.22839339 </v>
   <v>       0.01704426       0.03866961      -0.05668012 </v>
   <v>       0.00816592       0.20286235      -0.27934836 </v>
   <v>       0.05523302       0.59685776      -0.28807365 </v>
   <v>       0.00648503       0.06605277      -0.03695034 </v>
   <v>       0.47292755       0.15134325       0.92101682 </v>
   <v>      -3.29997413      -2.15918160       2.61650229 </v>
   <v>       0.07419525       0.01802465       0.02338044 </v>
   <v>    -115.73463308     -65.24708397      26.08842185 </v>
   <v>      -0.09299010      -0.10231344      -0.79486957 </v>
   <v>      -0.05655260      -0.02435601       0.23896593 </v>
   <v>       0.00328628      -1.59207897       0.16060622 </v>
   <v>       0.04683203      -0.21021412      -0.16959544 </v>
   <v>      -0.01171648      -0.03847550       0.23272228 </v>
   <v>      -0.23514253      -0.03335245      -0.07091954 </v>
   <v>      -0.10215054      -0.01411577      -0.23608969 </v>
   <v>      -0.01637686       0.00102253       0.10489772 </v>
   <v>      -1.55896720       0.69878739       0.21122103 </v>
   <v>      -0.20766377       0.10230437      -0.17953303 </v>
   <v>      -0.04115442      -0.01156684       0.22251129 </v>
   <v>       0.90903204      -0.60335947       0.56013515 </v>
   <v>      -0.32832766       0.04541837      -0.25357852 </v>
   <v>      -0.05330193      -0.02934252      -0.01927038 </v>
   <v>       0.02748629       1.19188995       0.56580234 </v>
   <v>      -0.08930863      -0.27199650      -0.27324361 </v>
   <v>      -0.04286040      -0.01721237      -0.00831096 </v>
   <v>       0.18459991      -0.01379137      -0.06821086 </v>
   <v>       0.05043755      -0.08699686      -0.22801300 </v>
   <v>       0.00552346       0.00499333       0.09363540 </v>
   <v>       0.00342032       0.08639971      -0.05386842 </v>
   <v>      -0.08542661       0.05252159      -0.21180287 </v>
   <v>      -0.00204681      -0.01194562       0.08326462 </v>
   <v>      -0.29905297      -0.36012591       0.16359160 </v>
   <v>       0.07494086       0.00289821      -0.12819239 </v>
   <v>       0.06364907      -0.02518513       0.04576511 </v>
   <v>       0.03059250       0.14229077       0.10885803 </v>
   <v>      -0.04026810       0.04287705      -0.15272684 </v>
   <v>       0.01033023       0.02710732       0.04021484 </v>
   <v>      -0.12441758       0.23204526       0.21084043 </v>
   <v>       0.18165649       0.14237200      -0.25154759 </v>
   <v>       0.01970853       0.07233818       0.11862662 </v>
   <v>       1.00469533       0.39896044      -0.16358848 </v>
   <v>       0.06676886      -0.03440156      -0.03542497 </v>
   <v>       0.06165565       0.01412413       0.24898144 </v>
   <v>      29.48354848     -15.41833590       5.24935212 </v>
   <v>       0.32084894       0.05732387      -0.35464075 </v>
   <v>       0.04281616      -0.03775382       0.34829606 </v>
   <v>       0.10346024       0.59006631       0.16655676 </v>
   <v>       0.08733474      -0.02988130      -0.15481150 </v>
   <v>       0.04499895      -0.01507669       0.06593251 </v>
   <v>       0.25822166       0.13923419       0.26413252 </v>
   <v>      -0.12763163       0.21882264      -0.26271824 </v>
   <v>      -0.00820142       0.06704731       0.12980429 </v>
   <v>       2.29249950      20.42804346       3.66033563 </v>
   <v>       0.21710377       0.09105421      -0.52081887 </v>
   <v>      -0.01463689       0.02135256       0.39698258 </v>
   <v>      -0.42816828       0.22991890      -0.25919041 </v>
   <v>      -0.31766661      -0.18770900       3.27409103 </v>
   <v>       0.01372671       0.05523364      -0.02429209 </v>
   <v>      -0.62753957       0.33285603      -0.26951892 </v>
   <v>      -0.12796327       0.08442530       0.24873888 </v>
   <v>      -0.05028362       0.03009869      -0.01874222 </v>
   <v>       0.21237538      -0.69478424      -0.32494574 </v>
   <v>       0.10569217      -0.14987358       0.33323273 </v>
   <v>       0.02614065      -0.05529611      -0.02810567 </v>
   <v>       0.12083995      -0.42967999      -0.22901618 </v>
   <v>      -0.34255022      -0.02992089       3.99799347 </v>
   <v>       0.07033712       0.00485010      -0.01914064 </v>
   <v>     112.88414082      63.50264587     -25.08237490 </v>
   <v>       0.48048569       0.25765802       0.90212212 </v>
   <v>       0.11752066       0.05899254       0.04182200 </v>
   <v>       0.68534051       0.25021144      -0.31899028 </v>
   <v>       0.05857144       0.18108763       0.28393980 </v>
   <v>       0.06739295       0.02646064       0.00618987 </v>
   <v>       0.02787601       0.03784835      -0.15736451 </v>
   <v>       0.02519171       0.02527893       0.17176685 </v>
   <v>       0.00613103       0.01147735      -0.01822415 </v>
   <v>       0.74867839       0.57412816      -0.36137582 </v>
   <v>       0.22263784      -0.01209358       0.28153278 </v>
   <v>       0.07362538       0.05558467       0.00657991 </v>
   <v>      -0.11495580       0.11895860      -0.19863700 </v>
   <v>       0.10735104       0.04551810       0.09916712 </v>
   <v>      -0.01164732       0.01436434       0.04161765 </v>
   <v>       0.02246321      -0.41331430      -0.24418826 </v>
   <v>       0.08641273      -0.03157287       0.16211530 </v>
   <v>       0.01274619      -0.04981638       0.03243509 </v>
   <v>      -0.19429175      -0.59291434      -0.23645667 </v>
   <v>      -0.08573162      -0.01374312       0.23381851 </v>
   <v>      -0.02641294      -0.05674847      -0.02913081 </v>
   <v>      -0.48978877       0.37682548      -0.18799017 </v>
   <v>      -0.05088159       0.04331001       0.16831047 </v>
   <v>      -0.07019886       0.03890199      -0.02016540 </v>
   <v>     -28.35704448      15.39995396      -6.12427091 </v>
   <v>      -0.27259647       0.09501340       0.41044861 </v>
   <v>      -0.12329525       0.05764683      -0.01943465 </v>
   <v>      -0.09532040      -0.40724978      -0.22375625 </v>
   <v>      -0.02074193      -0.12050819       0.14269162 </v>
   <v>      -0.03030248      -0.04718668       0.00682441 </v>
   <v>      -1.68979597     -20.10787600      -4.75150485 </v>
   <v>      -0.04075322      -0.34296573       0.78846163 </v>
   <v>      -0.00478591      -0.12830829      -0.03901636 </v>
   <v>      -0.69276756       0.27896418       0.10039646 </v>
   <v>       0.10791799       0.17941054       2.48026018 </v>
   <v>      -0.07121456      -0.01153543      -0.06037870 </v>
   <v>      -0.66326122      -0.19212093       0.30378305 </v>
   <v>       0.02775229       0.02070718       0.55788146 </v>
   <v>       0.70247559       0.46807850      -0.57149049 </v>
   <v>      -0.19980339       2.40522372      -0.47146423 </v>
   <v>      -0.01424345       0.08627059       0.30600194 </v>
   <v>       0.04622031       0.63034966      -0.45683290 </v>
   <v>       0.17048596       0.01161612      -0.03015036 </v>
   <v>       0.02802709       0.00205959       0.15286209 </v>
   <v>       0.09495307       0.01027983      -0.20312334 </v>
   <v>       2.23091615      -1.36355729      -0.50124114 </v>
   <v>       0.08407578      -0.04013256       0.30474464 </v>
   <v>       0.62584344      -0.24101056      -0.48538063 </v>
   <v>       0.81398740       0.03593513      -0.44260825 </v>
   <v>       0.09178603       0.00278240       0.23667594 </v>
   <v>      -0.02972180       0.19450524       0.11083811 </v>
   <v>       0.38556371       0.60721445      -0.43322534 </v>
   <v>       0.03790938       0.06121664       0.24806659 </v>
   <v>       0.12944687      -0.16229299       0.09506521 </v>
   <v>      -0.09093312       0.14528660      -0.04532697 </v>
   <v>      -0.01408068       0.02595854       0.15017132 </v>
   <v>      -0.06608602      -0.01331708      -0.18252143 </v>
   <v>       0.12156985      -0.07576676      -0.05372834 </v>
   <v>       0.02726347      -0.00896947       0.14012398 </v>
   <v>      -0.01203110      -0.00977725      -0.16251772 </v>
   <v>      -0.33239725      -0.02489956      -0.23592205 </v>
   <v>      -0.03721525       0.00452881       0.15550650 </v>
   <v>      -0.16432274       0.10895408      -0.01778032 </v>
   <v>       0.05622416      -0.10702794      -0.09089841 </v>
   <v>       0.01423892      -0.01672978       0.14701384 </v>
   <v>      -0.03386889      -0.08121041      -0.07482061 </v>
   <v>      -0.43975951      -0.49599788      -0.12240582 </v>
   <v>      -0.03661634      -0.04572544       0.21312640 </v>
   <v>      -0.11473542      -0.27133495      -0.15393052 </v>
   <v>      -1.46241548      -0.66293807      -0.43520369 </v>
   <v>      -0.06466091      -0.01312078       0.22529846 </v>
   <v>      -0.58875470      -0.26209334      -0.39608309 </v>
   <v>     -11.68684681       9.08162151       6.23596145 </v>
   <v>      -0.08587909       0.00742369       0.45714307 </v>
   <v>      -0.57520981       0.27523812      -0.44294629 </v>
   <v>      -0.23489109       0.22076391      -0.20587253 </v>
   <v>      -0.03778139       0.01383781       0.16651557 </v>
   <v>      -0.14450121       0.02292089      -0.04804337 </v>
   <v>       0.35179461      -0.62527882      -0.10052782 </v>
   <v>       0.02463054      -0.06922937       0.21864951 </v>
   <v>       0.08225936      -0.24622919      -0.16700791 </v>
   <v>       1.06626470      -9.53621950       4.35367515 </v>
   <v>      -0.04510641      -0.02973214       0.50232851 </v>
   <v>       0.00633447      -0.51872648      -0.62518705 </v>
   <v>      15.02911311       2.92040976     -15.20410845 </v>
  </varray>
  <varray name="stress" >
   <v>      62.33650784      19.99715759     -16.74685997 </v>
   <v>      19.99713197      24.08670339      -8.31293885 </v>
   <v>     -16.74688874      -8.31298867     -18.50647422 </v>
  </varray>
  <energy>
   <i name="e_fr_energy">  -1177.30885551 </i>
   <i name="e_wo_entrp">  -1177.30885551 </i>
   <i name="e_0_energy">  -1177.30885551 </i>
  </energy>
  <time name="totalsc">51388.9151853.42</time>
 </calculation>
 <calculation>
  <scstep>
   <time name="total"> 1782.75 1793.20</time>
   <energy>
    <i name="alphaZ">  11503.89908733 </i>
    <i name="ewald">-143195.00489827 </i>
    <i name="hartreedc"> -62694.52693779 </i>
    <i name="XCdc">   5407.31828625 </i>
    <i name="pawpsdc"> 211257.26881512 </i>
    <i name="pawaedc">-226365.62900116 </i>
    <i name="eentropy">     -0.11594818 </i>
    <i name="bandstr"> -11050.96922169 </i>
    <i name="atom"> 209667.84454329 </i>
    <i name="e_fr_energy">   1815.31462769 </i>
    <i name="e_wo_entrp">   1815.43057587 </i>
    <i name="e_0_energy">   1815.37260178 </i>
   </energy>
  </scstep>
  <scstep>
   <time name="total"> 1794.89 1805.73</time>
   <energy>
    <i name="e_fr_energy">   1292.95253763 </i>
    <i name="e_wo_entrp">   1293.26334478 </i>
    <i name="e_0_energy">   1293.10794121 </i>
   </energy>
  </scstep>
  <scstep>
   <time name="total"> 1786.70 1797.25</time>
   <energy>
    <i name="e_fr_energy">   1085.66241408 </i>
    <i name="e_wo_entrp">   1085.73363782 </i>
    <i name="e_0_energy">   1085.69802595 </i>
   </energy>
  </scstep>
  <scstep>
   <time name="total"> 1784.84 1795.80</time>
   <energy>
    <i name="e_fr_energy">   -595.29459392 </i>
    <i name="e_wo_entrp">   -595.19385801 </i>
    <i name="e_0_energy">   -595.24422597 </i>
   </energy>
  </scstep>
  <scstep>
   <time name="total"> 1786.28 1797.39</time>
   <energy>
    <i name="e_fr_energy">   -686.80575990 </i>
    <i name="e_wo_entrp">   -686.70920537 </i>
    <i name="e_0_energy">   -686.75748264 </i>
   </energy>
  </scstep>
  <scstep>
   <time name="total"> 1759.13 1769.51</time>
   <energy>
    <i name="e_fr_energy">  -1033.74148317 </i>
    <i name="e_wo_entrp">  -1033.74148306 </i>
    <i name="e_0_energy">  -1033.74148311 </i>
   </energy>
  </scstep>
  <scstep>
   <time name="total"> 1756.69 1767.26</time>
   <energy>
    <i name="e_fr_energy">  -1147.17093962 </i>
    <i name="e_wo_entrp">  -1147.17093962 </i>
    <i name="e_0_energy">  -1147.17093962 </i>
   </energy>
  </scstep>
  <scstep>
   <time name="total"> 1757.10 1766.73</time>
   <energy>
    <i name="e_fr_energy">  -1184.20466506 </i>
    <i name="e_wo_entrp">  -1184.20466506 </i>
    <i name="e_0_energy">  -1184.20466506 </i>
   </energy>
  </scstep>
  <scstep>
   <time name="total"> 1755.53 1765.63</time>
   <energy>
    <i name="e_fr_energy">  -1201.46566244 </i>
    <i name="e_wo_entrp">  -1201.46566244 </i>
    <i name="e_0_energy">  -1201.46566244 </i>
   </energy>
  </scstep>
  <scstep>
   <time name="total"> 1756.85 1767.55</time>
   <energy>
    <i name="e_fr_energy">  -1207.58000196 </i>
    <i name="e_wo_entrp">  -1207.58000196 </i>
    <i name="e_0_energy">  -1207.58000196 </i>
   </energy>
  </scstep>
  <scstep>
   <time name="total"> 1757.57 1766.73</time>
   <energy>
    <i name="e_fr_energy">  -1209.01336653 </i>
    <i name="e_wo_entrp">  -1209.01336653 </i>
    <i name="e_0_energy">  -1209.01336653 </i>
   </energy>
  </scstep>
  <scstep>
   <time name="total"> 1755.65 1764.68</time>
   <energy>
    <i name="e_fr_energy">  -1209.93696939 </i>
    <i name="e_wo_entrp">  -1209.93696939 </i>
    <i name="e_0_energy">  -1209.93696939 </i>
   </energy>
  </scstep>
  <scstep>
   <time name="total"> 1756.61 1765.81</time>
   <energy>
    <i name="e_fr_energy">  -1210.25011151 </i>
    <i name="e_wo_entrp">  -1210.25011151 </i>
    <i name="e_0_energy">  -1210.25011151 </i>
   </energy>
  </scstep>
  <scstep>
   <time name="total"> 1756.37 1766.20</time>
   <energy>
    <i name="e_fr_energy">  -1210.36562557 </i>
    <i name="e_wo_entrp">  -1210.36562557 </i>
    <i name="e_0_energy">  -1210.36562557 </i>
   </energy>
  </scstep>
  <scstep>
   <time name="total"> 1756.69 1767.26</time>
   <energy>
    <i name="e_fr_energy">  -1210.41942470 </i>
    <i name="e_wo_entrp">  -1210.41942470 </i>
    <i name="e_0_energy">  -1210.41942470 </i>
   </energy>
  </scstep>
  <scstep>
   <time name="total"> 1755.54 1768.16</time>
   <energy>
    <i name="e_fr_energy">  -1210.44407799 </i>
    <i name="e_wo_entrp">  -1210.44407799 </i>
    <i name="e_0_energy">  -1210.44407799 </i>
   </energy>
  </scstep>
  <scstep>
   <time name="total"> 1758.93 1770.13</time>
   <energy>
    <i name="e_fr_energy">  -1210.45471961 </i>
    <i name="e_wo_entrp">  -1210.45471961 </i>
    <i name="e_0_energy">  -1210.45471961 </i>
   </energy>
  </scstep>
  <scstep>
   <time name="total"> 1757.52 1768.98</time>
   <energy>
    <i name="e_fr_energy">  -1210.45971174 </i>
    <i name="e_wo_entrp">  -1210.45971174 </i>
    <i name="e_0_energy">  -1210.45971174 </i>
   </energy>
  </scstep>
  <scstep>
   <time name="total"> 1754.71 1764.43</time>
   <energy>
    <i name="e_fr_energy">  -1210.46270379 </i>
    <i name="e_wo_entrp">  -1210.46270379 </i>
    <i name="e_0_energy">  -1210.46270379 </i>
   </energy>
  </scstep>
  <scstep>
   <time name="total"> 1756.49 1766.16</time>
   <energy>
    <i name="e_fr_energy">  -1210.46435176 </i>
    <i name="e_wo_entrp">  -1210.46435176 </i>
    <i name="e_0_energy">  -1210.46435176 </i>
   </energy>
  </scstep>
  <scstep>
   <time name="total"> 1757.68 1768.37</time>
   <energy>
    <i name="e_fr_energy">  -1210.46535039 </i>
    <i name="e_wo_entrp">  -1210.46535039 </i>
    <i name="e_0_energy">  -1210.46535039 </i>
   </energy>
  </scstep>
  <scstep>
   <time name="total"> 1757.45 1768.91</time>
   <energy>
    <i name="e_fr_energy">  -1210.46599386 </i>
    <i name="e_wo_entrp">  -1210.46599386 </i>
    <i name="e_0_energy">  -1210.46599386 </i>
   </energy>
  </scstep>
  <scstep>
   <time name="total"> 1757.89 1766.92</time>
   <energy>
    <i name="e_fr_energy">  -1210.46641411 </i>
    <i name="e_wo_entrp">  -1210.46641411 </i>
    <i name="e_0_energy">  -1210.46641411 </i>
   </energy>
  </scstep>
  <scstep>
   <time name="total"> 1757.35 1764.80</time>
   <energy>
    <i name="e_fr_energy">  -1210.46670495 </i>
    <i name="e_wo_entrp">  -1210.46670495 </i>
    <i name="e_0_energy">  -1210.46670495 </i>
   </energy>
  </scstep>
  <scstep>
   <time name="total"> 1757.03 1764.92</time>
   <energy>
    <i name="e_fr_energy">  -1210.46691322 </i>
    <i name="e_wo_entrp">  -1210.46691322 </i>
    <i name="e_0_energy">  -1210.46691322 </i>
   </energy>
  </scstep>
  <scstep>
   <time name="total"> 1755.54 1763.75</time>
   <energy>
    <i name="e_fr_energy">  -1210.46706790 </i>
    <i name="e_wo_entrp">  -1210.46706790 </i>
    <i name="e_0_energy">  -1210.46706790 </i>
   </energy>
  </scstep>
  <scstep>
   <time name="total"> 1756.91 1764.72</time>
   <energy>
    <i name="e_fr_energy">  -1210.46718721 </i>
    <i name="e_wo_entrp">  -1210.46718721 </i>
    <i name="e_0_energy">  -1210.46718721 </i>
   </energy>
  </scstep>
  <scstep>
   <time name="total"> 1756.00 1763.62</time>
   <energy>
    <i name="e_fr_energy">  -1210.46728241 </i>
    <i name="e_wo_entrp">  -1210.46728241 </i>
    <i name="e_0_energy">  -1210.46728241 </i>
   </energy>
  </scstep>
  <scstep>
   <time name="total"> 1755.79 1764.76</time>
   <energy>
    <i name="e_fr_energy">  -1210.46736056 </i>
    <i name="e_wo_entrp">  -1210.46736056 </i>
    <i name="e_0_energy">  -1210.46736056 </i>
   </energy>
  </scstep>
  <scstep>
   <time name="total"> 1756.16 1764.86</time>
   <energy>
    <i name="e_fr_energy">  -1210.46742605 </i>
    <i name="e_wo_entrp">  -1210.46742605 </i>
    <i name="e_0_energy">  -1210.46742605 </i>
   </energy>
  </scstep>
  <scstep>
   <time name="total"> 1756.45 1764.83</time>
   <energy>
    <i name="e_fr_energy">  -1210.46748163 </i>
    <i name="e_wo_entrp">  -1210.46748163 </i>
    <i name="e_0_energy">  -1210.46748163 </i>
   </energy>
  </scstep>
  <scstep>
   <time name="total"> 1754.75 1763.34</time>
   <energy>
    <i name="e_fr_energy">  -1210.46752942 </i>
    <i name="e_wo_entrp">  -1210.46752942 </i>
    <i name="e_0_energy">  -1210.46752942 </i>
   </energy>
  </scstep>
  <scstep>
   <time name="total"> 1755.85 1764.82</time>
   <energy>
    <i name="e_fr_energy">  -1210.46757128 </i>
    <i name="e_wo_entrp">  -1210.46757128 </i>
    <i name="e_0_energy">  -1210.46757128 </i>
   </energy>
  </scstep>
  <scstep>
   <time name="total"> 1758.42 1766.39</time>
   <energy>
    <i name="e_fr_energy">  -1210.46760876 </i>
    <i name="e_wo_entrp">  -1210.46760876 </i>
    <i name="e_0_energy">  -1210.46760876 </i>
   </energy>
  </scstep>
  <scstep>
   <time name="total"> 1756.04 1763.69</time>
   <energy>
    <i name="e_fr_energy">  -1210.46764290 </i>
    <i name="e_wo_entrp">  -1210.46764290 </i>
    <i name="e_0_energy">  -1210.46764290 </i>
   </energy>
  </scstep>
  <scstep>
   <time name="total"> 1757.24 1764.76</time>
   <energy>
    <i name="e_fr_energy">  -1210.46767430 </i>
    <i name="e_wo_entrp">  -1210.46767430 </i>
    <i name="e_0_energy">  -1210.46767430 </i>
   </energy>
  </scstep>
  <scstep>
   <time name="total"> 1759.44 1767.84</time>
   <energy>
    <i name="e_fr_energy">  -1210.46770335 </i>
    <i name="e_wo_entrp">  -1210.46770335 </i>
    <i name="e_0_energy">  -1210.46770335 </i>
   </energy>
  </scstep>
  <scstep>
   <time name="total"> 1756.20 1763.86</time>
   <energy>
    <i name="e_fr_energy">  -1210.46773018 </i>
    <i name="e_wo_entrp">  -1210.46773018 </i>
    <i name="e_0_energy">  -1210.46773018 </i>
   </energy>
  </scstep>
  <scstep>
   <time name="total"> 1756.44 1764.63</time>
   <energy>
    <i name="e_fr_energy">  -1210.46775349 </i>
    <i name="e_wo_entrp">  -1210.46775349 </i>
    <i name="e_0_energy">  -1210.46775349 </i>
   </energy>
  </scstep>
  <scstep>
   <time name="total"> 1755.53 1763.52</time>
   <energy>
    <i name="e_fr_energy">  -1210.46776708 </i>
    <i name="e_wo_entrp">  -1210.46776708 </i>
    <i name="e_0_energy">  -1210.46776708 </i>
   </energy>
  </scstep>
  <scstep>
