       N       E                     dE             d eps       ncg     rms           ort
DAV:   1    -0.122804414136E+05   -0.12280E+05   -0.92346E+04  2660   0.237E+03  
DAV:   2    -0.140081623957E+05   -0.17277E+04   -0.16816E+04  2660   0.582E+02  
DAV:   3    -0.144808705976E+05   -0.47271E+03   -0.45869E+03  2660   0.236E+02  
DAV:   4    -0.145869319149E+05   -0.10606E+03   -0.10440E+03  2660   0.105E+02  
DAV:   5    -0.328525765441E+02    0.14554E+05   -0.25878E+02  2660   0.817E+01  
SDA:   6    -0.282606809077E+02    0.45919E+01   -0.19646E+02  2660   0.491E+02   0.000E+00
DMP:   7    -0.366255967101E+02   -0.83649E+01   -0.29374E+01  2660   0.102E+02  -0.747E+01
DMP:   8    -0.382181810337E+02   -0.15926E+01   -0.18786E+01  2660   0.445E+01   0.656E+00
DMP:   9    -0.389384047846E+02   -0.72022E+00   -0.40405E+00  2660   0.144E+01  -0.113E+01
DMP:  10    -0.391312322127E+02   -0.19283E+00   -0.29500E+00  2660   0.765E+00  -0.708E-01
DMP:  11    -0.392660406926E+02   -0.13481E+00   -0.11005E+00  2660   0.302E+00  -0.695E-01
DMP:  12    -0.393270836382E+02   -0.61043E-01   -0.41279E-01  2660   0.927E-01   0.275E-01
DMP:  13    -0.393514967356E+02   -0.24413E-01   -0.24397E-01  2660   0.543E-01   0.175E-01
DMP:  14    -0.393665920971E+02   -0.15095E-01   -0.92220E-02  2660   0.177E-01   0.140E-01
DMP:  15    -0.393730040134E+02   -0.64119E-02   -0.56010E-02  2660   0.106E-01   0.894E-02
DMP:  16    -0.393771349151E+02   -0.41309E-02   -0.26600E-02  2660   0.414E-02   0.657E-02
DMP:  17    -0.393793097201E+02   -0.21748E-02   -0.16943E-02  2660   0.265E-02   0.415E-02
DMP:  18    -0.393806801125E+02   -0.13704E-02   -0.91913E-03  2660   0.131E-02   0.259E-02
DMP:  19    -0.393814860436E+02   -0.80593E-03   -0.59451E-03  2660   0.826E-03   0.173E-02
DMP:  20    -0.393820066999E+02   -0.52066E-03   -0.38668E-03  2660   0.540E-03   0.112E-02
DMP:  21    -0.393823584516E+02   -0.35175E-03   -0.27008E-03  2660   0.374E-03   0.787E-03
DMP:  22    -0.393826040028E+02   -0.24555E-03   -0.18922E-03  2660   0.264E-03   0.547E-03
DMP:  23    -0.393827785547E+02   -0.17455E-03   -0.13554E-03  2660   0.188E-03   0.395E-03
DMP:  24    -0.393829036710E+02   -0.12512E-03   -0.96845E-04  2660   0.134E-03   0.284E-03
DMP:  25    -0.393829935706E+02   -0.89900E-04   -0.69839E-04  2660   0.961E-04   0.206E-03
DMP:  26    -0.393830587364E+02   -0.65166E-04   -0.50914E-04  2660   0.703E-04   0.149E-03
DMP:  27    -0.393831065139E+02   -0.47777E-04   -0.37597E-04  2660   0.521E-04   0.110E-03
DMP:  28    -0.393831419052E+02   -0.35391E-04   -0.28156E-04  2660   0.392E-04   0.816E-04
DMP:  29    -0.393831685320E+02   -0.26627E-04   -0.21608E-04  2660   0.304E-04   0.617E-04
DMP:  30    -0.393831890951E+02   -0.20563E-04   -0.17105E-04  2660   0.245E-04   0.479E-04
DMP:  31    -0.393832054446E+02   -0.16350E-04   -0.13836E-04  2660   0.199E-04   0.383E-04
DMP:  32    -0.393832187137E+02   -0.13269E-04   -0.11574E-04  2660   0.170E-04   0.314E-04
DMP:  33    -0.393832298493E+02   -0.11136E-04   -0.10092E-04  2660   0.151E-04   0.265E-04
DMP:  34    -0.393832395881E+02   -0.97388E-05   -0.88787E-05  2660   0.133E-04   0.234E-04
DMP:  35    -0.393832481707E+02   -0.85825E-05   -0.79033E-05  2660   0.118E-04   0.207E-04
DMP:  36    -0.393832558246E+02   -0.76540E-05   -0.72609E-05  2660   0.111E-04   0.186E-04
DMP:  37    -0.393832628629E+02   -0.70383E-05   -0.67680E-05  2660   0.104E-04   0.171E-04
DMP:  38    -0.393832694206E+02   -0.65577E-05   -0.62873E-05  2660   0.960E-05   0.160E-04
DMP:  39    -0.393832755185E+02   -0.60980E-05   -0.59615E-05  2660   0.922E-05   0.149E-04
DMP:  40    -0.393832812649E+02   -0.57464E-05   -0.57192E-05  2660   0.894E-05   0.140E-04
DMP:  41    -0.393832867218E+02   -0.54569E-05   -0.57576E-05  2660   0.944E-05   0.130E-04
DMP:  42    -0.393832916729E+02   -0.49511E-05   -0.67403E-05  2660   0.127E-04   0.108E-04
DMP:  43    -0.393832959970E+02   -0.43242E-05   -0.10595E-04  2660   0.249E-04   0.422E-05
DMP:  44    -0.393832986904E+02   -0.26933E-05   -0.18734E-04  2660   0.513E-04  -0.117E-04
DMP:  45    -0.393833005866E+02   -0.18962E-05   -0.28521E-04  2660   0.861E-04  -0.388E-04
DMP:  46    -0.393833035173E+02   -0.29307E-05   -0.28664E-04  2660   0.926E-04  -0.549E-04
DMP:  47    -0.393833092255E+02   -0.57082E-05   -0.20030E-04  2660   0.666E-04  -0.433E-04
DMP:  48    -0.393833140951E+02   -0.48696E-05   -0.31761E-04  2660   0.905E-04  -0.289E-04
DMP:  49    -0.393832891173E+02    0.24978E-04   -0.21642E-03  2660   0.614E-03  -0.191E-03
DMP:  50    -0.393831281960E+02    0.16092E-03   -0.15761E-02  2660   0.447E-02  -0.138E-02
DMP:  51    -0.393815929980E+02    0.15352E-02   -0.12070E-01  2660   0.346E-01  -0.115E-01
DMP:  52    -0.393725068022E+02    0.90862E-02   -0.73213E-01  2660   0.212E+00  -0.758E-01
DMP:  53    -0.393213793738E+02    0.51127E-01   -0.37142E+00  2660   0.110E+01  -0.439E+00
DMP:  54    -0.391382292213E+02    0.18315E+00   -0.13469E+01  2660   0.407E+01  -0.183E+01
DMP:  55    -0.386156982720E+02    0.52253E+00   -0.37169E+01  2660   0.116E+02  -0.604E+01
DMP:  56    -0.379313411121E+02    0.68436E+00   -0.62281E+01  2660   0.203E+02  -0.123E+02
DMP:  57    -0.374135914270E+02    0.51775E+00   -0.73019E+01  2660   0.253E+02  -0.185E+02
DMP:  58    -0.381042958169E+02   -0.69070E+00   -0.39525E+01  2660   0.152E+02  -0.139E+02
DMP:  59    -0.389826419418E+02   -0.87835E+00   -0.89203E+00  2660   0.436E+01  -0.558E+01
DMP:  60    -0.393721161763E+02   -0.38947E+00   -0.58342E-02  2660   0.113E+00  -0.258E+00
DMP:  61    -0.393475298826E+02    0.24586E-01   -0.13771E+00  2660   0.397E+00  -0.137E+00
DMP:  62    -0.393496482541E+02   -0.21184E-02   -0.85778E-01  2660   0.342E+00  -0.334E+00
