 vasp.6.5.1 10Mar25 (build May 05 2025 13:45:00) complex                        
  
 executed on             LinuxIFC date 2026.04.28  07:01:30
 running  112 mpi-ranks, on    1 nodes
 distrk:  each k-point on   28 cores,    4 groups
 distr:  one band on NCORE=   1 cores,   28 groups


--------------------------------------------------------------------------------------------------------


 INCAR:
   ALGO = Damped
   PREC = Normal
   LREAL = False
   EDIFF = 1e-07
   ENCUT = 400.0
   LASPH = True
   NELM = 100
   ISIF = 3
   IBRION = 2
   EDIFFG = -0.005
   NSW = 300
   ISMEAR = 0
   SIGMA = 0.1
   LWAVE = True
   LCHARG = False
   LORBIT = 10
   LHFCALC = True
   PRECFOCK = Fast
   AEXX = 0.36
   HFSCREEN = 0.2
   TIME = 0.4
   KPAR = 4

 POTCAR:    PAW_PBE Nd_3 06Sep2000                
 POTCAR:    PAW_PBE Zn 06Sep2000                  
 -----------------------------------------------------------------------------
|                                                                             |
|           W    W    AA    RRRRR   N    N  II  N    N   GGGG   !!!           |
|           W    W   A  A   R    R  NN   N  II  NN   N  G    G  !!!           |
|           W    W  A    A  R    R  N N  N  II  N N  N  G       !!!           |
|           W WW W  AAAAAA  RRRRR   N  N N  II  N  N N  G  GGG   !            |
|           WW  WW  A    A  R   R   N   NN  II  N   NN  G    G                |
|           W    W  A    A  R    R  N    N  II  N    N   GGGG   !!!           |
|                                                                             |
|     For optimal performance we recommend to set                             |
|       NCORE = 2 up to number-of-cores-per-socket                            |
|     NCORE specifies how many cores store one orbital (NPAR=cpu/NCORE).      |
|     This setting can greatly improve the performance of VASP for DFT.       |
|     The default, NCORE=1 might be grossly inefficient on modern             |
|     multi-core architectures or massively parallel machines. Do your        |
|     own testing! More info at https://www.vasp.at/wiki/index.php/NCORE      |
|     Unfortunately you need to use the default for GW and RPA                |
|     calculations (for HF NCORE is supported but not extensively tested      |
|     yet).                                                                   |
|                                                                             |
 -----------------------------------------------------------------------------

 POTCAR:    PAW_PBE Nd_3 06Sep2000                
   SHA256 =  90782177844a5d17e05a83442c3981b109958f4399d5595472847236a982ac31 Nd_3/POTCAR           
   COPYR  = (c) Copyright 06Sep2000 Georg Kresse                                                    
   COPYR  = This file is part of the software VASP. Any use, copying, and all other rights are regul
   COPYR  = If you do not have a valid VASP license, you may not use, copy or distribute this file. 
   VRHFIN =Nd : [core=Xe4]                                                                          
   LEXCH  = PE                                                                                      
   EATOM  =   934.1494 eV,   68.6580 Ry                                                             
                                                                                                    
   TITEL  = PAW_PBE Nd_3 06Sep2000                                                                  
   LULTRA =        F    use ultrasoft PP ?                                                          
   IUNSCR =        1    unscreen: 0-lin 1-nonlin 2-no                                               
   RPACOR =    2.400    partial core radius                                                         
   POMASS =  144.240; ZVAL   =   11.000    mass and valenz                                          
   RCORE  =    2.800    outmost cutoff radius                                                       
   RWIGS  =    3.000; RWIGS  =    1.588    wigner-seitz radius (au A)                               
   ENMAX  =  182.619; ENMIN  =  136.964 eV                                                          
   RCLOC  =    2.418    cutoff for local pot                                                        
   LCOR   =        T    correct aug charges                                                         
   LPAW   =        T    paw PP                                                                      
   EAUG   =  299.021                                                                                
   DEXC   =    0.000                                                                                
   RMAX   =    2.866    core radius for proj-oper                                                   
   RAUG   =    1.300    factor for augmentation sphere                                              
   RDEP   =    2.838    radius for radial grids                                                     
   RDEPT  =    2.433    core radius for aug-charge                                                  
                                                                                                    
   Atomic configuration                                                                             
   14 entries                                                                                       
     n  l   j            E        occ.                                                              
     1  0  0.50    -43395.8286   2.0000                                                             
     2  0  0.50     -7023.8781   2.0000                                                             
     2  1  1.50     -6278.5294   6.0000                                                             
     3  0  0.50     -1529.8925   2.0000                                                             
     3  1  1.50     -1294.9660   6.0000                                                             
     3  2  2.50      -969.3626  10.0000                                                             
     4  0  0.50      -309.7145   2.0000                                                             
     4  1  1.50      -232.6371   6.0000                                                             
     4  2  2.50      -123.0912  10.0000                                                             
     4  3  2.50        -6.9199   3.0000                                                             
     5  0  0.50       -43.6910   2.0000                                                             
     6  0  0.50        -3.8688   2.0000                                                             
     5  1  1.50       -24.6661   6.0000                                                             
     5  2  2.50        -2.9249   1.0000                                                             
   Description                                                                                      
     l       E           TYP  RCUT    TYP  RCUT                                                     
     0    -43.6910211     23  2.800                                                                 
     0     -3.8687565     23  2.800                                                                 
     1    -24.6660554     23  2.800                                                                 
     1     13.6058260     23  2.800                                                                 
     2     -2.9249058     23  2.800                                                                 
     2      0.2001824     23  2.800                                                                 
  local pseudopotential read in
  partial core-charges read in
  partial kinetic energy density read in
  atomic valenz-charges read in
  non local Contribution for L=           0  read in
    real space projection operators read in
  non local Contribution for L=           0  read in
    real space projection operators read in
  non local Contribution for L=           1  read in
    real space projection operators read in
  non local Contribution for L=           1  read in
    real space projection operators read in
  non local Contribution for L=           2  read in
    real space projection operators read in
  non local Contribution for L=           2  read in
    real space projection operators read in
    PAW grid and wavefunctions read in
 
   number of l-projection  operators is LMAX  =           6
   number of lm-projection operators is LMMAX =          18
 
 POTCAR:    PAW_PBE Zn 06Sep2000                  
   SHA256 =  501fddbd8274dd8e9725d4f3de27861d7f1e553a7e18441bc79fed8f346e7f23 Zn/POTCAR             
   COPYR  = (c) Copyright 06Sep2000 Georg Kresse                                                    
   COPYR  = This file is part of the software VASP. Any use, copying, and all other rights are regul
   COPYR  = If you do not have a valid VASP license, you may not use, copy or distribute this file. 
   VRHFIN =Zn: d10 p2                                                                               
   LEXCH  = PE                                                                                      
   EATOM  =  1748.8345 eV,  128.5357 Ry                                                             
                                                                                                    
   TITEL  = PAW_PBE Zn 06Sep2000                                                                    
   LULTRA =        F    use ultrasoft PP ?                                                          
   IUNSCR =        1    unscreen: 0-lin 1-nonlin 2-no                                               
   RPACOR =    2.000    partial core radius                                                         
   POMASS =   65.390; ZVAL   =   12.000    mass and valenz                                          
   RCORE  =    2.300    outmost cutoff radius                                                       
   RWIGS  =    2.400; RWIGS  =    1.270    wigner-seitz radius (au A)                               
   ENMAX  =  276.723; ENMIN  =  207.542 eV                                                          
   RCLOC  =    1.828    cutoff for local pot                                                        
   LCOR   =        T    correct aug charges                                                         
   LPAW   =        T    paw PP                                                                      
   EAUG   =  575.892                                                                                
   DEXC   =    0.000                                                                                
   RMAX   =    2.347    core radius for proj-oper                                                   
   RAUG   =    1.300    factor for augmentation sphere                                              
   RDEP   =    2.324    radius for radial grids                                                     
   RDEPT  =    1.788    core radius for aug-charge                                                  
                                                                                                    
   Atomic configuration                                                                             
    9 entries                                                                                       
     n  l   j            E        occ.                                                              
     1  0  0.50     -9524.6913   2.0000                                                             
     2  0  0.50     -1158.1882   2.0000                                                             
     2  1  1.50     -1003.8506   6.0000                                                             
     3  0  0.50      -129.2194   2.0000                                                             
     3  1  1.50       -83.3890   6.0000                                                             
     3  2  2.50       -10.1410  10.0000                                                             
     4  0  0.50        -5.9785   2.0000                                                             
     4  1  0.50        -4.0817   0.0000                                                             
     4  3  2.50        -1.3606   0.0000                                                             
   Description                                                                                      
     l       E           TYP  RCUT    TYP  RCUT                                                     
     2    -10.1410010     23  2.300                                                                 
     2    -11.5015836     23  2.300                                                                 
     0     -5.9785163     23  2.300                                                                 
     0      1.1858015     23  2.300                                                                 
     1     -2.7211652     23  2.300                                                                 
     1     13.2444212     23  2.300                                                                 
  local pseudopotential read in
  partial core-charges read in
  partial kinetic energy density read in
  atomic valenz-charges read in
  non local Contribution for L=           2  read in
    real space projection operators read in
  non local Contribution for L=           2  read in
    real space projection operators read in
  non local Contribution for L=           0  read in
    real space projection operators read in
  non local Contribution for L=           0  read in
    real space projection operators read in
  non local Contribution for L=           1  read in
    real space projection operators read in
  non local Contribution for L=           1  read in
    real space projection operators read in
    PAW grid and wavefunctions read in
 
   number of l-projection  operators is LMAX  =           6
   number of lm-projection operators is LMMAX =          18
 
 -----------------------------------------------------------------------------
|                                                                             |
|               ----> ADVICE to this user running VASP <----                  |
|                                                                             |
|     You have a (more or less) 'large supercell' and for larger cells it     |
|     might be more efficient to use real-space projection operators.         |
|     Therefore, try LREAL= Auto in the INCAR file.                           |
|     Mind: For very accurate calculation, you might also keep the            |
|     reciprocal projection scheme (i.e. LREAL=.FALSE.).                      |
|                                                                             |
 -----------------------------------------------------------------------------

  PAW_PBE Nd_3 06Sep2000                :
 energy of atom  1       EATOM= -934.1494
 kinetic energy error for atom=    0.0015 (will be added to EATOM!!)
  PAW_PBE Zn 06Sep2000                  :
 energy of atom  2       EATOM=-1748.8345
 kinetic energy error for atom=    0.0107 (will be added to EATOM!!)
 
 
 POSCAR: Nd2 Zn17
  positions in direct lattice
  No initial velocities read in


 exchange-correlation table for PE
   RHO(1)=    0.500       N(1)  =     2000
   RHO(2)=  100.500       N(2)  =     4000
 


--------------------------------------------------------------------------------------------------------


 ion  position               nearest neighbor table
   1  0.664  0.664  0.664-   6 3.10  12 3.19  14 3.19  13 3.19  10 3.19  11 3.19  15 3.19  19 3.21
                             4 3.21   3 3.21  18 3.34  16 3.34  17 3.34   8 3.41   9 3.41   7 3.41
   2  0.336  0.336  0.336-   5 3.10  11 3.19  15 3.19  13 3.19  10 3.19  14 3.19  12 3.19  18 3.21
                            16 3.21  17 3.21   4 3.34  19 3.34   3 3.34   8 3.41   9 3.41   7 3.41
   3  0.349  0.349  0.839-  16 2.55  18 2.55   8 2.62   9 2.62  14 2.71  12 2.71  13 2.74  10 2.74
                             5 2.84   1 3.21   2 3.34   2 3.42
   4  0.349  0.839  0.349-  17 2.55  18 2.55   7 2.62   8 2.62  11 2.71  13 2.71  15 2.74  12 2.74
                             5 2.84   1 3.21   2 3.34   2 3.42
   5  0.099  0.099  0.099-   6 2.58   8 2.73   9 2.73   7 2.73   4 2.84  19 2.84   3 2.84  13 2.92
                            10 2.92  15 2.92  11 2.92  12 2.92  14 2.92   2 3.10
   6  0.901  0.901  0.901-   5 2.58   8 2.73   9 2.73   7 2.73  16 2.84  18 2.84  17 2.84  13 2.92
                            10 2.92  14 2.92  12 2.92  15 2.92  11 2.92   1 3.10
   7  0.000  0.000  0.500-  11 2.56  12 2.56  14 2.56  15 2.56   4 2.62  16 2.62  18 2.62  19 2.62
                             6 2.73   5 2.73   1 3.41   2 3.41
   8  0.500  0.000  0.000-  10 2.56  13 2.56  12 2.56  15 2.56   3 2.62  17 2.62  16 2.62   4 2.62
                             5 2.73   6 2.73   1 3.41   2 3.41
   9  0.000  0.500  0.000-  10 2.56  13 2.56  11 2.56  14 2.56   3 2.62  17 2.62  18 2.62  19 2.62
                             6 2.73   5 2.73   1 3.41   2 3.41
  10  0.708  0.292  0.000-   8 2.56   9 2.56  14 2.61  15 2.61  16 2.71  19 2.71  17 2.74   3 2.74
                             6 2.92   5 2.92   1 3.19   2 3.19
  11  0.000  0.708  0.292-   7 2.56   9 2.56  15 2.61  13 2.61   4 2.71  17 2.71  19 2.74  18 2.74
                             5 2.92   6 2.92   2 3.19   1 3.19
  12  0.292  0.000  0.708-   7 2.56   8 2.56  14 2.61  13 2.61  18 2.71   3 2.71  16 2.74   4 2.74
                             6 2.92   5 2.92   1 3.19   2 3.19
  13  0.292  0.708  0.000-   8 2.56   9 2.56  11 2.61  12 2.61   4 2.71  18 2.71  17 2.74   3 2.74
                             5 2.92   6 2.92   1 3.19   2 3.19
  14  0.000  0.292  0.708-   7 2.56   9 2.56  12 2.61  10 2.61  16 2.71   3 2.71  18 2.74  19 2.74
                             6 2.92   5 2.92   1 3.19   2 3.19
  15  0.708  0.000  0.292-   7 2.56   8 2.56  11 2.61  10 2.61  19 2.71  17 2.71   4 2.74  16 2.74
                             5 2.92   6 2.92   2 3.19   1 3.19
  16  0.651  0.161  0.651-   3 2.55  19 2.55   7 2.62   8 2.62  14 2.71  10 2.71  12 2.74  15 2.74
                             6 2.84   2 3.21   1 3.34   1 3.42
  17  0.651  0.651  0.161-   4 2.55  19 2.55   9 2.62   8 2.62  11 2.71  15 2.71  10 2.74  13 2.74
                             6 2.84   2 3.21   1 3.34   1 3.42
  18  0.161  0.651  0.651-   3 2.55   4 2.55   7 2.62   9 2.62  12 2.71  13 2.71  14 2.74  11 2.74
                             6 2.84   2 3.21   1 3.34   1 3.42
  19  0.839  0.349  0.349-  17 2.55  16 2.55   7 2.62   9 2.62  15 2.71  10 2.71  11 2.74  14 2.74
                             5 2.84   1 3.21   2 3.34   2 3.42
 
  LATTYP: Found a trigonal (rhomboedric) cell.
 ALAT       =     6.7587067703
 COS(alpha) =     0.1226804877
  
  Lattice vectors:
  
 A1 = (   4.4763857156,   2.5844424979,   4.3546234174)
 A2 = (  -4.4763857156,   2.5844424979,   4.3546234174)
 A3 = (   0.0000000000,  -5.1688849959,   4.3546234174)


Analysis of symmetry for initial positions (statically):
=====================================================================
 Subroutine PRICEL returns:
 Original cell was already a primitive cell.
 

 Routine SETGRP: Setting up the symmetry group for a 
 trigonal (rhombohedral) supercell.


 Subroutine GETGRP returns: Found 12 space group operations
 (whereof 12 operations were pure point group operations)
 out of a pool of 12 trial point group operations.


The static configuration has the point symmetry D_3d.


Analysis of symmetry for dynamics (positions and initial velocities):
=====================================================================
 Subroutine PRICEL returns:
 Original cell was already a primitive cell.
 

 Routine SETGRP: Setting up the symmetry group for a 
 trigonal (rhombohedral) supercell.


 Subroutine GETGRP returns: Found 12 space group operations
 (whereof 12 operations were pure point group operations)
 out of a pool of 12 trial point group operations.


The dynamic configuration has the point symmetry D_3d.


 Subroutine INISYM returns: Found 12 space group operations
 (whereof 12 operations are pure point group operations),
 and found     1 'primitive' translations


----------------------------------------------------------------------------------------

                                     Primitive cell                                     

  volume of cell :     302.2708

  direct lattice vectors                    reciprocal lattice vectors
     4.476385716  2.584442498  4.354623417     0.111697256  0.064488441  0.076546994
    -4.476385716  2.584442498  4.354623417    -0.111697256  0.064488441  0.076546994
     0.000000000 -5.168884996  4.354623417    -0.000000000 -0.128976881  0.076546994

  length of vectors
     6.758706770  6.758706770  6.758706770     0.149981593  0.149981593  0.149981593

  position of ions in fractional coordinates (direct lattice)
     0.663625300  0.663625300  0.663625300
     0.336374700  0.336374700  0.336374700
     0.349385400  0.349385400  0.839197030
     0.349385400  0.839197030  0.349385400
     0.098787190  0.098787190  0.098787190
     0.901212810  0.901212810  0.901212810
     0.000000000  0.000000000  0.500000000
     0.500000000  1.000000000  0.000000000
     1.000000000  0.500000000  0.000000000
     0.707987550  0.292012450  0.000000000
     1.000000000  0.707987550  0.292012450
     0.292012450  1.000000000  0.707987550
     0.292012450  0.707987550  0.000000000
     1.000000000  0.292012450  0.707987550
     0.707987550  1.000000000  0.292012450
     0.650614600  0.160802970  0.650614600
     0.650614600  0.650614600  0.160802970
     0.160802970  0.650614600  0.650614600
     0.839197030  0.349385400  0.349385400

  ion indices of the primitive-cell ions
   primitive index   ion index
                 1           1
                 2           2
                 3           3
                 4           4
                 5           5
                 6           6
                 7           7
                 8           8
                 9           9
                10          10
                11          11
                12          12
                13          13
                14          14
                15          15
                16          16
                17          17
                18          18
                19          19

----------------------------------------------------------------------------------------

 
 
 KPOINTS: Num irrep kpoints: 19                   

Automatic generation of k-mesh.
 Grid dimensions read from file:
 generate k-points for:    5    5    5

 Generating k-lattice:

  Cartesian coordinates                     Fractional coordinates (reciprocal lattice)
     0.022339451  0.012897688  0.015309399     0.200000000 -0.000000000 -0.000000000
    -0.022339451  0.012897688  0.015309399    -0.000000000  0.200000000 -0.000000000
    -0.000000000 -0.025795376  0.015309399     0.000000000  0.000000000  0.200000000

  Length of vectors
     0.029996319  0.029996319  0.029996319

  Shift w.r.t. Gamma in fractional coordinates (k-lattice)
     0.000000000  0.000000000  0.000000000

 
 Subroutine IBZKPT returns following result:
 ===========================================
 
 Found     19 irreducible k-points:
 
 Following reciprocal coordinates:
            Coordinates               Weight
  0.000000  0.000000  0.000000      1.000000
  0.200000 -0.000000  0.000000      6.000000
  0.400000 -0.000000  0.000000      6.000000
  0.200000  0.200000  0.000000      6.000000
  0.400000  0.200000  0.000000     12.000000
 -0.400000  0.200000  0.000000     12.000000
 -0.200000  0.200000 -0.000000      6.000000
  0.400000  0.400000  0.000000      6.000000
 -0.400000  0.400000  0.000000      6.000000
  0.200000  0.200000  0.200000      2.000000
  0.400000  0.200000  0.200000      6.000000
 -0.400000  0.200000  0.200000      6.000000
 -0.200000  0.200000  0.200000      6.000000
  0.400000  0.400000  0.200000      6.000000
 -0.400000  0.400000  0.200000     12.000000
 -0.200000  0.400000  0.200000     12.000000
 -0.400000 -0.400000  0.200000      6.000000
  0.400000  0.400000  0.400000      2.000000
 -0.400000  0.400000  0.400000      6.000000
 
 Following cartesian coordinates:
            Coordinates               Weight
  0.000000  0.000000  0.000000      1.000000
  0.022339  0.012898  0.015309      6.000000
  0.044679  0.025795  0.030619      6.000000
 -0.000000  0.025795  0.030619      6.000000
  0.022339  0.038693  0.045928     12.000000
 -0.067018 -0.012898 -0.015309     12.000000
 -0.044679  0.000000 -0.000000      6.000000
  0.000000  0.051591  0.061238      6.000000
 -0.089358 -0.000000 -0.000000      6.000000
 -0.000000 -0.000000  0.045928      2.000000
  0.022339  0.012898  0.061238      6.000000
 -0.067018 -0.038693 -0.000000      6.000000
 -0.044679 -0.025795  0.015309      6.000000
  0.000000  0.025795  0.076547      6.000000
 -0.089358 -0.025795  0.015309     12.000000
 -0.067018 -0.012898  0.030619     12.000000
 -0.000000 -0.077386 -0.045928      6.000000
  0.000000 -0.000000  0.091856      2.000000
 -0.089358 -0.051591  0.030619      6.000000
 
 
 Subroutine IBZKPT_HF returns following result:
 ==============================================
 
 Found    125 k-points in 1st BZ
 the following    125 k-points will be used (e.g. in the exchange kernel)
 Following reciprocal coordinates:   # in IRBZ
  0.000000  0.000000  0.000000    0.00800000   1 t-inv F
  0.200000 -0.000000  0.000000    0.00800000   2 t-inv F
  0.400000 -0.000000  0.000000    0.00800000   3 t-inv F
  0.200000  0.200000  0.000000    0.00800000   4 t-inv F
  0.400000  0.200000  0.000000    0.00800000   5 t-inv F
 -0.400000  0.200000  0.000000    0.00800000   6 t-inv F
 -0.200000  0.200000 -0.000000    0.00800000   7 t-inv F
  0.400000  0.400000  0.000000    0.00800000   8 t-inv F
 -0.400000  0.400000  0.000000    0.00800000   9 t-inv F
  0.200000  0.200000  0.200000    0.00800000  10 t-inv F
  0.400000  0.200000  0.200000    0.00800000  11 t-inv F
 -0.400000  0.200000  0.200000    0.00800000  12 t-inv F
 -0.200000  0.200000  0.200000    0.00800000  13 t-inv F
  0.400000  0.400000  0.200000    0.00800000  14 t-inv F
 -0.400000  0.400000  0.200000    0.00800000  15 t-inv F
 -0.200000  0.400000  0.200000    0.00800000  16 t-inv F
 -0.400000 -0.400000  0.200000    0.00800000  17 t-inv F
  0.400000  0.400000  0.400000    0.00800000  18 t-inv F
 -0.400000  0.400000  0.400000    0.00800000  19 t-inv F
 -0.200000  0.000000 -0.000000    0.00800000   2 t-inv F
  0.000000  0.200000 -0.000000    0.00800000   2 t-inv F
 -0.000000 -0.200000  0.000000    0.00800000   2 t-inv F
 -0.000000  0.000000  0.200000    0.00800000   2 t-inv F
  0.000000 -0.000000 -0.200000    0.00800000   2 t-inv F
 -0.400000  0.000000 -0.000000    0.00800000   3 t-inv F
  0.000000  0.400000 -0.000000    0.00800000   3 t-inv F
 -0.000000 -0.400000  0.000000    0.00800000   3 t-inv F
 -0.000000  0.000000  0.400000    0.00800000   3 t-inv F
  0.000000 -0.000000 -0.400000    0.00800000   3 t-inv F
 -0.200000 -0.200000 -0.000000    0.00800000   4 t-inv F
 -0.200000 -0.000000 -0.200000    0.00800000   4 t-inv F
  0.200000  0.000000  0.200000    0.00800000   4 t-inv F
  0.000000  0.200000  0.200000    0.00800000   4 t-inv F
 -0.000000 -0.200000 -0.200000    0.00800000   4 t-inv F
 -0.400000 -0.200000 -0.000000    0.00800000   5 t-inv F
 -0.400000 -0.000000 -0.200000    0.00800000   5 t-inv F
  0.400000  0.000000  0.200000    0.00800000   5 t-inv F
  0.000000  0.400000  0.200000    0.00800000   5 t-inv F
 -0.000000 -0.400000 -0.200000    0.00800000   5 t-inv F
 -0.200000 -0.400000 -0.000000    0.00800000   5 t-inv F
  0.200000  0.400000  0.000000    0.00800000   5 t-inv F
  0.200000  0.000000  0.400000    0.00800000   5 t-inv F
 -0.200000 -0.000000 -0.400000    0.00800000   5 t-inv F
 -0.000000 -0.200000 -0.400000    0.00800000   5 t-inv F
  0.000000  0.200000  0.400000    0.00800000   5 t-inv F
  0.400000 -0.200000 -0.000000    0.00800000   6 t-inv F
  0.400000 -0.000000 -0.200000    0.00800000   6 t-inv F
 -0.400000  0.000000  0.200000    0.00800000   6 t-inv F
  0.000000 -0.400000  0.200000    0.00800000   6 t-inv F
 -0.000000  0.400000 -0.200000    0.00800000   6 t-inv F
 -0.200000  0.400000 -0.000000    0.00800000   6 t-inv F
  0.200000 -0.400000  0.000000    0.00800000   6 t-inv F
  0.200000  0.000000 -0.400000    0.00800000   6 t-inv F
 -0.200000 -0.000000  0.400000    0.00800000   6 t-inv F
 -0.000000 -0.200000  0.400000    0.00800000   6 t-inv F
  0.000000  0.200000 -0.400000    0.00800000   6 t-inv F
  0.200000 -0.200000  0.000000    0.00800000   7 t-inv F
  0.200000  0.000000 -0.200000    0.00800000   7 t-inv F
 -0.200000 -0.000000  0.200000    0.00800000   7 t-inv F
 -0.000000 -0.200000  0.200000    0.00800000   7 t-inv F
  0.000000  0.200000 -0.200000    0.00800000   7 t-inv F
 -0.400000 -0.400000 -0.000000    0.00800000   8 t-inv F
 -0.400000 -0.000000 -0.400000    0.00800000   8 t-inv F
  0.400000  0.000000  0.400000    0.00800000   8 t-inv F
  0.000000  0.400000  0.400000    0.00800000   8 t-inv F
 -0.000000 -0.400000 -0.400000    0.00800000   8 t-inv F
  0.400000 -0.400000 -0.000000    0.00800000   9 t-inv F
  0.400000 -0.000000 -0.400000    0.00800000   9 t-inv F
 -0.400000  0.000000  0.400000    0.00800000   9 t-inv F
  0.000000 -0.400000  0.400000    0.00800000   9 t-inv F
 -0.000000  0.400000 -0.400000    0.00800000   9 t-inv F
 -0.200000 -0.200000 -0.200000    0.00800000  10 t-inv F
 -0.400000 -0.200000 -0.200000    0.00800000  11 t-inv F
  0.200000  0.400000  0.200000    0.00800000  11 t-inv F
 -0.200000 -0.400000 -0.200000    0.00800000  11 t-inv F
  0.200000  0.200000  0.400000    0.00800000  11 t-inv F
 -0.200000 -0.200000 -0.400000    0.00800000  11 t-inv F
  0.400000 -0.200000 -0.200000    0.00800000  12 t-inv F
  0.200000 -0.400000  0.200000    0.00800000  12 t-inv F
 -0.200000  0.400000 -0.200000    0.00800000  12 t-inv F
  0.200000  0.200000 -0.400000    0.00800000  12 t-inv F
 -0.200000 -0.200000  0.400000    0.00800000  12 t-inv F
  0.200000 -0.200000 -0.200000    0.00800000  13 t-inv F
  0.200000 -0.200000  0.200000    0.00800000  13 t-inv F
 -0.200000  0.200000 -0.200000    0.00800000  13 t-inv F
  0.200000  0.200000 -0.200000    0.00800000  13 t-inv F
 -0.200000 -0.200000  0.200000    0.00800000  13 t-inv F
 -0.400000 -0.400000 -0.200000    0.00800000  14 t-inv F
 -0.400000 -0.200000 -0.400000    0.00800000  14 t-inv F
  0.400000  0.200000  0.400000    0.00800000  14 t-inv F
  0.200000  0.400000  0.400000    0.00800000  14 t-inv F
 -0.200000 -0.400000 -0.400000    0.00800000  14 t-inv F
  0.400000 -0.400000 -0.200000    0.00800000  15 t-inv F
  0.400000 -0.200000 -0.400000    0.00800000  15 t-inv F
 -0.400000  0.200000  0.400000    0.00800000  15 t-inv F
  0.200000 -0.400000  0.400000    0.00800000  15 t-inv F
 -0.200000  0.400000 -0.400000    0.00800000  15 t-inv F
 -0.400000  0.400000 -0.200000    0.00800000  15 t-inv F
  0.400000 -0.400000  0.200000    0.00800000  15 t-inv F
  0.400000  0.200000 -0.400000    0.00800000  15 t-inv F
 -0.400000 -0.200000  0.400000    0.00800000  15 t-inv F
 -0.200000 -0.400000  0.400000    0.00800000  15 t-inv F
  0.200000  0.400000 -0.400000    0.00800000  15 t-inv F
  0.200000 -0.400000 -0.200000    0.00800000  16 t-inv F
  0.200000 -0.200000 -0.400000    0.00800000  16 t-inv F
 -0.200000  0.200000  0.400000    0.00800000  16 t-inv F
  0.200000 -0.200000  0.400000    0.00800000  16 t-inv F
 -0.200000  0.200000 -0.400000    0.00800000  16 t-inv F
 -0.400000  0.200000 -0.200000    0.00800000  16 t-inv F
  0.400000 -0.200000  0.200000    0.00800000  16 t-inv F
  0.400000  0.200000 -0.200000    0.00800000  16 t-inv F
 -0.400000 -0.200000  0.200000    0.00800000  16 t-inv F
 -0.200000 -0.400000  0.200000    0.00800000  16 t-inv F
  0.200000  0.400000 -0.200000    0.00800000  16 t-inv F
  0.400000  0.400000 -0.200000    0.00800000  17 t-inv F
  0.400000 -0.200000  0.400000    0.00800000  17 t-inv F
 -0.400000  0.200000 -0.400000    0.00800000  17 t-inv F
  0.200000 -0.400000 -0.400000    0.00800000  17 t-inv F
 -0.200000  0.400000  0.400000    0.00800000  17 t-inv F
 -0.400000 -0.400000 -0.400000    0.00800000  18 t-inv F
  0.400000 -0.400000 -0.400000    0.00800000  19 t-inv F
  0.400000 -0.400000  0.400000    0.00800000  19 t-inv F
 -0.400000  0.400000 -0.400000    0.00800000  19 t-inv F
  0.400000  0.400000 -0.400000    0.00800000  19 t-inv F
 -0.400000 -0.400000  0.400000    0.00800000  19 t-inv F


--------------------------------------------------------------------------------------------------------




 Dimension of arrays:
   k-points           NKPTS =     19   k-points in BZ     NKDIM =    125   number of bands    NBANDS=    140
   number of dos      NEDOS =    301   number of ions     NIONS =     19
   non local maximal  LDIM  =      6   non local SUM 2l+1 LMDIM =     18
   total plane-waves  NPLWV =  46656
   max r-space proj   IRMAX =      1   max aug-charges    IRDMAX=  12494
   dimension x,y,z NGX =    36 NGY =   36 NGZ =   36
   dimension x,y,z NGXF=    72 NGYF=   72 NGZF=   72
   support grid    NGXF=    72 NGYF=   72 NGZF=   72
   ions per type =               2  17
   NGX,Y,Z   is equivalent  to a cutoff of   8.86,  8.86,  8.86 a.u.
   NGXF,Y,Z  is equivalent  to a cutoff of  17.71, 17.71, 17.71 a.u.

 SYSTEM =  unknown system                          
 POSCAR =  Nd2 Zn17                                

 Startparameter for this run:
   NWRITE =      2    write-flag & timer
   PREC   = normal    normal or accurate (medium, high low for compatibility)
   ISTART =      0    job   : 0-new  1-cont  2-samecut
   ICHARG =      2    charge: 1-file 2-atom 10-const
   ISPIN  =      1    spin polarized calculation?
   LNONCOLLINEAR =      F non collinear calculations
   LSORBIT =      F    spin-orbit coupling
   INIWAV =      1    electr: 0-lowe 1-rand  2-diag
   LASPH  =      T    aspherical Exc in radial PAW
 Electronic Relaxation 1
   ENCUT  =  400.0 eV  29.40 Ry    5.42 a.u.  11.02 11.02 11.02*2*pi/ulx,y,z
   ENINI  =  400.0     initial cutoff
   ENAUG  =  575.9 eV  augmentation charge cutoff
   NELM   =    100;   NELMIN=  2; NELMDL= -5     # of ELM steps 
   EDIFF  = 0.1E-06   stopping-criterion for ELM
   LREAL  =      F    real-space projection
   NLSPLINE    = F    spline interpolate recip. space projectors
   LCOMPAT=      F    compatible to vasp.4.4
   GGA_COMPAT  = T    GGA compatible to vasp.4.4-vasp.4.6
   LMAXPAW     = -100 max onsite density
   LMAXMIX     =    2 max onsite mixed and CHGCAR
   VOSKOWN=      0    Vosko Wilk Nusair interpolation
   ROPT   =    0.00000   0.00000
 Ionic relaxation
   EDIFFG = -.5E-02   stopping-criterion for IOM
   NSW    =    300    number of steps for IOM
   NBLOCK =      1;   KBLOCK =    300    inner block; outer block 
   IBRION =      2    ionic relax: 0-MD 1-quasi-New 2-CG
   NFREE  =      1    steps in history (QN), initial steepest desc. (CG)
   ISIF   =      3    stress and relaxation
   IWAVPR =     11    prediction:  0-non 1-charg 2-wave 3-comb
   ISYM   =      3    0-nonsym 1-usesym 2-fastsym
   LCORR  =      T    Harris-Foulkes like correction to forces

   POTIM  = 0.5000    time-step for ionic-motion
   TEIN   =    0.0    initial temperature
   TEBEG  =    0.0;   TEEND  =   0.0 temperature during run
   SMASS  =  -3.00    Nose mass-parameter (am)
   estimated Nose-frequenzy (Omega)   =  0.10E-29 period in steps = 0.13E+47 mass=  -0.104E-26a.u.
   SCALEE = 1.0000    scale energy and forces
   NPACO  =    256;   APACO  = 10.0  distance and # of slots for P.C.
   PSTRESS=    0.0 pullay stress

  Mass of Ions in am
   POMASS = 144.24 65.39
  Ionic Valenz
   ZVAL   =  11.00 12.00
  Atomic Wigner-Seitz radii
   RWIGS  =  -1.00 -1.00
  virtual crystal weights 
   VCA    =   1.00  1.00
   NELECT =     226.0000    total number of electrons
   NUPDOWN=      -1.0000    fix difference up-down

 DOS related values:
   EMIN   =  10.00;   EMAX   =-10.00  energy-range for DOS
   EFERMI =   0.00;   METHOD = LEGACY      
   ISMEAR =     0;   SIGMA  =   0.10  broadening in eV -4-tet -1-fermi 0-gaus
   EFERMI_NEDOS =   21; number of points for ismear=-14 and -15

 Electronic relaxation 2 (details)
   IALGO  =     53    algorithm
   LDIAG  =      T    sub-space diagonalisation (order eigenvalues)
   LSUBROT=      F    optimize rotation matrix (better conditioning)
   LROBUST=      F    robust break criterion during scf (extrapolated energy error)
   ISEARCH=      0    line search for conjugate gradient (0, 1=use gradient)
   TURBO    =      0    0=normal 1=particle mesh
   IRESTART =      0    0=no restart 2=restart with 2 vectors
   NREBOOT  =      0    no. of reboots
   NMIN     =      0    reboot dimension
   EREF     =   0.00    reference energy to select bands
   IMIX   =      4    mixing-type and parameters
     AMIX     =   0.40;   BMIX     =  1.00
     AMIX_MAG =   1.60;   BMIX_MAG =  1.00
     AMIN     =   0.10
     WC   =   100.;   INIMIX=   1;  MIXPRE=   1;  MAXMIX= -45

 Intra band minimization:
   WEIMIN = 0.0010     energy-eigenvalue tresh-hold
   EBREAK =  0.18E-09  absolut break condition
   DEPER  =   0.30     relativ break condition  

   TIME   =   0.40     timestep for ELM

  volume/ion in A,a.u.               =      15.91       107.36
  Fermi-wavevector in a.u.,A,eV,Ry     =   1.485863  2.807875 30.038809  2.207790
  Thomas-Fermi vector in A             =   2.599222
 
 Write flags
   LWAVE        =      T    write WAVECAR
   LDOWNSAMPLE  =      F    k-point downsampling of WAVECAR
   LCHARG       =      F    write CHGCAR
   LVTOT        =      F    write LOCPOT, total local potential
   LVHAR        =      F    write LOCPOT, Hartree potential only
   WRT_POTENTIAL= false  ! write potential to hdf5 file
   LELF         =      F    write electronic localiz. function (ELF)
   LORBIT       =     10    0 simple, 1 ext, 2 COOP (PROOUT), +10 PAW based schemes


 Python interface
   PLUGINS active      =      F    recompile with -DPLUGINS to activate
 
 Dipole corrections
   LMONO      =      F    monopole corrections only (constant potential shift)
   LDIPOL     =      F    correct potential (dipole corrections)
   IDIPOL     =      0    1-x, 2-y, 3-z, 4-all directions 
   EPSILON    =  1.0000000 bulk dielectric constant
   LVACPOTAV  =      F  vacuum potentials using an averaging scheme for the charge density
   VACPOTFLAT =  0.1000000 required flatness to determine vacuum potential
 
Coulomb truncation method
  LTRUNCATE          =      F  Coulomb kernel truncation to be used

 
 Exchange correlation treatment:
   GGA     = PE    functional components
   XC_C    = 1    coefficients multiplying the functional components
   LIBXC   =     F    Libxc                    
   VOSKOWN =     0    Vosko Wilk Nusair interpolation
   EXXOEP  =     0    0=HF, 1=EXX-LHF (local Hartree Fock) 2=EXX OEP
   LHFCALC =     T    Hartree Fock is set to
   LSYMGRAD=     F    symmetrize gradient (conserves proper symmetry)
   PRECFOCK=fast      Normal, Fast or Accurate (Low or Medium for compatibility)
   LRHFCALC=     F    long range Hartree Fock
   LRSCOR  =     F    long range correlation only (use DFT for short range part)
   LTHOMAS =     F    Thomas Fermi screening in HF
   LMODELHF=     F    short range full HF, long range fraction AEXX
   FOCKCORR=     1    mode to apply convergence corrections
   LFOCKACE=     T    use Adeptively-Compressed-Exchange operator
   ENCUT4O =  -1.0   cutoff for four orbital integrals eV
   LMAXFOCK=     4    L truncation for augmentation on plane wave grid
   LMAXFOCKAE=  -1    L truncation for all-electron charge restoration on plane wave grid
   NMAXFOCKAE=   1    number of basis functions for all-electron charge restoration
   LFOCKAEDFT=     F  apply the AE augmentation even for DFT
   NKREDX  =     1    reduce k-point grid by
   NKREDY  =     1    reduce k-point grid by
   NKREDZ  =     1    reduce k-point grid by
   SHIFTRED=     F    shift reduced grid of Gamma
   HFKIDENT=     F    idential grid for each k-point
   ODDONLY =     F    use only odd q-grid points
   EVENONLY=     F    use only even q-grid points
   HFALPHA =   -1.0000 decay constant for conv. correction
   MCALPHA =    0.0000 extent of test-charge in conv. correction in multipole expansion
   AEXX    =    0.3600 exact exchange contribution
   HFSCREEN=    0.2000 screening length (either q_TF or 0.3 A-1)
   HFSCREENC=   0.2000 screening length for correlation (either q_TF or 0.3 A-1)
   HFRCUT  =    0.0000 spherical cutoff for potential kernel
   ALDAX   =    0.6400 LDA exchange part
   AGGAX   =    0.6400 GGA exchange part
   AMGGAX  =    0.6400 meta-GGA exchange part
   ALDAC   =    1.0000 LDA correlation
   AGGAC   =    1.0000 GGA correlation
   AMGGAC  =    1.0000 meta-GGA correlation
   ENCUTFOCK=  -1.0 apply spherical cutoff to Coloumb kernel
   NBANDSGWLOW=     1    first orbital included in HF term
   NBLOCK_FOCK=    64    blocking factor in FOCK_ACC

 Parameters of functionals:
   PE:
     No parameter
 
 Van der Waals corrections
   IVDW    =     0    specifies the selected vdW correction

 Linear response parameters
   LEPSILON=     F    determine dielectric tensor
   LRPA    =     F    only Hartree local field effects (RPA)
   LNABLA  =     F    use nabla operator in PAW spheres
   LVEL    =     F    velocity operator in full k-point grid
   CSHIFT  =0.1000    complex shift for real part using Kramers Kronig
   OMEGAMAX=  -1.0    maximum frequency
   DEG_THRESHOLD= 0.2000000E-02 threshold for treating states as degnerate
   RTIME   =   -0.100 relaxation time in fs
  (WPLASMAI=    0.000 imaginary part of plasma frequency in eV, 0.658/RTIME)
   DFIELD  = 0.0000000 0.0000000 0.0000000 field for delta impulse in time
 
  Optional k-point grid parameters
   LKPOINTS_OPT  =     F    use optional k-point grid
   KPOINTS_OPT_MODE=     1    mode for optional k-point grid
 
 Orbital magnetization related:
   ORBITALMAG=     F  switch on orbital magnetization
   LCHIMAG   =     F  perturbation theory with respect to B field
   DQ        =  0.001000  dq finite difference perturbation B field
   LLRAUG    =     F  two centre corrections for induced B field
   LBONE     =     F  B-component reconstruction in AE one-centre
   LVGVCALC  =     T  calculate vGv susceptibility
   LVGVAPPL  =     F  apply vGv susceptibility instead of pGv for G=0

 Random number generation:
   RANDOM_GENERATOR = DEFAULT
   PCG_SEED         = not used


--------------------------------------------------------------------------------------------------------


 conjugate gradient relaxation of ions
 charge density and potential will be updated during run
 non-spin polarized calculation
 Conjugate gradient for all bands (Freysoldt, et al. PRB 79, 241103 (2009))
 perform sub-space diagonalisation
    before iterative eigenvector-optimisation
 modified Broyden-mixing scheme, WC =      100.0
 initial mixing is a Kerker type mixing with AMIX =  0.4000 and BMIX =      1.0000
 Hartree-type preconditioning will be used
 using additional bands           27
 reciprocal scheme for non local part
 use partial core corrections
 no Harris-corrections to forces 
 use gradient corrections 
 use of overlap-Matrix (Vanderbilt PP)
 Gauss-broadening in eV      SIGMA  =   0.10


--------------------------------------------------------------------------------------------------------


  energy-cutoff  :      400.00
  volume of cell :      302.27
      direct lattice vectors                 reciprocal lattice vectors
     4.476385716  2.584442498  4.354623417     0.111697256  0.064488441  0.076546994
    -4.476385716  2.584442498  4.354623417    -0.111697256  0.064488441  0.076546994
     0.000000000 -5.168884996  4.354623417    -0.000000000 -0.128976881  0.076546994

  length of vectors
     6.758706770  6.758706770  6.758706770     0.149981593  0.149981593  0.149981593


 
 k-points in units of 2pi/SCALE and weight: Num irrep kpoints: 19                   
   0.00000000  0.00000000  0.00000000       0.008
   0.02233945  0.01289769  0.01530940       0.048
   0.04467890  0.02579538  0.03061880       0.048
  -0.00000000  0.02579538  0.03061880       0.048
   0.02233945  0.03869306  0.04592820       0.096
  -0.06701835 -0.01289769 -0.01530940       0.096
  -0.04467890  0.00000000 -0.00000000       0.048
   0.00000000  0.05159075  0.06123760       0.048
  -0.08935780 -0.00000000 -0.00000000       0.048
  -0.00000000 -0.00000000  0.04592820       0.016
   0.02233945  0.01289769  0.06123760       0.048
  -0.06701835 -0.03869306 -0.00000000       0.048
  -0.04467890 -0.02579538  0.01530940       0.048
   0.00000000  0.02579538  0.07654699       0.048
  -0.08935780 -0.02579538  0.01530940       0.096
  -0.06701835 -0.01289769  0.03061880       0.096
  -0.00000000 -0.07738613 -0.04592820       0.048
   0.00000000 -0.00000000  0.09185639       0.016
  -0.08935780 -0.05159075  0.03061880       0.048
 
 k-points in reciprocal lattice and weights: Num irrep kpoints: 19                   
   0.00000000  0.00000000  0.00000000       0.008
   0.20000000 -0.00000000  0.00000000       0.048
   0.40000000 -0.00000000  0.00000000       0.048
   0.20000000  0.20000000  0.00000000       0.048
   0.40000000  0.20000000  0.00000000       0.096
  -0.40000000  0.20000000  0.00000000       0.096
  -0.20000000  0.20000000 -0.00000000       0.048
   0.40000000  0.40000000  0.00000000       0.048
  -0.40000000  0.40000000  0.00000000       0.048
   0.20000000  0.20000000  0.20000000       0.016
   0.40000000  0.20000000  0.20000000       0.048
  -0.40000000  0.20000000  0.20000000       0.048
  -0.20000000  0.20000000  0.20000000       0.048
   0.40000000  0.40000000  0.20000000       0.048
  -0.40000000  0.40000000  0.20000000       0.096
  -0.20000000  0.40000000  0.20000000       0.096
  -0.40000000 -0.40000000  0.20000000       0.048
   0.40000000  0.40000000  0.40000000       0.016
  -0.40000000  0.40000000  0.40000000       0.048
 
 position of ions in fractional coordinates (direct lattice) 
   0.66362530  0.66362530  0.66362530
   0.33637470  0.33637470  0.33637470
   0.34938540  0.34938540  0.83919703
   0.34938540  0.83919703  0.34938540
   0.09878719  0.09878719  0.09878719
   0.90121281  0.90121281  0.90121281
   0.00000000  0.00000000  0.50000000
   0.50000000  0.00000000  0.00000000
   0.00000000  0.50000000  0.00000000
   0.70798755  0.29201245  0.00000000
   0.00000000  0.70798755  0.29201245
   0.29201245  0.00000000  0.70798755
   0.29201245  0.70798755  0.00000000
   0.00000000  0.29201245  0.70798755
   0.70798755  0.00000000  0.29201245
   0.65061460  0.16080297  0.65061460
   0.65061460  0.65061460  0.16080297
   0.16080297  0.65061460  0.65061460
   0.83919703  0.34938540  0.34938540
 
 position of ions in cartesian coordinates  (Angst):
  -0.00000000 -0.00000000  8.66951482
  -0.00000000 -0.00000000  4.39435544
  -0.00000000 -2.53177999  6.69727073
  -2.19258578  1.26588999  6.69727073
  -0.00000000 -0.00000000  1.29054303
   0.00000000 -0.00000000 11.77332722
   0.00000000 -2.58444250  2.17731171
   2.23819286  1.29222125  2.17731171
  -2.23819286  1.29222125  2.17731171
   1.86206500  2.58444250  4.35462342
  -3.16922536  0.32037434  4.35462342
   1.30716036 -2.90481684  4.35462342
  -1.86206500  2.58444250  4.35462342
  -1.30716036 -2.90481684  4.35462342
   3.16922536  0.32037434  4.35462342
   2.19258578 -1.26588999  6.36659952
  -0.00000000  2.53177999  6.36659952
  -2.19258578 -1.26588999  6.36659952
   2.19258578  1.26588999  6.69727073
 


--------------------------------------------------------------------------------------------------------


 k-point     1 :   0.0000 0.0000 0.0000  plane waves:    5517
 k-point     2 :   0.2000-0.0000 0.0000  plane waves:    5473
 k-point     3 :   0.4000-0.0000 0.0000  plane waves:    5466
 k-point     4 :   0.2000 0.2000 0.0000  plane waves:    5478
 k-point     5 :   0.4000 0.2000 0.0000  plane waves:    5483
 k-point     6 :  -0.4000 0.2000 0.0000  plane waves:    5483
 k-point     7 :  -0.2000 0.2000-0.0000  plane waves:    5483
 k-point     8 :   0.4000 0.4000 0.0000  plane waves:    5487
 k-point     9 :  -0.4000 0.4000 0.0000  plane waves:    5484
 k-point    10 :   0.2000 0.2000 0.2000  plane waves:    5498
 k-point    11 :   0.4000 0.2000 0.2000  plane waves:    5494
 k-point    12 :  -0.4000 0.2000 0.2000  plane waves:    5495
 k-point    13 :  -0.2000 0.2000 0.2000  plane waves:    5481
 k-point    14 :   0.4000 0.4000 0.2000  plane waves:    5488
 k-point    15 :  -0.4000 0.4000 0.2000  plane waves:    5505
 k-point    16 :  -0.2000 0.4000 0.2000  plane waves:    5494
 k-point    17 :  -0.4000-0.4000 0.2000  plane waves:    5500
 k-point    18 :   0.4000 0.4000 0.4000  plane waves:    5501
 k-point    19 :  -0.4000 0.4000 0.4000  plane waves:    5517

 maximum and minimum number of plane-waves per node :      5517     5466

 maximum number of plane-waves:      5517
 maximum index in each direction: 
   IXMAX=   11   IYMAX=   11   IZMAX=   11
   IXMIN=  -11   IYMIN=  -11   IZMIN=  -11


 serial   3D FFT for wavefunctions
 parallel 3D FFT for charge:
    minimum data exchange during FFTs selected (reduces bandwidth)


 FFT grid for exact exchange (Hartree Fock) 
  NGX = 24; NGY = 24; NGZ = 24

 
 Radii for the augmentation spheres in the non-local exchange
 for species   1 augmentation radius   1.784 (default was   1.321)
       energy cutoff for augmentation   1600.0
 for species   2 augmentation radius   1.285 (default was   0.952)
       energy cutoff for augmentation   1600.0
 Maximum index for augmentation-charges in exchange         1114
  SETUP_FOCK is finished

 total amount of memory used by VASP MPI-rank0    95242. kBytes
=======================================================================

   base                                    :      30000. kBytes
   nonl-proj                               :      32022. kBytes
   fftplans                                :        720. kBytes
   grid                                    :       2775. kBytes
   one-center                              :        295. kBytes
   HF                                      :        129. kBytes
   nonlr-proj                              :       2361. kBytes
   wavefun                                 :      26940. kBytes
 
     INWAV:  cpu time      0.0000: real time      0.0003
 Broyden mixing: mesh for mixing (old mesh)
   NGX = 23   NGY = 23   NGZ = 23
  (NGX  = 72   NGY  = 72   NGZ  = 72)
  gives a total of  12167 points

 initial charge density was supplied:
 charge density of overlapping atoms calculated
 number of electron     226.0000000 magnetization 
 keeping initial charge density in first step


--------------------------------------------------------------------------------------------------------


 Maximum index for augmentation-charges          584 (set IRDMAX)


--------------------------------------------------------------------------------------------------------


 First call to EWALD:  gamma=   0.264
 Maximum number of real-space cells   3x   3x   3
 Maximum number of reciprocal cells   3x   3x   3

    FEWALD:  cpu time      0.0075: real time      0.0081


--------------------------------------- Ionic step        1  -------------------------------------------




--------------------------------------- Iteration      1(   1)  ---------------------------------------


    POTLOK:  cpu time      0.0244: real time      0.0392
    SETDIJ:  cpu time      0.0567: real time      0.0574
    TRIAL :  cpu time      0.5169: real time      0.7667
    CORREC:  cpu time      0.0008: real time      0.0008
    --------------------------------------------
      LOOP:  cpu time      0.6096: real time      0.8754

 eigenvalue-minimisations  :  5320
 total energy-change (2. order) :-0.1228044E+05  (-0.9234586E+04)
 number of electron     226.0000000 magnetization 
 augmentation part      226.0000000 magnetization 

 Free energy of the ion-electron system (eV)
  ---------------------------------------------------
  alpha Z        PSCENC =      2040.05594818
  Ewald energy   TEWEN  =    -21510.32988031
  -Hartree energ DENC   =     -9469.89787933
  -exchange      EXHF   =         0.00000000
  -V(xc)+E(xc)   XCENC  =      1030.00706744
  PAW double counting   =     26179.67445001   -42535.42018954
  entropy T*S    EENTRO =        -0.00797353
  eigenvalues    EBANDS =       420.95112218
  atomic energy  EATOM  =     31564.52592125
  ---------------------------------------------------
  free energy    TOTEN  =    -12280.44141364 eV

  energy without entropy =   -12280.43344011  energy(sigma->0) =   -12280.43742688
  exchange ACFDT corr.  =         0.00000000  see jH, gK, PRB 81, 115126


--------------------------------------------------------------------------------------------------------




--------------------------------------- Iteration      1(   2)  ---------------------------------------


    TRIAL :  cpu time      0.5233: real time      0.5258
    CORREC:  cpu time      0.0005: real time      0.0005
    --------------------------------------------
      LOOP:  cpu time      0.5371: real time      0.5484

 eigenvalue-minimisations  :  7028
 total energy-change (2. order) :-0.1727721E+04  (-0.1681636E+04)
 number of electron     226.0000000 magnetization 
 augmentation part      226.0000000 magnetization 

 Free energy of the ion-electron system (eV)
  ---------------------------------------------------
  alpha Z        PSCENC =      2040.05594818
  Ewald energy   TEWEN  =    -21510.32988031
  -Hartree energ DENC   =     -9469.89787933
  -exchange      EXHF   =         0.00000000
  -V(xc)+E(xc)   XCENC  =      1030.00706744
  PAW double counting   =     26179.67445001   -42535.42018954
  entropy T*S    EENTRO =        -0.01776674
  eigenvalues    EBANDS =     -1306.76006669
  atomic energy  EATOM  =     31564.52592125
  ---------------------------------------------------
  free energy    TOTEN  =    -14008.16239572 eV

  energy without entropy =   -14008.14462898  energy(sigma->0) =   -14008.15351235
  exchange ACFDT corr.  =         0.00000000  see jH, gK, PRB 81, 115126


--------------------------------------------------------------------------------------------------------




--------------------------------------- Iteration      1(   3)  ---------------------------------------


    TRIAL :  cpu time      0.5418: real time      0.5445
    CORREC:  cpu time      0.0003: real time      0.0003
    --------------------------------------------
      LOOP:  cpu time      0.5500: real time      0.5661

 eigenvalue-minimisations  :  7140
 total energy-change (2. order) :-0.4727082E+03  (-0.4586904E+03)
 number of electron     226.0000000 magnetization 
 augmentation part      226.0000000 magnetization 

 Free energy of the ion-electron system (eV)
  ---------------------------------------------------
  alpha Z        PSCENC =      2040.05594818
  Ewald energy   TEWEN  =    -21510.32988031
  -Hartree energ DENC   =     -9469.89787933
  -exchange      EXHF   =         0.00000000
  -V(xc)+E(xc)   XCENC  =      1030.00706744
  PAW double counting   =     26179.67445001   -42535.42018954
  entropy T*S    EENTRO =        -0.03347095
  eigenvalues    EBANDS =     -1779.45256438
  atomic energy  EATOM  =     31564.52592125
  ---------------------------------------------------
  free energy    TOTEN  =    -14480.87059761 eV

  energy without entropy =   -14480.83712667  energy(sigma->0) =   -14480.85386214
  exchange ACFDT corr.  =         0.00000000  see jH, gK, PRB 81, 115126


--------------------------------------------------------------------------------------------------------




--------------------------------------- Iteration      1(   4)  ---------------------------------------


    TRIAL :  cpu time      0.7481: real time      0.7515
    CORREC:  cpu time      0.0003: real time      0.0003
    --------------------------------------------
      LOOP:  cpu time      0.7595: real time      0.7748

 eigenvalue-minimisations  : 10080
 total energy-change (2. order) :-0.1060613E+03  (-0.1043998E+03)
 number of electron     226.0000000 magnetization 
 augmentation part      226.0000000 magnetization 

 Free energy of the ion-electron system (eV)
  ---------------------------------------------------
  alpha Z        PSCENC =      2040.05594818
  Ewald energy   TEWEN  =    -21510.32988031
  -Hartree energ DENC   =     -9469.89787933
  -exchange      EXHF   =         0.00000000
  -V(xc)+E(xc)   XCENC  =      1030.00706744
  PAW double counting   =     26179.67445001   -42535.42018954
  entropy T*S    EENTRO =        -0.01578385
  eigenvalues    EBANDS =     -1885.53156874
  atomic energy  EATOM  =     31564.52592125
  ---------------------------------------------------
  free energy    TOTEN  =    -14586.93191489 eV

  energy without entropy =   -14586.91613103  energy(sigma->0) =   -14586.92402296
  exchange ACFDT corr.  =         0.00000000  see jH, gK, PRB 81, 115126


--------------------------------------------------------------------------------------------------------




--------------------------------------- Iteration      1(   5)  ---------------------------------------


    POTLOK:  cpu time      0.0194: real time      0.0195
    SETDIJ:  cpu time      0.1808: real time      0.1815
    TRIAL :  cpu time    253.1592: real time    254.2181
    CORREC:  cpu time      0.0004: real time      0.0004
    CHARGE:  cpu time      0.0452: real time      0.0752
    --------------------------------------------
      LOOP:  cpu time    253.4157: real time    254.5177

 eigenvalue-minimisations  :  8064
 total energy-change (2. order) : 0.1455408E+05  (-0.2587780E+02)
 number of electron     226.0001772 magnetization 
 augmentation part      140.7153233 magnetization 

 Free energy of the ion-electron system (eV)
  ---------------------------------------------------
  alpha Z        PSCENC =      2040.05594818
  Ewald energy   TEWEN  =    -21510.32988031
  -Hartree energ DENC   =     -9469.89787933
  -exchange      EXHF   =       915.85262098
  -V(xc)+E(xc)   XCENC  =       671.85079839
  PAW double counting   =     26525.87815361   -29160.18315052
  entropy T*S    EENTRO =        -0.01442258
  eigenvalues    EBANDS =     -1610.59068623
  atomic energy  EATOM  =     31564.52592125
  ---------------------------------------------------
  free energy    TOTEN  =       -32.85257654 eV

  energy without entropy =      -32.83815397  energy(sigma->0) =      -32.84536526
  exchange ACFDT corr.  =        -0.00233402  see jH, gK, PRB 81, 115126


--------------------------------------------------------------------------------------------------------




--------------------------------------- Iteration      1(   6)  ---------------------------------------


    POTLOK:  cpu time      0.0300: real time      0.0302
    SETDIJ:  cpu time      0.1689: real time      0.1695
    TRIAL :  cpu time    252.6747: real time    254.1944
    CORREC:  cpu time      0.0040: real time      0.0042
    CHARGE:  cpu time      0.0584: real time      0.1867
    --------------------------------------------
      LOOP:  cpu time    252.9486: real time    254.6104

 eigenvalue-minimisations  :     0
 total energy-change (2. order) : 0.4591896E+01  (-0.1964624E+02)
 number of electron     226.0001744 magnetization 
 augmentation part      138.3937459 magnetization 

 Free energy of the ion-electron system (eV)
  ---------------------------------------------------
  alpha Z        PSCENC =      2040.05594818
  Ewald energy   TEWEN  =    -21510.32988031
  -Hartree energ DENC   =     -9408.48525024
  -exchange      EXHF   =       893.02645533
  -V(xc)+E(xc)   XCENC  =       674.54794400
  PAW double counting   =     29575.10281055   -32360.63138169
  entropy T*S    EENTRO =        -0.01442258
  eigenvalues    EBANDS =     -1496.05882541
  atomic energy  EATOM  =     31564.52592125
  ---------------------------------------------------
  free energy    TOTEN  =       -28.26068091 eV

  energy without entropy =      -28.24625833  energy(sigma->0) =      -28.25346962
  exchange ACFDT corr.  =        -0.00184685  see jH, gK, PRB 81, 115126


--------------------------------------------------------------------------------------------------------




--------------------------------------- Iteration      1(   7)  ---------------------------------------


    POTLOK:  cpu time      0.0458: real time      0.0697
    SETDIJ:  cpu time      0.1879: real time      0.1890
    TRIAL :  cpu time    251.1790: real time    252.6219
    CORREC:  cpu time      0.0037: real time      0.0041
    CHARGE:  cpu time      0.0576: real time      0.1094
    --------------------------------------------
      LOOP:  cpu time    251.4940: real time    253.0196

 eigenvalue-minimisations  :     0
 total energy-change (2. order) :-0.8364916E+01  (-0.2937417E+01)
 number of electron     226.0001748 magnetization 
 augmentation part      138.6996862 magnetization 

 Free energy of the ion-electron system (eV)
  ---------------------------------------------------
  alpha Z        PSCENC =      2040.05594818
  Ewald energy   TEWEN  =    -21510.32988031
  -Hartree energ DENC   =     -9229.40654581
  -exchange      EXHF   =       882.69978629
  -V(xc)+E(xc)   XCENC  =       666.28728063
  PAW double counting   =     29518.62785960   -32174.64610283
  entropy T*S    EENTRO =        -0.01579689
  eigenvalues    EBANDS =     -1794.42406683
  atomic energy  EATOM  =     31564.52592125
  ---------------------------------------------------
  free energy    TOTEN  =       -36.62559671 eV

  energy without entropy =      -36.60979982  energy(sigma->0) =      -36.61769826
  exchange ACFDT corr.  =        -0.03084398  see jH, gK, PRB 81, 115126


--------------------------------------------------------------------------------------------------------




--------------------------------------- Iteration      1(   8)  ---------------------------------------


    POTLOK:  cpu time      0.0391: real time      0.0406
    SETDIJ:  cpu time      0.1839: real time      0.1847
    TRIAL :  cpu time    251.9595: real time    253.1298
    CORREC:  cpu time      0.0044: real time      0.0049
    CHARGE:  cpu time      0.0584: real time      0.1257
    --------------------------------------------
      LOOP:  cpu time    252.2554: real time    253.5105

 eigenvalue-minimisations  :     0
 total energy-change (2. order) :-0.1592584E+01  (-0.1878617E+01)
 number of electron     226.0001756 magnetization 
 augmentation part      139.3799883 magnetization 

 Free energy of the ion-electron system (eV)
  ---------------------------------------------------
  alpha Z        PSCENC =      2040.05594818
  Ewald energy   TEWEN  =    -21510.32988031
  -Hartree energ DENC   =     -9293.52170146
  -exchange      EXHF   =       884.11081960
  -V(xc)+E(xc)   XCENC  =       667.37797956
  PAW double counting   =     29606.71950710   -32291.60355143
  entropy T*S    EENTRO =        -0.01327757
  eigenvalues    EBANDS =     -1705.53994597
  atomic energy  EATOM  =     31564.52592125
  ---------------------------------------------------
  free energy    TOTEN  =       -38.21818103 eV

  energy without entropy =      -38.20490346  energy(sigma->0) =      -38.21154225
  exchange ACFDT corr.  =        -0.00505707  see jH, gK, PRB 81, 115126


--------------------------------------------------------------------------------------------------------




--------------------------------------- Iteration      1(   9)  ---------------------------------------


    POTLOK:  cpu time      0.0452: real time      0.0606
    SETDIJ:  cpu time      0.1864: real time      0.1876
    TRIAL :  cpu time    251.3963: real time    252.5730
    CORREC:  cpu time      0.0040: real time      0.0047
    CHARGE:  cpu time      0.0575: real time      0.2221
    --------------------------------------------
      LOOP:  cpu time    251.7020: real time    253.0718

 eigenvalue-minimisations  :     0
 total energy-change (2. order) :-0.7202238E+00  (-0.4040526E+00)
 number of electron     226.0001755 magnetization 
 augmentation part      139.1874360 magnetization 

 Free energy of the ion-electron system (eV)
  ---------------------------------------------------
  alpha Z        PSCENC =      2040.05594818
  Ewald energy   TEWEN  =    -21510.32988031
  -Hartree energ DENC   =     -9353.57483682
  -exchange      EXHF   =       887.16702360
  -V(xc)+E(xc)   XCENC  =       669.73181699
  PAW double counting   =     29674.61511609   -32402.01466461
  entropy T*S    EENTRO =        -0.01301960
  eigenvalues    EBANDS =     -1609.10182957
  atomic energy  EATOM  =     31564.52592125
  ---------------------------------------------------
  free energy    TOTEN  =       -38.93840478 eV

  energy without entropy =      -38.92538519  energy(sigma->0) =      -38.93189499
  exchange ACFDT corr.  =        -0.00839379  see jH, gK, PRB 81, 115126


--------------------------------------------------------------------------------------------------------




--------------------------------------- Iteration      1(  10)  ---------------------------------------


    POTLOK:  cpu time      0.0367: real time      0.0957
    SETDIJ:  cpu time      0.1865: real time      0.1885
    TRIAL :  cpu time    251.2002: real time    252.3233
    CORREC:  cpu time      0.0043: real time      0.0048
    CHARGE:  cpu time      0.0515: real time      0.0530
    --------------------------------------------
      LOOP:  cpu time    251.4984: real time    252.6936

 eigenvalue-minimisations  :     0
 total energy-change (2. order) :-0.1928274E+00  (-0.2950024E+00)
 number of electron     226.0001751 magnetization 
 augmentation part      138.8751432 magnetization 

 Free energy of the ion-electron system (eV)
  ---------------------------------------------------
  alpha Z        PSCENC =      2040.05594818
  Ewald energy   TEWEN  =    -21510.32988031
  -Hartree energ DENC   =     -9320.48350747
  -exchange      EXHF   =       886.42383818
  -V(xc)+E(xc)   XCENC  =       669.10179387
  PAW double counting   =     29663.72467172   -32378.48437597
  entropy T*S    EENTRO =        -0.01307076
  eigenvalues    EBANDS =     -1653.65257092
  atomic energy  EATOM  =     31564.52592125
  ---------------------------------------------------
  free energy    TOTEN  =       -39.13123221 eV

  energy without entropy =      -39.11816145  energy(sigma->0) =      -39.12469683
  exchange ACFDT corr.  =        -0.00380121  see jH, gK, PRB 81, 115126


--------------------------------------------------------------------------------------------------------




--------------------------------------- Iteration      1(  11)  ---------------------------------------


    POTLOK:  cpu time      0.0380: real time      0.0396
    SETDIJ:  cpu time      0.1834: real time      0.1847
    TRIAL :  cpu time    251.7154: real time    252.8945
    CORREC:  cpu time      0.0028: real time      0.0030
    CHARGE:  cpu time      0.0452: real time      0.0598
    --------------------------------------------
      LOOP:  cpu time    252.0028: real time    253.2039

 eigenvalue-minimisations  :     0
 total energy-change (2. order) :-0.1348085E+00  (-0.1100529E+00)
 number of electron     226.0001752 magnetization 
 augmentation part      138.9229342 magnetization 

 Free energy of the ion-electron system (eV)
  ---------------------------------------------------
  alpha Z        PSCENC =      2040.05594818
  Ewald energy   TEWEN  =    -21510.32988031
  -Hartree energ DENC   =     -9297.00479972
  -exchange      EXHF   =       885.33039101
  -V(xc)+E(xc)   XCENC  =       668.23634421
  PAW double counting   =     29645.69677382   -32344.57698293
  entropy T*S    EENTRO =        -0.01291137
  eigenvalues    EBANDS =     -1691.18684483
  atomic energy  EATOM  =     31564.52592125
  ---------------------------------------------------
  free energy    TOTEN  =       -39.26604069 eV

  energy without entropy =      -39.25312932  energy(sigma->0) =      -39.25958501
  exchange ACFDT corr.  =        -0.00467455  see jH, gK, PRB 81, 115126


--------------------------------------------------------------------------------------------------------




--------------------------------------- Iteration      1(  12)  ---------------------------------------


    POTLOK:  cpu time      0.0244: real time      0.0360
    SETDIJ:  cpu time      0.1814: real time      0.1820
    TRIAL :  cpu time    251.3940: real time    252.6912
    CORREC:  cpu time      0.0045: real time      0.0048
    CHARGE:  cpu time      0.0565: real time      0.1362
    --------------------------------------------
      LOOP:  cpu time    251.6782: real time    253.0774

 eigenvalue-minimisations  :     0
 total energy-change (2. order) :-0.6104295E-01  (-0.4127931E-01)
 number of electron     226.0001753 magnetization 
 augmentation part      138.9673484 magnetization 

 Free energy of the ion-electron system (eV)
  ---------------------------------------------------
  alpha Z        PSCENC =      2040.05594818
  Ewald energy   TEWEN  =    -21510.32988031
  -Hartree energ DENC   =     -9314.21539409
  -exchange      EXHF   =       885.83287169
  -V(xc)+E(xc)   XCENC  =       668.62493740
  PAW double counting   =     29650.23073358   -32355.04084081
  entropy T*S    EENTRO =        -0.01284779
  eigenvalues    EBANDS =     -1668.99853274
  atomic energy  EATOM  =     31564.52592125
  ---------------------------------------------------
  free energy    TOTEN  =       -39.32708364 eV

  energy without entropy =      -39.31423585  energy(sigma->0) =      -39.32065974
  exchange ACFDT corr.  =        -0.00466882  see jH, gK, PRB 81, 115126


--------------------------------------------------------------------------------------------------------




--------------------------------------- Iteration      1(  13)  ---------------------------------------


    POTLOK:  cpu time      0.0357: real time      0.0560
    SETDIJ:  cpu time      0.1856: real time      0.1869
    TRIAL :  cpu time    251.4654: real time    252.6898
    CORREC:  cpu time      0.0063: real time      0.0068
    CHARGE:  cpu time      0.0542: real time      0.0635
    --------------------------------------------
      LOOP:  cpu time    251.7649: real time    253.0274

 eigenvalue-minimisations  :     0
 total energy-change (2. order) :-0.2441310E-01  (-0.2439665E-01)
 number of electron     226.0001753 magnetization 
 augmentation part      138.9089915 magnetization 

 Free energy of the ion-electron system (eV)
  ---------------------------------------------------
  alpha Z        PSCENC =      2040.05594818
  Ewald energy   TEWEN  =    -21510.32988031
  -Hartree energ DENC   =     -9321.69635669
  -exchange      EXHF   =       886.19947722
  -V(xc)+E(xc)   XCENC  =       668.89520781
  PAW double counting   =     29651.13458338   -32359.44594007
  entropy T*S    EENTRO =        -0.01289390
  eigenvalues    EBANDS =     -1658.67756362
  atomic energy  EATOM  =     31564.52592125
  ---------------------------------------------------
  free energy    TOTEN  =       -39.35149674 eV

  energy without entropy =      -39.33860284  energy(sigma->0) =      -39.34504979
  exchange ACFDT corr.  =        -0.00475843  see jH, gK, PRB 81, 115126


--------------------------------------------------------------------------------------------------------




--------------------------------------- Iteration      1(  14)  ---------------------------------------


    POTLOK:  cpu time      0.0385: real time      0.0429
    SETDIJ:  cpu time      0.1865: real time      0.1877
    TRIAL :  cpu time    251.4323: real time    252.5828
    CORREC:  cpu time      0.0040: real time      0.0043
    CHARGE:  cpu time      0.0508: real time      0.0619
    --------------------------------------------
      LOOP:  cpu time    251.7253: real time    252.9037

 eigenvalue-minimisations  :     0
 total energy-change (2. order) :-0.1509536E-01  (-0.9221999E-02)
 number of electron     226.0001752 magnetization 
 augmentation part      138.8695075 magnetization 

 Free energy of the ion-electron system (eV)
  ---------------------------------------------------
  alpha Z        PSCENC =      2040.05594818
  Ewald energy   TEWEN  =    -21510.32988031
  -Hartree energ DENC   =     -9314.74464170
  -exchange      EXHF   =       886.02475156
  -V(xc)+E(xc)   XCENC  =       668.75216774
  PAW double counting   =     29645.04738345   -32350.24283348
  entropy T*S    EENTRO =        -0.01294395
  eigenvalues    EBANDS =     -1668.44246484
  atomic energy  EATOM  =     31564.52592125
  ---------------------------------------------------
  free energy    TOTEN  =       -39.36659210 eV

  energy without entropy =      -39.35364814  energy(sigma->0) =      -39.36012012
  exchange ACFDT corr.  =        -0.00447008  see jH, gK, PRB 81, 115126


--------------------------------------------------------------------------------------------------------




--------------------------------------- Iteration      1(  15)  ---------------------------------------


    POTLOK:  cpu time      0.0348: real time      0.0378
    SETDIJ:  cpu time      0.1847: real time      0.1856
    TRIAL :  cpu time    251.3294: real time    252.4302
    CORREC:  cpu time      0.0044: real time      0.0047
    CHARGE:  cpu time      0.0494: real time      0.0508
    --------------------------------------------
      LOOP:  cpu time    251.6300: real time    252.7381

 eigenvalue-minimisations  :     0
 total energy-change (2. order) :-0.6411916E-02  (-0.5600993E-02)
 number of electron     226.0001752 magnetization 
 augmentation part      138.8718723 magnetization 

 Free energy of the ion-electron system (eV)
  ---------------------------------------------------
  alpha Z        PSCENC =      2040.05594818
  Ewald energy   TEWEN  =    -21510.32988031
  -Hartree energ DENC   =     -9312.15070341
  -exchange      EXHF   =       885.90952583
  -V(xc)+E(xc)   XCENC  =       668.67498582
  PAW double counting   =     29643.08310948   -32347.16845005
  entropy T*S    EENTRO =        -0.01293942
  eigenvalues    EBANDS =     -1671.96052139
  atomic energy  EATOM  =     31564.52592125
  ---------------------------------------------------
  free energy    TOTEN  =       -39.37300401 eV

  energy without entropy =      -39.36006459  energy(sigma->0) =      -39.36653430
  exchange ACFDT corr.  =        -0.00459864  see jH, gK, PRB 81, 115126


--------------------------------------------------------------------------------------------------------




--------------------------------------- Iteration      1(  16)  ---------------------------------------


    POTLOK:  cpu time      0.0372: real time      0.0395
    SETDIJ:  cpu time      0.1859: real time      0.1872
    TRIAL :  cpu time    251.8227: real time    253.0659
    CORREC:  cpu time      0.0039: real time      0.0047
    CHARGE:  cpu time      0.0532: real time      0.0729
    --------------------------------------------
      LOOP:  cpu time    252.1254: real time    253.3940

 eigenvalue-minimisations  :     0
 total energy-change (2. order) :-0.4130902E-02  (-0.2660033E-02)
 number of electron     226.0001753 magnetization 
 augmentation part      138.8700400 magnetization 

 Free energy of the ion-electron system (eV)
  ---------------------------------------------------
  alpha Z        PSCENC =      2040.05594818
  Ewald energy   TEWEN  =    -21510.32988031
  -Hartree energ DENC   =     -9314.70207847
  -exchange      EXHF   =       885.97757175
  -V(xc)+E(xc)   XCENC  =       668.73434227
  PAW double counting   =     29645.79794044   -32350.99410613
  entropy T*S    EENTRO =        -0.01291277
  eigenvalues    EBANDS =     -1668.42988113
  atomic energy  EATOM  =     31564.52592125
  ---------------------------------------------------
  free energy    TOTEN  =       -39.37713492 eV

  energy without entropy =      -39.36422214  energy(sigma->0) =      -39.37067853
  exchange ACFDT corr.  =        -0.00468491  see jH, gK, PRB 81, 115126


--------------------------------------------------------------------------------------------------------




--------------------------------------- Iteration      1(  17)  ---------------------------------------


    POTLOK:  cpu time      0.0370: real time      0.0395
    SETDIJ:  cpu time      0.1856: real time      0.1867
    TRIAL :  cpu time    251.6233: real time    252.7459
    CORREC:  cpu time      0.0027: real time      0.0031
    CHARGE:  cpu time      0.0513: real time      0.1668
    --------------------------------------------
      LOOP:  cpu time    251.9208: real time    253.1641

 eigenvalue-minimisations  :     0
 total energy-change (2. order) :-0.2174805E-02  (-0.1694332E-02)
 number of electron     226.0001752 magnetization 
 augmentation part      138.8572192 magnetization 

 Free energy of the ion-electron system (eV)
  ---------------------------------------------------
  alpha Z        PSCENC =      2040.05594818
  Ewald energy   TEWEN  =    -21510.32988031
  -Hartree energ DENC   =     -9315.62702750
  -exchange      EXHF   =       886.01619305
  -V(xc)+E(xc)   XCENC  =       668.76083612
  PAW double counting   =     29648.36738949   -32353.76929931
  entropy T*S    EENTRO =        -0.01289997
  eigenvalues    EBANDS =     -1667.36649072
  atomic energy  EATOM  =     31564.52592125
  ---------------------------------------------------
  free energy    TOTEN  =       -39.37930972 eV

  energy without entropy =      -39.36640975  energy(sigma->0) =      -39.37285973
  exchange ACFDT corr.  =        -0.00468720  see jH, gK, PRB 81, 115126


--------------------------------------------------------------------------------------------------------




--------------------------------------- Iteration      1(  18)  ---------------------------------------


    POTLOK:  cpu time      0.0230: real time      0.0392
    SETDIJ:  cpu time      0.1814: real time      0.1820
    TRIAL :  cpu time    251.9231: real time    253.0768
    CORREC:  cpu time      0.0035: real time      0.0040
    CHARGE:  cpu time      0.0511: real time      0.0601
    --------------------------------------------
      LOOP:  cpu time    252.2055: real time    253.3882

 eigenvalue-minimisations  :     0
 total energy-change (2. order) :-0.1370392E-02  (-0.9191334E-03)
 number of electron     226.0001752 magnetization 
 augmentation part      138.8518316 magnetization 

 Free energy of the ion-electron system (eV)
  ---------------------------------------------------
  alpha Z        PSCENC =      2040.05594818
  Ewald energy   TEWEN  =    -21510.32988031
  -Hartree energ DENC   =     -9314.67533819
  -exchange      EXHF   =       885.99399314
  -V(xc)+E(xc)   XCENC  =       668.73902171
  PAW double counting   =     29649.78833218   -32354.53170116
  entropy T*S    EENTRO =        -0.01290067
  eigenvalues    EBANDS =     -1668.93407625
  atomic energy  EATOM  =     31564.52592125
  ---------------------------------------------------
  free energy    TOTEN  =       -39.38068011 eV

  energy without entropy =      -39.36777944  energy(sigma->0) =      -39.37422978
  exchange ACFDT corr.  =        -0.00467786  see jH, gK, PRB 81, 115126


--------------------------------------------------------------------------------------------------------




--------------------------------------- Iteration      1(  19)  ---------------------------------------


    POTLOK:  cpu time      0.0375: real time      0.0468
    SETDIJ:  cpu time      0.1877: real time      0.1885
    TRIAL :  cpu time    251.1054: real time    252.2553
[...]
  -V(xc)+E(xc)   XCENC  =       668.76206581
  PAW double counting   =     29656.29046670   -32360.78675222
  entropy T*S    EENTRO =        -0.01289356
  eigenvalues    EBANDS =     -1668.67551104
  atomic energy  EATOM  =     31564.52592125
  ---------------------------------------------------
  free energy    TOTEN  =       -39.38312820 eV

  energy without entropy =      -39.37023464  energy(sigma->0) =      -39.37668142
  exchange ACFDT corr.  =        -0.00469274  see jH, gK, PRB 81, 115126


--------------------------------------------------------------------------------------------------------




--------------------------------------- Iteration      1(  51)  ---------------------------------------


    POTLOK:  cpu time      0.0385: real time      0.0435
    SETDIJ:  cpu time      0.1845: real time      0.1857
    TRIAL :  cpu time    251.2864: real time    252.4536
    CORREC:  cpu time      0.0035: real time      0.0040
    CHARGE:  cpu time      0.0521: real time      0.0646
    --------------------------------------------
      LOOP:  cpu time    251.5877: real time    252.7760

 eigenvalue-minimisations  :     0
 total energy-change (2. order) : 0.1535198E-02  (-0.1206998E-01)
 number of electron     226.0001752 magnetization 
 augmentation part      138.8519670 magnetization 

 Free energy of the ion-electron system (eV)
  ---------------------------------------------------
  alpha Z        PSCENC =      2040.05594818
  Ewald energy   TEWEN  =    -21510.32988031
  -Hartree energ DENC   =     -9314.90979235
  -exchange      EXHF   =       885.98066874
  -V(xc)+E(xc)   XCENC  =       668.74131367
  PAW double counting   =     29655.59215426   -32360.21470384
  entropy T*S    EENTRO =        -0.01289296
  eigenvalues    EBANDS =     -1668.81032964
  atomic energy  EATOM  =     31564.52592125
  ---------------------------------------------------
  free energy    TOTEN  =       -39.38159300 eV

  energy without entropy =      -39.36870004  energy(sigma->0) =      -39.37514652
  exchange ACFDT corr.  =        -0.00469316  see jH, gK, PRB 81, 115126


--------------------------------------------------------------------------------------------------------




--------------------------------------- Iteration      1(  52)  ---------------------------------------


    POTLOK:  cpu time      0.0390: real time      0.0425
    SETDIJ:  cpu time      0.1851: real time      0.1864
    TRIAL :  cpu time    251.7536: real time    252.9654
    CORREC:  cpu time      0.0022: real time      0.0023
    CHARGE:  cpu time      0.0389: real time      0.0398
    --------------------------------------------
      LOOP:  cpu time    252.0381: real time    253.2585

 eigenvalue-minimisations  :     0
 total energy-change (2. order) : 0.9086196E-02  (-0.7321308E-01)
 number of electron     226.0001752 magnetization 
 augmentation part      138.7817188 magnetization 

 Free energy of the ion-electron system (eV)
  ---------------------------------------------------
  alpha Z        PSCENC =      2040.05594818
  Ewald energy   TEWEN  =    -21510.32988031
  -Hartree energ DENC   =     -9315.80200157
  -exchange      EXHF   =       886.10310395
  -V(xc)+E(xc)   XCENC  =       668.79680464
  PAW double counting   =     29657.54055603   -32361.82331902
  entropy T*S    EENTRO =        -0.01289450
  eigenvalues    EBANDS =     -1668.42674547
  atomic energy  EATOM  =     31564.52592125
  ---------------------------------------------------
  free energy    TOTEN  =       -39.37250680 eV

  energy without entropy =      -39.35961230  energy(sigma->0) =      -39.36605955
  exchange ACFDT corr.  =        -0.00469175  see jH, gK, PRB 81, 115126


--------------------------------------------------------------------------------------------------------




--------------------------------------- Iteration      1(  53)  ---------------------------------------


    POTLOK:  cpu time      0.0191: real time      0.0193
    SETDIJ:  cpu time      0.1799: real time      0.1806
    TRIAL :  cpu time    251.3638: real time    252.4677
    CORREC:  cpu time      0.0047: real time      0.0050
    CHARGE:  cpu time      0.0502: real time      0.0515
    --------------------------------------------
      LOOP:  cpu time    251.6348: real time    252.7510

 eigenvalue-minimisations  :     0
 total energy-change (2. order) : 0.5112743E-01  (-0.3714163E+00)
 number of electron     226.0001753 magnetization 
 augmentation part      138.9369730 magnetization 

 Free energy of the ion-electron system (eV)
  ---------------------------------------------------
  alpha Z        PSCENC =      2040.05594818
  Ewald energy   TEWEN  =    -21510.32988031
  -Hartree energ DENC   =     -9313.58468188
  -exchange      EXHF   =       885.78576554
  -V(xc)+E(xc)   XCENC  =       668.65548846
  PAW double counting   =     29652.83298752   -32357.98755192
  entropy T*S    EENTRO =        -0.01289092
  eigenvalues    EBANDS =     -1669.26248529
  atomic energy  EATOM  =     31564.52592125
  ---------------------------------------------------
  free energy    TOTEN  =       -39.32137937 eV

  energy without entropy =      -39.30848845  energy(sigma->0) =      -39.31493391
  exchange ACFDT corr.  =        -0.00460566  see jH, gK, PRB 81, 115126


--------------------------------------------------------------------------------------------------------




--------------------------------------- Iteration      1(  54)  ---------------------------------------


    POTLOK:  cpu time      0.0308: real time      0.0316
    SETDIJ:  cpu time      0.1870: real time      0.1878
    TRIAL :  cpu time    251.8454: real time    252.8728
    CORREC:  cpu time      0.0043: real time      0.0046
    CHARGE:  cpu time      0.0501: real time      0.0512
    --------------------------------------------
      LOOP:  cpu time    252.1323: real time    253.1774

 eigenvalue-minimisations  :     0
 total energy-change (2. order) : 0.1831502E+00  (-0.1346866E+01)
 number of electron     226.0001752 magnetization 
 augmentation part      138.6376906 magnetization 

 Free energy of the ion-electron system (eV)
  ---------------------------------------------------
  alpha Z        PSCENC =      2040.05594818
  Ewald energy   TEWEN  =    -21510.32988031
  -Hartree energ DENC   =     -9318.56303465
  -exchange      EXHF   =       886.46162524
  -V(xc)+E(xc)   XCENC  =       668.96558588
  PAW double counting   =     29663.58382101   -32366.80428501
  entropy T*S    EENTRO =        -0.01290020
  eigenvalues    EBANDS =     -1667.02103063
  atomic energy  EATOM  =     31564.52592125
  ---------------------------------------------------
  free energy    TOTEN  =       -39.13822922 eV

  energy without entropy =      -39.12532902  energy(sigma->0) =      -39.13177912
  exchange ACFDT corr.  =        -0.00469652  see jH, gK, PRB 81, 115126


--------------------------------------------------------------------------------------------------------




--------------------------------------- Iteration      1(  55)  ---------------------------------------


    POTLOK:  cpu time      0.0369: real time      0.0387
    SETDIJ:  cpu time      0.1864: real time      0.1880
    TRIAL :  cpu time    251.9664: real time    253.1862
    CORREC:  cpu time      0.0047: real time      0.0050
    CHARGE:  cpu time      0.0584: real time      0.1425
    --------------------------------------------
      LOOP:  cpu time    252.2669: real time    253.5853

 eigenvalue-minimisations  :     0
 total energy-change (2. order) : 0.5225309E+00  (-0.3716858E+01)
 number of electron     226.0001753 magnetization 
 augmentation part      139.1085153 magnetization 

 Free energy of the ion-electron system (eV)
  ---------------------------------------------------
  alpha Z        PSCENC =      2040.05594818
  Ewald energy   TEWEN  =    -21510.32988031
  -Hartree energ DENC   =     -9309.58104382
  -exchange      EXHF   =       885.08922020
  -V(xc)+E(xc)   XCENC  =       668.36243518
  PAW double counting   =     29644.26873334   -32351.34820906
  entropy T*S    EENTRO =        -0.01288484
  eigenvalues    EBANDS =     -1669.64593841
  atomic energy  EATOM  =     31564.52592125
  ---------------------------------------------------
  free energy    TOTEN  =       -38.61569827 eV

  energy without entropy =      -38.60281344  energy(sigma->0) =      -38.60925585
  exchange ACFDT corr.  =        -0.00460425  see jH, gK, PRB 81, 115126


--------------------------------------------------------------------------------------------------------




--------------------------------------- Iteration      1(  56)  ---------------------------------------


    POTLOK:  cpu time      0.0389: real time      0.0612
    SETDIJ:  cpu time      0.1863: real time      0.1875
    TRIAL :  cpu time    251.6111: real time    252.8553
    CORREC:  cpu time      0.0041: real time      0.0049
    CHARGE:  cpu time      0.0556: real time      0.1052
    --------------------------------------------
      LOOP:  cpu time    251.9187: real time    253.2408

 eigenvalue-minimisations  :     0
 total energy-change (2. order) : 0.6843572E+00  (-0.6228060E+01)
 number of electron     226.0001752 magnetization 
 augmentation part      138.4997994 magnetization 

 Free energy of the ion-electron system (eV)
  ---------------------------------------------------
  alpha Z        PSCENC =      2040.05594818
  Ewald energy   TEWEN  =    -21510.32988031
  -Hartree energ DENC   =     -9323.51201687
  -exchange      EXHF   =       887.13107737
  -V(xc)+E(xc)   XCENC  =       669.29740730
  PAW double counting   =     29675.55495058   -32376.36448428
  entropy T*S    EENTRO =        -0.01292451
  eigenvalues    EBANDS =     -1664.27733983
  atomic energy  EATOM  =     31564.52592125
  ---------------------------------------------------
  free energy    TOTEN  =       -37.93134111 eV

  energy without entropy =      -37.91841660  energy(sigma->0) =      -37.92487886
  exchange ACFDT corr.  =        -0.00660646  see jH, gK, PRB 81, 115126


--------------------------------------------------------------------------------------------------------




--------------------------------------- Iteration      1(  57)  ---------------------------------------


    POTLOK:  cpu time      0.0372: real time      0.0576
    SETDIJ:  cpu time      0.1865: real time      0.1883
    TRIAL :  cpu time    251.2977: real time    252.5844
    CORREC:  cpu time      0.0035: real time      0.0037
    CHARGE:  cpu time      0.0577: real time      0.1878
    --------------------------------------------
      LOOP:  cpu time    251.5986: real time    253.0477

 eigenvalue-minimisations  :     0
 total energy-change (2. order) : 0.5177497E+00  (-0.7301948E+01)
 number of electron     226.0001753 magnetization 
 augmentation part      139.0992638 magnetization 

 Free energy of the ion-electron system (eV)
  ---------------------------------------------------
  alpha Z        PSCENC =      2040.05594818
  Ewald energy   TEWEN  =    -21510.32988031
  -Hartree energ DENC   =     -9306.26259348
  -exchange      EXHF   =       884.40175483
  -V(xc)+E(xc)   XCENC  =       668.08635751
  PAW double counting   =     29636.58907902   -32345.78076553
  entropy T*S    EENTRO =        -0.01288150
  eigenvalues    EBANDS =     -1668.68653140
  atomic energy  EATOM  =     31564.52592125
  ---------------------------------------------------
  free energy    TOTEN  =       -37.41359143 eV

  energy without entropy =      -37.40070993  energy(sigma->0) =      -37.40715068
  exchange ACFDT corr.  =        -0.00462514  see jH, gK, PRB 81, 115126


--------------------------------------------------------------------------------------------------------




--------------------------------------- Iteration      1(  58)  ---------------------------------------


    POTLOK:  cpu time      0.0421: real time      0.0706
    SETDIJ:  cpu time      0.1871: real time      0.1883
    TRIAL :  cpu time    251.3195: real time    252.5382
    CORREC:  cpu time      0.0022: real time      0.0029
    CHARGE:  cpu time      0.0504: real time      0.1361
    --------------------------------------------
      LOOP:  cpu time    251.6225: real time    252.9587

 eigenvalue-minimisations  :     0
 total energy-change (2. order) :-0.6907044E+00  (-0.3952530E+01)
 number of electron     226.0001752 magnetization 
 augmentation part      138.6858505 magnetization 

 Free energy of the ion-electron system (eV)
  ---------------------------------------------------
  alpha Z        PSCENC =      2040.05594818
  Ewald energy   TEWEN  =    -21510.32988031
  -Hartree energ DENC   =     -9320.77147704
  -exchange      EXHF   =       887.10680852
  -V(xc)+E(xc)   XCENC  =       669.26866749
  PAW double counting   =     29673.06941375   -32373.14905560
  entropy T*S    EENTRO =        -0.01294997
  eigenvalues    EBANDS =     -1667.86769210
  atomic energy  EATOM  =     31564.52592125
  ---------------------------------------------------
  free energy    TOTEN  =       -38.10429582 eV

  energy without entropy =      -38.09134585  energy(sigma->0) =      -38.09782083
  exchange ACFDT corr.  =        -0.00791934  see jH, gK, PRB 81, 115126


--------------------------------------------------------------------------------------------------------




--------------------------------------- Iteration      1(  59)  ---------------------------------------


    POTLOK:  cpu time      0.0243: real time      0.0275
    SETDIJ:  cpu time      0.1857: real time      0.1864
    TRIAL :  cpu time    251.7734: real time    253.1501
    CORREC:  cpu time      0.0037: real time      0.0042
    CHARGE:  cpu time      0.0557: real time      0.1507
    --------------------------------------------
      LOOP:  cpu time    252.0672: real time    253.5504

 eigenvalue-minimisations  :     0
 total energy-change (2. order) :-0.8783461E+00  (-0.8920349E+00)
 number of electron     226.0001752 magnetization 
 augmentation part      138.8370188 magnetization 

 Free energy of the ion-electron system (eV)
  ---------------------------------------------------
  alpha Z        PSCENC =      2040.05594818
  Ewald energy   TEWEN  =    -21510.32988031
  -Hartree energ DENC   =     -9311.73491333
  -exchange      EXHF   =       885.33680506
  -V(xc)+E(xc)   XCENC  =       668.48146238
  PAW double counting   =     29647.54924389   -32354.82134353
  entropy T*S    EENTRO =        -0.01288339
  eigenvalues    EBANDS =     -1668.03300216
  atomic energy  EATOM  =     31564.52592125
  ---------------------------------------------------
  free energy    TOTEN  =       -38.98264194 eV

  energy without entropy =      -38.96975855  energy(sigma->0) =      -38.97620025
  exchange ACFDT corr.  =        -0.00456765  see jH, gK, PRB 81, 115126


--------------------------------------------------------------------------------------------------------




--------------------------------------- Iteration      1(  60)  ---------------------------------------


    POTLOK:  cpu time      0.0420: real time      0.0588
    SETDIJ:  cpu time      0.1869: real time      0.1885
    TRIAL :  cpu time    251.5147: real time    252.5940
    CORREC:  cpu time      0.0043: real time      0.0054
    CHARGE:  cpu time      0.0488: real time      0.0499
    --------------------------------------------
      LOOP:  cpu time    251.8226: real time    252.9253

 eigenvalue-minimisations  :     0
 total energy-change (2. order) :-0.3894742E+00  (-0.5834158E-02)
 number of electron     226.0001753 magnetization 
 augmentation part      138.8835029 magnetization 

 Free energy of the ion-electron system (eV)
  ---------------------------------------------------
  alpha Z        PSCENC =      2040.05594818
  Ewald energy   TEWEN  =    -21510.32988031
  -Hartree energ DENC   =     -9313.68261316
  -exchange      EXHF   =       886.03569214
  -V(xc)+E(xc)   XCENC  =       668.75265454
  PAW double counting   =     29656.11215326   -32359.64518404
  entropy T*S    EENTRO =        -0.01290023
  eigenvalues    EBANDS =     -1671.18390783
  atomic energy  EATOM  =     31564.52592125
  ---------------------------------------------------
  free energy    TOTEN  =       -39.37211618 eV

  energy without entropy =      -39.35921595  energy(sigma->0) =      -39.36566606
  exchange ACFDT corr.  =        -0.00555044  see jH, gK, PRB 81, 115126


--------------------------------------------------------------------------------------------------------




--------------------------------------- Iteration      1(  61)  ---------------------------------------


    POTLOK:  cpu time      0.0391: real time      0.0419
    SETDIJ:  cpu time      0.1866: real time      0.1875
    TRIAL :  cpu time    251.6504: real time    252.9508
    CORREC:  cpu time      0.0051: real time      0.0055
    CHARGE:  cpu time      0.0528: real time      0.0631
    --------------------------------------------
      LOOP:  cpu time    251.9562: real time    253.2724

 eigenvalue-minimisations  :     0
 total energy-change (2. order) : 0.2458629E-01  (-0.1377149E+00)
 number of electron     226.0001752 magnetization 
 augmentation part      138.7853271 magnetization 

 Free energy of the ion-electron system (eV)
  ---------------------------------------------------
  alpha Z        PSCENC =      2040.05594818
  Ewald energy   TEWEN  =    -21510.32988031
  -Hartree energ DENC   =     -9317.03451149
  -exchange      EXHF   =       886.24609596
  -V(xc)+E(xc)   XCENC  =       668.87334923
  PAW double counting   =     29659.81727541   -32364.10449315
  entropy T*S    EENTRO =        -0.01289689
  eigenvalues    EBANDS =     -1667.38433808
  atomic energy  EATOM  =     31564.52592125
  ---------------------------------------------------
  free energy    TOTEN  =       -39.34752988 eV

  energy without entropy =      -39.33463299  energy(sigma->0) =      -39.34108144
  exchange ACFDT corr.  =        -0.00465734  see jH, gK, PRB 81, 115126


--------------------------------------------------------------------------------------------------------




--------------------------------------- Iteration      1(  62)  ---------------------------------------


    POTLOK:  cpu time      0.0379: real time      0.0411
    SETDIJ:  cpu time      0.1865: real time      0.1875
    TRIAL :  cpu time    251.4767: real time    253.0231
    CORREC:  cpu time      0.0040: real time      0.0048
    CHARGE:  cpu time      0.0531: real time      0.0875
    --------------------------------------------
      LOOP:  cpu time    251.7792: real time    253.3674

 eigenvalue-minimisations  :     0
 total energy-change (2. order) :-0.2118371E-02  (-0.8577761E-01)
 number of electron     226.0001752 magnetization 
 augmentation part      138.8420442 magnetization 

 Free energy of the ion-electron system (eV)
  ---------------------------------------------------
  alpha Z        PSCENC =      2040.05594818
  Ewald energy   TEWEN  =    -21510.32988031
  -Hartree energ DENC   =     -9314.01763206
  -exchange      EXHF   =       885.81018043
  -V(xc)+E(xc)   XCENC  =       668.66448405
  PAW double counting   =     29653.80346680   -32358.86939740
  entropy T*S    EENTRO =        -0.01288764
  eigenvalues    EBANDS =     -1668.97985157
  atomic energy  EATOM  =     31564.52592125
  ---------------------------------------------------
  free energy    TOTEN  =       -39.34964825 eV

  energy without entropy =      -39.33676062  energy(sigma->0) =      -39.34320444
  exchange ACFDT corr.  =        -0.00449362  see jH, gK, PRB 81, 115126


--------------------------------------------------------------------------------------------------------




--------------------------------------- Iteration      1(  63)  ---------------------------------------


    POTLOK:  cpu time      0.0372: real time      0.0425
    SETDIJ:  cpu time      0.1874: real time      0.1888
