<?xml version="1.0" encoding="ISO-8859-1"?>
<modeling>
 <generator>
  <i name="program" type="string">vasp </i>
  <i name="version" type="string">6.5.1  </i>
  <i name="subversion" type="string">10Mar25 (build May 05 2025 13:45:00) complex                          parallel </i>
  <i name="platform" type="string">LinuxIFC </i>
  <i name="date" type="string">2026 04 28 </i>
  <i name="time" type="string">07:01:30 </i>
 </generator>
 <incar>
  <i type="string" name="PREC">Normal</i>
  <i type="string" name="ALGO">Damped</i>
  <i type="int" name="NELM">   100</i>
  <i type="int" name="IBRION">     2</i>
  <i name="EDIFF">      0.00000010</i>
  <i name="EDIFFG">     -0.00500000</i>
  <i type="int" name="NSW">   300</i>
  <i type="int" name="ISIF">     3</i>
  <i name="ENCUT">    400.00000000</i>
  <i type="logical" name="LREAL"> F  </i>
  <i name="TIME">      0.40000000</i>
  <i type="int" name="ISMEAR">     0</i>
  <i name="SIGMA">      0.10000000</i>
  <i type="logical" name="LWAVE"> T  </i>
  <i type="logical" name="LCHARG"> F  </i>
  <i type="int" name="LORBIT">    10</i>
  <i type="logical" name="LASPH"> T  </i>
  <i name="HFSCREEN">      0.20000000</i>
  <i type="logical" name="LHFCALC"> T  </i>
  <i name="AEXX">      0.36000000</i>
  <i type="string" name="PRECFOCK">Fast</i>
 </incar>
 <primitive_cell>
  <structure name="primitive_cell" >
   <crystal>
    <varray name="basis" >
     <v>       4.47638572       2.58444250       4.35462342 </v>
     <v>      -4.47638572       2.58444250       4.35462342 </v>
     <v>       0.00000000      -5.16888500       4.35462342 </v>
    </varray>
    <i name="volume">    302.27082347 </i>
    <varray name="rec_basis" >
     <v>       0.11169726       0.06448844       0.07654699 </v>
     <v>      -0.11169726       0.06448844       0.07654699 </v>
     <v>      -0.00000000      -0.12897688       0.07654699 </v>
    </varray>
   </crystal>
   <varray name="positions" >
    <v>       0.66362530       0.66362530       0.66362530 </v>
    <v>       0.33637470       0.33637470       0.33637470 </v>
    <v>       0.34938540       0.34938540       0.83919703 </v>
    <v>       0.34938540       0.83919703       0.34938540 </v>
    <v>       0.09878719       0.09878719       0.09878719 </v>
    <v>       0.90121281       0.90121281       0.90121281 </v>
    <v>       0.00000000       0.00000000       0.50000000 </v>
    <v>       0.50000000       1.00000000       0.00000000 </v>
    <v>       1.00000000       0.50000000       0.00000000 </v>
    <v>       0.70798755       0.29201245       0.00000000 </v>
    <v>       1.00000000       0.70798755       0.29201245 </v>
    <v>       0.29201245       1.00000000       0.70798755 </v>
    <v>       0.29201245       0.70798755       0.00000000 </v>
    <v>       1.00000000       0.29201245       0.70798755 </v>
    <v>       0.70798755       1.00000000       0.29201245 </v>
    <v>       0.65061460       0.16080297       0.65061460 </v>
    <v>       0.65061460       0.65061460       0.16080297 </v>
    <v>       0.16080297       0.65061460       0.65061460 </v>
    <v>       0.83919703       0.34938540       0.34938540 </v>
   </varray>
  </structure>
  <varray name="primitive_index" >
   <v type="int" >        1 </v>
   <v type="int" >        2 </v>
   <v type="int" >        3 </v>
   <v type="int" >        4 </v>
   <v type="int" >        5 </v>
   <v type="int" >        6 </v>
   <v type="int" >        7 </v>
   <v type="int" >        8 </v>
   <v type="int" >        9 </v>
   <v type="int" >       10 </v>
   <v type="int" >       11 </v>
   <v type="int" >       12 </v>
   <v type="int" >       13 </v>
   <v type="int" >       14 </v>
   <v type="int" >       15 </v>
   <v type="int" >       16 </v>
   <v type="int" >       17 </v>
   <v type="int" >       18 </v>
   <v type="int" >       19 </v>
  </varray>
 </primitive_cell>
 <kpoints>
  <generation param="Gamma">
   <v type="int" name="divisions">       5        5        5 </v>
   <v name="usershift">      0.00000000       0.00000000       0.00000000 </v>
   <v name="genvec1">      0.20000000      -0.00000000      -0.00000000 </v>
   <v name="genvec2">     -0.00000000       0.20000000      -0.00000000 </v>
   <v name="genvec3">      0.00000000       0.00000000       0.20000000 </v>
   <v name="shift">      0.00000000       0.00000000       0.00000000 </v>
  </generation>
  <varray name="kpointlist" >
   <v>       0.00000000       0.00000000       0.00000000 </v>
   <v>       0.20000000      -0.00000000       0.00000000 </v>
   <v>       0.40000000      -0.00000000       0.00000000 </v>
   <v>       0.20000000       0.20000000       0.00000000 </v>
   <v>       0.40000000       0.20000000       0.00000000 </v>
   <v>      -0.40000000       0.20000000       0.00000000 </v>
   <v>      -0.20000000       0.20000000      -0.00000000 </v>
   <v>       0.40000000       0.40000000       0.00000000 </v>
   <v>      -0.40000000       0.40000000       0.00000000 </v>
   <v>       0.20000000       0.20000000       0.20000000 </v>
   <v>       0.40000000       0.20000000       0.20000000 </v>
   <v>      -0.40000000       0.20000000       0.20000000 </v>
   <v>      -0.20000000       0.20000000       0.20000000 </v>
   <v>       0.40000000       0.40000000       0.20000000 </v>
   <v>      -0.40000000       0.40000000       0.20000000 </v>
   <v>      -0.20000000       0.40000000       0.20000000 </v>
   <v>      -0.40000000      -0.40000000       0.20000000 </v>
   <v>       0.40000000       0.40000000       0.40000000 </v>
   <v>      -0.40000000       0.40000000       0.40000000 </v>
  </varray>
  <varray name="weights" >
   <v>       0.00800000 </v>
   <v>       0.04800000 </v>
   <v>       0.04800000 </v>
   <v>       0.04800000 </v>
   <v>       0.09600000 </v>
   <v>       0.09600000 </v>
   <v>       0.04800000 </v>
   <v>       0.04800000 </v>
   <v>       0.04800000 </v>
   <v>       0.01600000 </v>
   <v>       0.04800000 </v>
   <v>       0.04800000 </v>
   <v>       0.04800000 </v>
   <v>       0.04800000 </v>
   <v>       0.09600000 </v>
   <v>       0.09600000 </v>
   <v>       0.04800000 </v>
   <v>       0.01600000 </v>
   <v>       0.04800000 </v>
  </varray>
 </kpoints>
 <parameters>
  <separator name="general" >
   <i type="string" name="SYSTEM">unknown system</i>
   <i type="logical" name="LCOMPAT"> F  </i>
  </separator>
  <separator name="electronic" >
   <i type="string" name="PREC">normal</i>
   <i name="ENMAX">    400.00000000</i>
   <i name="ENAUG">    575.89200000</i>
   <i name="EDIFF">      0.00000010</i>
   <i type="int" name="IALGO">    53</i>
   <i type="int" name="IWAVPR">    11</i>
   <i type="int" name="NBANDS">   140</i>
   <i type="int" name="NBANDSLOW">    -1</i>
   <i type="int" name="NBANDSHIGH">    -1</i>
   <i name="NELECT">    226.00000000</i>
   <i type="int" name="TURBO">     0</i>
   <i type="int" name="IRESTART">     0</i>
   <i type="int" name="NREBOOT">     0</i>
   <i type="int" name="NMIN">     0</i>
   <i name="EREF">      0.00000000</i>
   <separator name="electronic smearing" >
    <i type="int" name="ISMEAR">     0</i>
    <i name="SIGMA">      0.10000000</i>
    <i name="KSPACING">      0.50000000</i>
    <i type="logical" name="KGAMMA"> T  </i>
    <i type="logical" name="KBLOWUP"> T  </i>
   </separator>
   <separator name="electronic projectors" >
    <i type="logical" name="LREAL"> F  </i>
    <v name="ROPT">      0.00000000      0.00000000</v>
    <i type="int" name="LMAXPAW">  -100</i>
    <i type="int" name="LMAXMIX">     2</i>
    <i type="logical" name="NLSPLINE"> F  </i>
   </separator>
   <separator name="electronic startup" >
    <i type="int" name="ISTART">     0</i>
    <i type="int" name="ICHARG">     2</i>
    <i type="int" name="INIWAV">     1</i>
   </separator>
   <separator name="electronic spin" >
    <i type="int" name="ISPIN">     1</i>
    <i type="logical" name="LNONCOLLINEAR"> F  </i>
    <v name="MAGMOM">      1.00000000      1.00000000      1.00000000      1.00000000      1.00000000      1.00000000      1.00000000      1.00000000      1.00000000      1.00000000      1.00000000      1.00000000      1.00000000      1.00000000      1.00000000      1.00000000      1.00000000      1.00000000      1.00000000</v>
    <i name="NUPDOWN">     -1.00000000</i>
    <i type="logical" name="LSORBIT"> F  </i>
    <v name="SAXIS">      0.00000000      0.00000000      1.00000000</v>
    <i type="logical" name="LSPIRAL"> F  </i>
    <v name="QSPIRAL">      0.00000000      0.00000000      0.00000000</v>
    <i type="logical" name="LZEROZ"> F  </i>
   </separator>
   <separator name="electronic exchange-correlation" >
    <i type="logical" name="LASPH"> T  </i>
   </separator>
   <separator name="electronic convergence" >
    <i type="int" name="NELM">   100</i>
    <i type="int" name="NELMDL">    -5</i>
    <i type="int" name="NELMIN">     2</i>
    <i name="ENINI">    400.00000000</i>
    <separator name="electronic convergence detail" >
     <i type="logical" name="LDIAG"> T  </i>
     <i type="logical" name="LSUBROT"> F  </i>
     <i type="logical" name="LROBUST"> F  </i>
     <i type="int" name="ISEARCH">     0</i>
     <i name="WEIMIN">      0.00100000</i>
     <i name="EBREAK">      0.00000000</i>
     <i name="DEPER">      0.30000000</i>
     <i type="int" name="NRMM">     4</i>
     <i name="TIME">      0.40000000</i>
    </separator>
   </separator>
   <separator name="electronic mixer" >
    <i name="AMIX">      0.40000000</i>
    <i name="BMIX">      1.00000000</i>
    <i name="AMIN">      0.10000000</i>
    <i name="AMIX_MAG">      1.60000000</i>
    <i name="BMIX_MAG">      1.00000000</i>
    <separator name="electronic mixer details" >
     <i type="int" name="IMIX">     4</i>
     <i type="logical" name="MIXFIRST"> F  </i>
     <i type="int" name="MAXMIX">   -45</i>
     <i name="WC">    100.00000000</i>
     <i type="int" name="INIMIX">     1</i>
     <i type="int" name="MIXPRE">     1</i>
     <i type="int" name="MREMOVE">     5</i>
    </separator>
   </separator>
   <separator name="electronic dipolcorrection" >
    <i type="logical" name="LDIPOL"> F  </i>
    <i type="logical" name="LMONO"> F  </i>
    <i type="int" name="IDIPOL">     0</i>
    <i name="EPSILON">      1.00000000</i>
    <v name="DIPOL">   -100.00000000   -100.00000000   -100.00000000</v>
    <i name="EFIELD">      0.00000000</i>
    <i type="logical" name="LVACPOTAV"> F  </i>
   </separator>
  </separator>
  <separator name="grids" >
   <i type="int" name="NGX">    36</i>
   <i type="int" name="NGY">    36</i>
   <i type="int" name="NGZ">    36</i>
   <i type="int" name="NGXF">    72</i>
   <i type="int" name="NGYF">    72</i>
   <i type="int" name="NGZF">    72</i>
   <i type="logical" name="ADDGRID"> F  </i>
  </separator>
  <separator name="ionic" >
   <i type="int" name="NSW">   300</i>
   <i type="int" name="IBRION">     2</i>
   <i type="int" name="MDALGO">     0</i>
   <i type="int" name="ISIF">     3</i>
   <i name="PSTRESS">      0.00000000</i>
   <i name="EDIFFG">     -0.00500000</i>
   <i type="int" name="NFREE">     1</i>
   <i name="POTIM">      0.50000000</i>
   <i name="SMASS">     -3.00000000</i>
   <i name="SCALEE">      1.00000000</i>
  </separator>
  <separator name="ionic md" >
   <i name="TEBEG">      0.00010000</i>
   <i name="TEEND">      0.00010000</i>
   <i type="int" name="NBLOCK">     1</i>
   <i type="int" name="KBLOCK">   300</i>
   <i type="int" name="NPACO">   256</i>
   <i name="APACO">     10.00000000</i>
  </separator>
  <separator name="symmetry" >
   <i type="int" name="ISYM">     3</i>
   <i name="SYMPREC">      0.00001000</i>
  </separator>
  <separator name="dos" >
   <i type="int" name="LORBIT">    10</i>
   <v name="RWIGS">     -1.00000000     -1.00000000</v>
   <i type="int" name="NEDOS">   301</i>
   <i name="EMIN">     10.00000000</i>
   <i name="EMAX">    -10.00000000</i>
   <i name="EFERMI">      0.00000000</i>
  </separator>
  <separator name="writing" >
   <i type="int" name="NWRITE">     2</i>
   <i type="logical" name="LWAVE"> T  </i>
   <i type="logical" name="LDOWNSAMPLE"> F  </i>
   <i type="logical" name="LCHARG"> F  </i>
   <i type="logical" name="LPARD"> F  </i>
   <i type="logical" name="LVTOT"> F  </i>
   <i type="logical" name="LVHAR"> F  </i>
   <i type="logical" name="LELF"> F  </i>
   <i type="logical" name="LOPTICS"> F  </i>
   <v name="STM">      0.00000000      0.00000000      0.00000000      0.00000000      0.00000000      0.00000000      0.00000000</v>
  </separator>
  <separator name="performance" >
   <i type="int" name="NPAR">    28</i>
   <i type="int" name="NSIM">     4</i>
   <i type="int" name="NBLK">    -1</i>
   <i type="logical" name="LPLANE"> T  </i>
   <i type="logical" name="LSCALAPACK"> T  </i>
   <i type="logical" name="LSCAAWARE"> F  </i>
   <i type="logical" name="LSCALU"> F  </i>
   <i type="logical" name="LASYNC"> F  </i>
   <i type="logical" name="LORBITALREAL"> F  </i>
  </separator>
  <separator name="miscellaneous" >
   <i type="int" name="IDIOT">     3</i>
   <i type="int" name="PHON_NSTRUCT">    -1</i>
   <i type="logical" name="LMUSIC"> F  </i>
   <v name="POMASS">    144.24000000     65.39000000</v>
   <v name="DARWINR">      0.00000000      0.00000000</v>
   <v name="DARWINV">      1.00000000      1.00000000</v>
   <i type="logical" name="LCORR"> T  </i>
  </separator>
  <i type="logical" name="GGA_COMPAT"> T  </i>
  <i type="logical" name="LBERRY"> F  </i>
  <i type="int" name="ICORELEVEL">     0</i>
  <i type="logical" name="LDAU"> F  </i>
  <i type="int" name="I_CONSTRAINED_M">     0</i>
  <separator name="electronic exchange-correlation" >
   <i type="string" name="GGA    ">PE</i>
   <i type="string" name="XC_C">1</i>
   <i type="int" name="VOSKOWN">     0</i>
   <i type="logical" name="LHFCALC"> T  </i>
   <i type="string" name="PRECFOCK">fast</i>
   <i type="logical" name="LSYMGRAD"> F  </i>
   <i type="logical" name="LHFONE"> F  </i>
   <i type="logical" name="LRHFCALC"> F  </i>
   <i type="logical" name="LTHOMAS"> F  </i>
   <i type="logical" name="LMODELHF"> F  </i>
   <i type="logical" name="LFOCKACE"> T  </i>
   <i name="ENCUT4O">     -1.00000000</i>
   <i type="int" name="EXXOEP">     0</i>
   <i type="int" name="FOURORBIT">     0</i>
   <i name="AEXX">      0.36000000</i>
   <i name="HFALPHA">     -1.00000000</i>
   <i name="MCALPHA">      0.00000000</i>
   <i name="ALDAX">      0.64000000</i>
   <i name="AGGAX">      0.64000000</i>
   <i name="AMGGAX">      0.64000000</i>
   <i name="ALDAC">      1.00000000</i>
   <i name="AGGAC">      1.00000000</i>
   <i name="AMGGAC">      1.00000000</i>
   <i type="int" name="NKREDX">     1</i>
   <i type="int" name="NKREDY">     1</i>
   <i type="int" name="NKREDZ">     1</i>
   <i type="logical" name="SHIFTRED"> F  </i>
   <i type="logical" name="ODDONLY"> F  </i>
   <i type="logical" name="EVENONLY"> F  </i>
   <i type="int" name="LMAXFOCK">     4</i>
   <i type="int" name="NMAXFOCKAE">     1</i>
   <i type="logical" name="LFOCKAEDFT"> F  </i>
   <i name="HFSCREEN">      0.20000000</i>
   <i name="HFSCREENC">      0.20000000</i>
   <i type="int" name="NBANDSGWLOW">     1</i>
  </separator>
  <separator name="vdW DFT" >
   <i type="logical" name="LUSE_VDW"> F  </i>
   <i type="int" name="IVDW_NL">    -1</i>
   <i type="logical" name="LSPIN_VDW"> F  </i>
   <i name="ZAB_VDW">     -0.84910000</i>
   <i name="GAMMA_VDW">      1.39626340</i>
   <i name="ALPHA_VDW">      0.00000000</i>
   <i name="PARAM1">      0.12340000</i>
   <i name="PARAM2">      1.00000000</i>
   <i name="BPARAM">      6.30000000</i>
   <i name="CPARAM">      0.00930000</i>
  </separator>
  <separator name="model GW" >
   <i type="int" name="MODEL_GW">     0</i>
   <i name="MODEL_EPS0">      9.54539443</i>
   <i name="MODEL_ALPHA">      1.00000000</i>
  </separator>
  <separator name="linear response parameters" >
   <i type="logical" name="LEPSILON"> F  </i>
   <i type="logical" name="LRPA"> F  </i>
   <i type="logical" name="LNABLA"> F  </i>
   <i type="logical" name="LVEL"> F  </i>
   <i name="CSHIFT">      0.10000000</i>
   <i name="OMEGAMAX">     -1.00000000</i>
   <i name="DEG_THRESHOLD">      0.00200000</i>
   <i name="RTIME">     -0.10000000</i>
   <i name="WPLASMAI">      0.00000000</i>
   <v name="DFIELD">      0.00000000      0.00000000      0.00000000</v>
   <v name="WPLASMA">      0.00000000      0.00000000      0.00000000      0.00000000      0.00000000      0.00000000      0.00000000      0.00000000      0.00000000</v>
  </separator>
  <separator name="orbital magnetization" >
   <i type="logical" name="NUCIND"> F  </i>
   <v name="MAGPOS">      0.00000000      0.00000000      0.00000000</v>
   <i type="logical" name="LNICSALL"> T  </i>
   <i type="logical" name="ORBITALMAG"> F  </i>
   <i type="logical" name="LMAGBLOCH"> F  </i>
   <i type="logical" name="LCHIMAG"> F  </i>
   <i type="logical" name="LGAUGE"> T  </i>
   <i type="int" name="MAGATOM">     0</i>
   <v name="MAGDIPOL">      0.00000000      0.00000000      0.00000000</v>
   <v name="AVECCONST">      0.00000000      0.00000000      0.00000000</v>
  </separator>
  <separator name="response functions" >
   <i type="logical" name="LALL_IN_ONE"> F  </i>
   <i type="int" name="IALL_IN_ONE">    -1</i>
   <i type="int" name="NBANDS_WAVE">    -1</i>
   <i type="logical" name="LFINITE_TEMPERATURE"> F  </i>
   <i type="logical" name="LADDER"> F  </i>
   <i type="logical" name="LRPAFORCE"> F  </i>
   <i type="logical" name="LFXC"> F  </i>
   <i type="logical" name="LHARTREE"> T  </i>
   <i type="int" name="IBSE">     2</i>
   <v type="int" name="KPOINT">    -1     0     0     0</v>
   <i type="logical" name="LTCTC"> F  </i>
   <i type="logical" name="LTCTE"> F  </i>
   <i type="logical" name="LTETE"> F  </i>
   <i type="logical" name="LTRIPLET"> F  </i>
   <i type="logical" name="LFXCEPS"> F  </i>
   <i type="logical" name="LFXHEG"> F  </i>
   <i type="int" name="NATURALO">     2</i>
   <i type="logical" name="LHOLEGF"> F  </i>
   <i type="logical" name="L2ORDER"> F  </i>
   <i type="logical" name="LDMP1"> F  </i>
   <i type="logical" name="LMP2LT"> F  </i>
   <i type="logical" name="LSMP2LT"> F  </i>
   <i type="logical" name="LGWLF"> F  </i>
   <i name="ENCUTGW">     -1.60000002</i>
   <i name="ENCUTGWSOFT">     -1.60000002</i>
   <i name="ENCUTLF">     -1.00000000</i>
   <i type="logical" name="ESF_SPLINES"> F  </i>
   <i name="ESF_CONV">      0.01000000</i>
   <i type="int" name="ESF_NINTER">    15</i>
   <i type="int" name="LMAXMP2">    -1</i>
   <i name="SCISSOR">      0.00000000</i>
   <i type="int" name="NOMEGA">     0</i>
   <i type="int" name="NOMEGAR">     0</i>
   <i type="int" name="NBANDSGW">    -1</i>
   <i type="int" name="NBANDSO">    -1</i>
   <i type="int" name="NBANDSV">    -1</i>
   <i type="int" name="NELMGW">     1</i>
   <i type="int" name="NELMHF">     1</i>
   <i type="int" name="DIM">     3</i>
   <i type="int" name="IESPILON">     4</i>
   <i type="int" name="ANTIRES">     0</i>
   <i name="OMEGAMAX">    -30.00000000</i>
   <i name="OMEGAMIN">    -30.00000000</i>
   <i name="OMEGATL">   -200.00000000</i>
   <i type="int" name="OMEGAGRID">     0</i>
   <i name="CSHIFT">     -0.10000000</i>
   <i type="logical" name="LSELFENERGY"> F  </i>
   <i type="logical" name="LSPECTRAL"> F  </i>
   <i type="logical" name="LSPECTRALGW"> F  </i>
   <i type="logical" name="LSINGLES"> F  </i>
   <i type="logical" name="LFERMIGW"> F  </i>
   <i type="logical" name="ODDONLYGW"> F  </i>
   <i type="logical" name="EVENONLYGW"> F  </i>
   <i type="int" name="NKREDLFX">     1</i>
   <i type="int" name="NKREDLFY">     1</i>
   <i type="int" name="NKREDLFZ">     1</i>
   <i type="int" name="MAXMEM">  2800</i>
   <i type="int" name="TELESCOPE">     0</i>
   <i type="int" name="NTAUPAR">    -1</i>
   <i type="int" name="NOMEGAPAR">    -1</i>
   <i name="DAMP_NEWTON">      0.80000001</i>
   <i name="LAMBDA">      1.00000000</i>
  </separator>
  <separator name="External order field" >
   <i name="OFIELD_KAPPA">      0.00000000</i>
   <v name="OFIELD_K">      0.00000000      0.00000000      0.00000000</v>
   <i name="OFIELD_Q6_NEAR">      0.00000000</i>
   <i name="OFIELD_Q6_FAR">      0.00000000</i>
   <i name="OFIELD_A">      0.00000000</i>
  </separator>
  <separator name="optional k-points parameters" >
   <i type="int" name="KPOINTS_OPT_MODE">     1</i>
   <i type="logical" name="LKPOINTS_OPT"> F  </i>
  </separator>
 </parameters>
 <atominfo>
  <atoms>      19 </atoms>
  <types>       2 </types>
  <array name="atoms" >
   <dimension dim="1">ion</dimension>
   <field type="string">element</field>
   <field type="int">atomtype</field>
   <set>
    <rc><c>Nd</c><c>   1</c></rc>
    <rc><c>Nd</c><c>   1</c></rc>
    <rc><c>Zn</c><c>   2</c></rc>
    <rc><c>Zn</c><c>   2</c></rc>
    <rc><c>Zn</c><c>   2</c></rc>
    <rc><c>Zn</c><c>   2</c></rc>
    <rc><c>Zn</c><c>   2</c></rc>
    <rc><c>Zn</c><c>   2</c></rc>
    <rc><c>Zn</c><c>   2</c></rc>
    <rc><c>Zn</c><c>   2</c></rc>
    <rc><c>Zn</c><c>   2</c></rc>
    <rc><c>Zn</c><c>   2</c></rc>
    <rc><c>Zn</c><c>   2</c></rc>
    <rc><c>Zn</c><c>   2</c></rc>
    <rc><c>Zn</c><c>   2</c></rc>
    <rc><c>Zn</c><c>   2</c></rc>
    <rc><c>Zn</c><c>   2</c></rc>
    <rc><c>Zn</c><c>   2</c></rc>
    <rc><c>Zn</c><c>   2</c></rc>
   </set>
  </array>
  <array name="atomtypes" >
   <dimension dim="1">type</dimension>
   <field type="int">atomspertype</field>
   <field type="string">element</field>
   <field>mass</field>
   <field>valence</field>
   <field type="string">pseudopotential</field>
   <set>
    <rc><c>   2</c><c>Nd</c><c>    144.24000000</c><c>     11.00000000</c><c>  PAW_PBE Nd_3 06Sep2000                </c></rc>
    <rc><c>  17</c><c>Zn</c><c>     65.39000000</c><c>     12.00000000</c><c>  PAW_PBE Zn 06Sep2000                  </c></rc>
   </set>
  </array>
 </atominfo>
 <structure name="initialpos" >
  <crystal>
   <varray name="basis" >
    <v>       4.47638572       2.58444250       4.35462342 </v>
    <v>      -4.47638572       2.58444250       4.35462342 </v>
    <v>       0.00000000      -5.16888500       4.35462342 </v>
   </varray>
   <i name="volume">    302.27082347 </i>
   <varray name="rec_basis" >
    <v>       0.11169726       0.06448844       0.07654699 </v>
    <v>      -0.11169726       0.06448844       0.07654699 </v>
    <v>      -0.00000000      -0.12897688       0.07654699 </v>
   </varray>
  </crystal>
  <varray name="positions" >
   <v>       0.66362530       0.66362530       0.66362530 </v>
   <v>       0.33637470       0.33637470       0.33637470 </v>
   <v>       0.34938540       0.34938540       0.83919703 </v>
   <v>       0.34938540       0.83919703       0.34938540 </v>
   <v>       0.09878719       0.09878719       0.09878719 </v>
   <v>       0.90121281       0.90121281       0.90121281 </v>
   <v>       0.00000000       0.00000000       0.50000000 </v>
   <v>       0.50000000       0.00000000       0.00000000 </v>
   <v>       0.00000000       0.50000000       0.00000000 </v>
   <v>       0.70798755       0.29201245       0.00000000 </v>
   <v>       0.00000000       0.70798755       0.29201245 </v>
   <v>       0.29201245       0.00000000       0.70798755 </v>
   <v>       0.29201245       0.70798755       0.00000000 </v>
   <v>       0.00000000       0.29201245       0.70798755 </v>
   <v>       0.70798755       0.00000000       0.29201245 </v>
   <v>       0.65061460       0.16080297       0.65061460 </v>
   <v>       0.65061460       0.65061460       0.16080297 </v>
   <v>       0.16080297       0.65061460       0.65061460 </v>
   <v>       0.83919703       0.34938540       0.34938540 </v>
  </varray>
 </structure>
 <calculation>
  <scstep>
   <time name="total">    0.61    0.88</time>
   <energy>
    <i name="alphaZ">   2040.05594818 </i>
    <i name="ewald"> -21510.32988031 </i>
    <i name="hartreedc">  -9469.89787933 </i>
    <i name="XCdc">   1030.00706744 </i>
    <i name="pawpsdc">  26179.67445001 </i>
    <i name="pawaedc"> -42535.42018954 </i>
    <i name="eentropy">     -0.00797353 </i>
    <i name="bandstr">    420.95112218 </i>
    <i name="atom">  31564.52592125 </i>
    <i name="e_fr_energy"> -12280.44141364 </i>
    <i name="e_wo_entrp"> -12280.43344011 </i>
    <i name="e_0_energy"> -12280.43742688 </i>
   </energy>
  </scstep>
  <scstep>
   <time name="total">    0.54    0.55</time>
   <energy>
    <i name="e_fr_energy"> -14008.16239572 </i>
    <i name="e_wo_entrp"> -14008.14462898 </i>
    <i name="e_0_energy"> -14008.15351235 </i>
   </energy>
  </scstep>
  <scstep>
   <time name="total">    0.55    0.57</time>
   <energy>
    <i name="e_fr_energy"> -14480.87059761 </i>
    <i name="e_wo_entrp"> -14480.83712667 </i>
    <i name="e_0_energy"> -14480.85386214 </i>
   </energy>
  </scstep>
  <scstep>
   <time name="total">    0.76    0.77</time>
   <energy>
    <i name="e_fr_energy"> -14586.93191489 </i>
    <i name="e_wo_entrp"> -14586.91613103 </i>
    <i name="e_0_energy"> -14586.92402296 </i>
   </energy>
  </scstep>
  <scstep>
   <time name="total">  253.42  254.52</time>
   <energy>
    <i name="e_fr_energy">    -32.85257654 </i>
    <i name="e_wo_entrp">    -32.83815397 </i>
    <i name="e_0_energy">    -32.84536526 </i>
   </energy>
  </scstep>
  <scstep>
   <time name="total">  252.95  254.61</time>
   <energy>
    <i name="e_fr_energy">    -28.26068091 </i>
    <i name="e_wo_entrp">    -28.24625833 </i>
    <i name="e_0_energy">    -28.25346962 </i>
   </energy>
  </scstep>
  <scstep>
   <time name="total">  251.49  253.02</time>
   <energy>
    <i name="e_fr_energy">    -36.62559671 </i>
    <i name="e_wo_entrp">    -36.60979982 </i>
    <i name="e_0_energy">    -36.61769826 </i>
   </energy>
  </scstep>
  <scstep>
   <time name="total">  252.26  253.51</time>
   <energy>
    <i name="e_fr_energy">    -38.21818103 </i>
    <i name="e_wo_entrp">    -38.20490346 </i>
    <i name="e_0_energy">    -38.21154225 </i>
   </energy>
  </scstep>
  <scstep>
   <time name="total">  251.70  253.07</time>
   <energy>
    <i name="e_fr_energy">    -38.93840478 </i>
    <i name="e_wo_entrp">    -38.92538519 </i>
    <i name="e_0_energy">    -38.93189499 </i>
   </energy>
  </scstep>
  <scstep>
   <time name="total">  251.50  252.69</time>
   <energy>
    <i name="e_fr_energy">    -39.13123221 </i>
    <i name="e_wo_entrp">    -39.11816145 </i>
    <i name="e_0_energy">    -39.12469683 </i>
   </energy>
  </scstep>
  <scstep>
   <time name="total">  252.00  253.20</time>
   <energy>
    <i name="e_fr_energy">    -39.26604069 </i>
    <i name="e_wo_entrp">    -39.25312932 </i>
    <i name="e_0_energy">    -39.25958501 </i>
   </energy>
  </scstep>
  <scstep>
   <time name="total">  251.68  253.08</time>
   <energy>
    <i name="e_fr_energy">    -39.32708364 </i>
    <i name="e_wo_entrp">    -39.31423585 </i>
    <i name="e_0_energy">    -39.32065974 </i>
   </energy>
  </scstep>
  <scstep>
   <time name="total">  251.76  253.03</time>
   <energy>
    <i name="e_fr_energy">    -39.35149674 </i>
    <i name="e_wo_entrp">    -39.33860284 </i>
    <i name="e_0_energy">    -39.34504979 </i>
   </energy>
  </scstep>
  <scstep>
   <time name="total">  251.73  252.90</time>
   <energy>
    <i name="e_fr_energy">    -39.36659210 </i>
    <i name="e_wo_entrp">    -39.35364814 </i>
    <i name="e_0_energy">    -39.36012012 </i>
   </energy>
  </scstep>
  <scstep>
   <time name="total">  251.63  252.74</time>
   <energy>
    <i name="e_fr_energy">    -39.37300401 </i>
    <i name="e_wo_entrp">    -39.36006459 </i>
    <i name="e_0_energy">    -39.36653430 </i>
   </energy>
  </scstep>
  <scstep>
   <time name="total">  252.13  253.39</time>
   <energy>
    <i name="e_fr_energy">    -39.37713492 </i>
    <i name="e_wo_entrp">    -39.36422214 </i>
    <i name="e_0_energy">    -39.37067853 </i>
   </energy>
  </scstep>
  <scstep>
   <time name="total">  251.92  253.16</time>
   <energy>
    <i name="e_fr_energy">    -39.37930972 </i>
    <i name="e_wo_entrp">    -39.36640975 </i>
    <i name="e_0_energy">    -39.37285973 </i>
   </energy>
  </scstep>
  <scstep>
   <time name="total">  252.21  253.39</time>
   <energy>
    <i name="e_fr_energy">    -39.38068011 </i>
    <i name="e_wo_entrp">    -39.36777944 </i>
    <i name="e_0_energy">    -39.37422978 </i>
   </energy>
  </scstep>
  <scstep>
   <time name="total">  251.42  252.64</time>
   <energy>
    <i name="e_fr_energy">    -39.38148604 </i>
    <i name="e_wo_entrp">    -39.36858424 </i>
    <i name="e_0_energy">    -39.37503514 </i>
   </energy>
  </scstep>
  <scstep>
   <time name="total">  251.68  253.13</time>
   <energy>
    <i name="e_fr_energy">    -39.38200670 </i>
    <i name="e_wo_entrp">    -39.36910720 </i>
    <i name="e_0_energy">    -39.37555695 </i>
   </energy>
  </scstep>
  <scstep>
   <time name="total">  252.00  253.09</time>
   <energy>
    <i name="e_fr_energy">    -39.38235845 </i>
    <i name="e_wo_entrp">    -39.36946169 </i>
    <i name="e_0_energy">    -39.37591007 </i>
   </energy>
  </scstep>
  <scstep>
   <time name="total">  251.74  252.91</time>
   <energy>
    <i name="e_fr_energy">    -39.38260400 </i>
    <i name="e_wo_entrp">    -39.36970846 </i>
    <i name="e_0_energy">    -39.37615623 </i>
   </energy>
  </scstep>
  <scstep>
   <time name="total">  251.57  252.72</time>
   <energy>
    <i name="e_fr_energy">    -39.38277855 </i>
    <i name="e_wo_entrp">    -39.36988329 </i>
    <i name="e_0_energy">    -39.37633092 </i>
   </energy>
  </scstep>
  <scstep>
   <time name="total">  251.96  253.15</time>
   <energy>
    <i name="e_fr_energy">    -39.38290367 </i>
    <i name="e_wo_entrp">    -39.37000866 </i>
    <i name="e_0_energy">    -39.37645617 </i>
   </energy>
  </scstep>
  <scstep>
   <time name="total">  251.41  252.66</time>
   <energy>
    <i name="e_fr_energy">    -39.38299357 </i>
    <i name="e_wo_entrp">    -39.37009896 </i>
    <i name="e_0_energy">    -39.37654627 </i>
   </energy>
  </scstep>
  <scstep>
   <time name="total">  252.12  253.29</time>
   <energy>
    <i name="e_fr_energy">    -39.38305874 </i>
    <i name="e_wo_entrp">    -39.37016446 </i>
    <i name="e_0_energy">    -39.37661160 </i>
   </energy>
  </scstep>
  <scstep>
   <time name="total">  251.64  252.83</time>
   <energy>
    <i name="e_fr_energy">    -39.38310651 </i>
    <i name="e_wo_entrp">    -39.37021244 </i>
    <i name="e_0_energy">    -39.37665948 </i>
   </energy>
  </scstep>
  <scstep>
   <time name="total">  251.84  252.93</time>
   <energy>
    <i name="e_fr_energy">    -39.38314191 </i>
    <i name="e_wo_entrp">    -39.37024794 </i>
    <i name="e_0_energy">    -39.37669493 </i>
   </energy>
  </scstep>
  <scstep>
   <time name="total">  251.97  253.29</time>
   <energy>
    <i name="e_fr_energy">    -39.38316853 </i>
    <i name="e_wo_entrp">    -39.37027467 </i>
    <i name="e_0_energy">    -39.37672160 </i>
   </energy>
  </scstep>
  <scstep>
   <time name="total">  251.63  252.83</time>
   <energy>
    <i name="e_fr_energy">    -39.38318910 </i>
    <i name="e_wo_entrp">    -39.37029532 </i>
    <i name="e_0_energy">    -39.37674221 </i>
   </energy>
  </scstep>
  <scstep>
   <time name="total">  251.96  253.04</time>
   <energy>
    <i name="e_fr_energy">    -39.38320544 </i>
    <i name="e_wo_entrp">    -39.37031174 </i>
    <i name="e_0_energy">    -39.37675859 </i>
   </energy>
  </scstep>
  <scstep>
   <time name="total">  251.56  252.64</time>
   <energy>
    <i name="e_fr_energy">    -39.38321871 </i>
    <i name="e_wo_entrp">    -39.37032507 </i>
    <i name="e_0_energy">    -39.37677189 </i>
   </energy>
  </scstep>
  <scstep>
   <time name="total">  251.57  252.89</time>
   <energy>
    <i name="e_fr_energy">    -39.38322985 </i>
    <i name="e_wo_entrp">    -39.37033625 </i>
    <i name="e_0_energy">    -39.37678305 </i>
   </energy>
  </scstep>
  <scstep>
   <time name="total">  252.07  253.27</time>
   <energy>
    <i name="e_fr_energy">    -39.38323959 </i>
    <i name="e_wo_entrp">    -39.37034603 </i>
    <i name="e_0_energy">    -39.37679281 </i>
   </energy>
  </scstep>
  <scstep>
   <time name="total">  251.70  252.81</time>
   <energy>
    <i name="e_fr_energy">    -39.38324817 </i>
    <i name="e_wo_entrp">    -39.37035465 </i>
    <i name="e_0_energy">    -39.37680141 </i>
   </energy>
  </scstep>
  <scstep>
   <time name="total">  252.36  253.72</time>
   <energy>
    <i name="e_fr_energy">    -39.38325582 </i>
    <i name="e_wo_entrp">    -39.37036233 </i>
    <i name="e_0_energy">    -39.37680908 </i>
   </energy>
  </scstep>
  <scstep>
   <time name="total">  251.36  252.57</time>
   <energy>
    <i name="e_fr_energy">    -39.38326286 </i>
    <i name="e_wo_entrp">    -39.37036939 </i>
    <i name="e_0_energy">    -39.37681613 </i>
   </energy>
  </scstep>
  <scstep>
   <time name="total">  251.61  252.94</time>
   <energy>
    <i name="e_fr_energy">    -39.38326942 </i>
    <i name="e_wo_entrp">    -39.37037597 </i>
    <i name="e_0_energy">    -39.37682269 </i>
   </energy>
  </scstep>
  <scstep>
   <time name="total">  251.62  252.87</time>
   <energy>
    <i name="e_fr_energy">    -39.38327552 </i>
    <i name="e_wo_entrp">    -39.37038208 </i>
    <i name="e_0_energy">    -39.37682880 </i>
   </energy>
  </scstep>
  <scstep>
   <time name="total">  251.48  252.61</time>
   <energy>
    <i name="e_fr_energy">    -39.38328126 </i>
    <i name="e_wo_entrp">    -39.37038784 </i>
    <i name="e_0_energy">    -39.37683455 </i>
   </energy>
  </scstep>
  <scstep>
   <time name="total">  251.76  253.13</time>
   <energy>
    <i name="e_fr_energy">    -39.38328672 </i>
    <i name="e_wo_entrp">    -39.37039330 </i>
    <i name="e_0_energy">    -39.37684001 </i>
   </energy>
  </scstep>
  <scstep>
   <time name="total">  252.02  253.57</time>
   <energy>
    <i name="e_fr_energy">    -39.38329167 </i>
    <i name="e_wo_entrp">    -39.37039826 </i>
    <i name="e_0_energy">    -39.37684497 </i>
   </energy>
  </scstep>
  <scstep>
   <time name="total">  251.79  253.11</time>
   <energy>
    <i name="e_fr_energy">    -39.38329600 </i>
    <i name="e_wo_entrp">    -39.37040259 </i>
    <i name="e_0_energy">    -39.37684929 </i>
   </energy>
  </scstep>
  <scstep>
   <time name="total">  251.80  253.44</time>
   <energy>
    <i name="e_fr_energy">    -39.38329869 </i>
    <i name="e_wo_entrp">    -39.37040529 </i>
    <i name="e_0_energy">    -39.37685199 </i>
   </energy>
  </scstep>
  <scstep>
   <time name="total">  251.23  252.40</time>
   <energy>
    <i name="e_fr_energy">    -39.38330059 </i>
    <i name="e_wo_entrp">    -39.37040719 </i>
    <i name="e_0_energy">    -39.37685389 </i>
   </energy>
  </scstep>
  <scstep>
   <time name="total">  251.91  253.05</time>
   <energy>
    <i name="e_fr_energy">    -39.38330352 </i>
    <i name="e_wo_entrp">    -39.37041012 </i>
    <i name="e_0_energy">    -39.37685682 </i>
   </energy>
  </scstep>
  <scstep>
   <time name="total">  251.94  253.14</time>
   <energy>
    <i name="e_fr_energy">    -39.38330923 </i>
    <i name="e_wo_entrp">    -39.37041585 </i>
    <i name="e_0_energy">    -39.37686254 </i>
   </energy>
  </scstep>
  <scstep>
   <time name="total">  251.75  253.04</time>
   <energy>
    <i name="e_fr_energy">    -39.38331410 </i>
    <i name="e_wo_entrp">    -39.37042068 </i>
    <i name="e_0_energy">    -39.37686739 </i>
   </energy>
  </scstep>
  <scstep>
   <time name="total">  251.71  252.95</time>
   <energy>
    <i name="e_fr_energy">    -39.38328912 </i>
    <i name="e_wo_entrp">    -39.37039581 </i>
    <i name="e_0_energy">    -39.37684246 </i>
   </energy>
  </scstep>
  <scstep>
   <time name="total">  251.56  252.74</time>
   <energy>
    <i name="e_fr_energy">    -39.38312820 </i>
    <i name="e_wo_entrp">    -39.37023464 </i>
    <i name="e_0_energy">    -39.37668142 </i>
   </energy>
  </scstep>
  <scstep>
   <time name="total">  251.59  252.78</time>
   <energy>
    <i name="e_fr_energy">    -39.38159300 </i>
    <i name="e_wo_entrp">    -39.36870004 </i>
    <i name="e_0_energy">    -39.37514652 </i>
   </energy>
  </scstep>
  <scstep>
   <time name="total">  252.04  253.26</time>
   <energy>
    <i name="e_fr_energy">    -39.37250680 </i>
    <i name="e_wo_entrp">    -39.35961230 </i>
    <i name="e_0_energy">    -39.36605955 </i>
   </energy>
  </scstep>
  <scstep>
   <time name="total">  251.63  252.75</time>
   <energy>
    <i name="e_fr_energy">    -39.32137937 </i>
    <i name="e_wo_entrp">    -39.30848845 </i>
    <i name="e_0_energy">    -39.31493391 </i>
   </energy>
  </scstep>
  <scstep>
   <time name="total">  252.13  253.18</time>
   <energy>
    <i name="e_fr_energy">    -39.13822922 </i>
    <i name="e_wo_entrp">    -39.12532902 </i>
    <i name="e_0_energy">    -39.13177912 </i>
   </energy>
  </scstep>
  <scstep>
   <time name="total">  252.27  253.59</time>
   <energy>
    <i name="e_fr_energy">    -38.61569827 </i>
    <i name="e_wo_entrp">    -38.60281344 </i>
    <i name="e_0_energy">    -38.60925585 </i>
   </energy>
  </scstep>
  <scstep>
   <time name="total">  251.92  253.24</time>
   <energy>
    <i name="e_fr_energy">    -37.93134111 </i>
    <i name="e_wo_entrp">    -37.91841660 </i>
    <i name="e_0_energy">    -37.92487886 </i>
   </energy>
  </scstep>
  <scstep>
   <time name="total">  251.60  253.05</time>
   <energy>
    <i name="e_fr_energy">    -37.41359143 </i>
    <i name="e_wo_entrp">    -37.40070993 </i>
    <i name="e_0_energy">    -37.40715068 </i>
   </energy>
  </scstep>
  <scstep>
   <time name="total">  251.62  252.96</time>
   <energy>
    <i name="e_fr_energy">    -38.10429582 </i>
    <i name="e_wo_entrp">    -38.09134585 </i>
    <i name="e_0_energy">    -38.09782083 </i>
   </energy>
  </scstep>
  <scstep>
   <time name="total">  252.07  253.55</time>
   <energy>
    <i name="e_fr_energy">    -38.98264194 </i>
    <i name="e_wo_entrp">    -38.96975855 </i>
    <i name="e_0_energy">    -38.97620025 </i>
   </energy>
  </scstep>
  <scstep>
   <time name="total">  251.82  252.93</time>
   <energy>
    <i name="e_fr_energy">    -39.37211618 </i>
    <i name="e_wo_entrp">    -39.35921595 </i>
    <i name="e_0_energy">    -39.36566606 </i>
   </energy>
  </scstep>
  <scstep>
   <time name="total">  251.96  253.27</time>
   <energy>
    <i name="e_fr_energy">    -39.34752988 </i>
    <i name="e_wo_entrp">    -39.33463299 </i>
    <i name="e_0_energy">    -39.34108144 </i>
   </energy>
  </scstep>
  <scstep>
   <time name="total">  251.78  253.37</time>
   <energy>
    <i name="e_fr_energy">    -39.34964825 </i>
    <i name="e_wo_entrp">    -39.33676062 </i>
    <i name="e_0_energy">    -39.34320444 </i>
   </energy>
  </scstep>
  <scstep>
