       N       E                     dE             d eps       ncg     rms           ort
DAV:   1    -0.431258331041E+04   -0.43126E+04   -0.23261E+04   728   0.720E+02  
DAV:   2    -0.465257776874E+04   -0.33999E+03   -0.31538E+03   728   0.202E+02  
DAV:   3    -0.468248550460E+04   -0.29908E+02   -0.29367E+02   728   0.642E+01  
DAV:   4    -0.468380727863E+04   -0.13218E+01   -0.13100E+01   728   0.132E+01  
DAV:   5    -0.801253919356E+02    0.46037E+04   -0.14011E+01   728   0.212E+01  
SDA:   6    -0.437028754899E+02    0.36423E+02   -0.36393E+02   728   0.910E+02   0.000E+00
DMP:   7    -0.645139867060E+02   -0.20811E+02   -0.40057E+01   728   0.560E+01   0.116E+02
DMP:   8    -0.646530384746E+02   -0.13905E+00   -0.33485E+01   728   0.121E+02  -0.981E+01
DMP:   9    -0.669923785690E+02   -0.23393E+01   -0.19025E+01   728   0.349E+01   0.330E+01
DMP:  10    -0.678741205734E+02   -0.88174E+00   -0.15638E+00   728   0.518E+00  -0.333E+00
DMP:  11    -0.678972640308E+02   -0.23143E-01   -0.21638E+00   728   0.643E+00  -0.267E+00
DMP:  12    -0.680235423116E+02   -0.12628E+00   -0.56929E-01   728   0.107E+00   0.914E-01
DMP:  13    -0.680366576732E+02   -0.13115E-01   -0.15104E-01   728   0.673E-01  -0.773E-01
DMP:  14    -0.680461141298E+02   -0.94565E-02   -0.15055E-01   728   0.341E-01   0.937E-02
DMP:  15    -0.680541852484E+02   -0.80711E-02   -0.23886E-02   728   0.492E-02   0.276E-02
DMP:  16    -0.680549301232E+02   -0.74487E-03   -0.14688E-02   728   0.453E-02  -0.224E-02
DMP:  17    -0.680558692870E+02   -0.93916E-03   -0.70286E-03   728   0.137E-02   0.101E-02
DMP:  18    -0.680561644007E+02   -0.29511E-03   -0.78987E-04   728   0.309E-03  -0.292E-03
DMP:  19    -0.680561857948E+02   -0.21394E-04   -0.10265E-03   728   0.291E-03  -0.898E-04
DMP:  20    -0.680562471956E+02   -0.61401E-04   -0.32309E-04   728   0.599E-04   0.546E-04
DMP:  21    -0.680562608798E+02   -0.13684E-04   -0.88051E-05   728   0.263E-04  -0.111E-04
DMP:  22    -0.680562662906E+02   -0.54107E-05   -0.65353E-05   728   0.148E-04   0.410E-05
DMP:  23    -0.680562703716E+02   -0.40811E-05   -0.15130E-05   728   0.273E-05   0.274E-05
DMP:  24    -0.680562710428E+02   -0.67116E-06   -0.51229E-06   728   0.162E-05  -0.885E-06
DMP:  25    -0.680562712845E+02   -0.24174E-06   -0.31381E-06   728   0.705E-06   0.209E-06
DMP:  26    -0.680562713772E+02   -0.92651E-07   -0.65572E-07   728   0.154E-06   0.261E-07
   1 F= -.68056271E+02 E0= -.68056271E+02  d E =-.680563E+02
       N       E                     dE             d eps       ncg     rms           ort
SDA:   1    -0.636211587869E+02    0.44351E+01   -0.54056E+01   728   0.135E+02   0.000E+00
DMP:   2    -0.669373218451E+02   -0.33162E+01   -0.12294E+01   728   0.191E+01   0.304E+01
DMP:   3    -0.675252216213E+02   -0.58790E+00   -0.56700E+00   728   0.148E+01  -0.152E+00
DMP:   4    -0.679098931005E+02   -0.38467E+00   -0.25163E+00   728   0.438E+00   0.501E+00
DMP:   5    -0.680425013145E+02   -0.13261E+00   -0.37667E-01   728   0.811E-01   0.341E-01
DMP:   6    -0.680562707072E+02   -0.13769E-01   -0.27222E-01   728   0.778E-01  -0.255E-01
DMP:   7    -0.680728420154E+02   -0.16571E-01   -0.10831E-01   728   0.214E-01   0.149E-01
DMP:   8    -0.680775239298E+02   -0.46819E-02   -0.26707E-02   728   0.803E-02  -0.355E-02
DMP:   9    -0.680790376396E+02   -0.15137E-02   -0.18041E-02   728   0.417E-02   0.878E-03
DMP:  10    -0.680801226674E+02   -0.10850E-02   -0.51161E-03   728   0.953E-03   0.853E-03
DMP:  11    -0.680803892448E+02   -0.26658E-03   -0.19109E-03   728   0.470E-03   0.205E-04
DMP:  12    -0.680805043432E+02   -0.11510E-03   -0.98880E-04   728   0.209E-03   0.992E-04
DMP:  13    -0.680805569997E+02   -0.52657E-04   -0.28631E-04   728   0.603E-04   0.295E-04
DMP:  14    -0.680805705411E+02   -0.13541E-04   -0.12184E-04   728   0.293E-04   0.307E-05
DMP:  15    -0.680805780980E+02   -0.75569E-05   -0.54761E-05   728   0.108E-04   0.751E-05
DMP:  16    -0.680805816179E+02   -0.35199E-05   -0.15990E-05   728   0.302E-05   0.256E-05
DMP:  17    -0.680805825456E+02   -0.92772E-06   -0.59511E-06   728   0.138E-05   0.279E-06
DMP:  18    -0.680805827836E+02   -0.23798E-06   -0.27982E-06   728   0.609E-06   0.238E-06
DMP:  19    -0.680805828219E+02   -0.38331E-07   -0.98708E-07   728   0.211E-06   0.946E-07
   2 F= -.68080583E+02 E0= -.68080583E+02  d E =-.243114E-01
       N       E                     dE             d eps       ncg     rms           ort
SDA:   1    -0.672185718871E+02    0.86201E+00   -0.12566E+01   728   0.314E+01   0.000E+00
DMP:   2    -0.679812890923E+02   -0.76272E+00   -0.24845E+00   728   0.364E+00   0.674E+00
DMP:   3    -0.680910401971E+02   -0.10975E+00   -0.13821E+00   728   0.373E+00  -0.714E-01
DMP:   4    -0.681853989537E+02   -0.94359E-01   -0.58553E-01   728   0.979E-01   0.127E+00
DMP:   5    -0.682109068698E+02   -0.25508E-01   -0.89209E-02   728   0.293E-01  -0.184E-01
DMP:   6    -0.682154584240E+02   -0.45516E-02   -0.73585E-02   728   0.182E-01   0.520E-03
DMP:   7    -0.682196342058E+02   -0.41758E-02   -0.18290E-02   728   0.366E-02   0.240E-02
DMP:   8    -0.682204638286E+02   -0.82962E-03   -0.83868E-03   728   0.227E-02  -0.464E-03
DMP:   9    -0.682209683492E+02   -0.50452E-03   -0.44429E-03   728   0.939E-03   0.450E-03
DMP:  10    -0.682212061730E+02   -0.23782E-03   -0.14255E-03   728   0.315E-03   0.109E-03
DMP:  11    -0.682212891763E+02   -0.83003E-04   -0.70681E-04   728   0.152E-03   0.641E-04
DMP:  12    -0.682213358083E+02   -0.46632E-04   -0.27410E-04   728   0.499E-04   0.487E-04
DMP:  13    -0.682213541516E+02   -0.18343E-04   -0.10885E-04   728   0.208E-04   0.167E-04
DMP:  14    -0.682213615586E+02   -0.74070E-05   -0.48168E-05   728   0.900E-05   0.797E-05
DMP:  15    -0.682213647983E+02   -0.32396E-05   -0.22535E-05   728   0.397E-05   0.435E-05
DMP:  16    -0.682213664045E+02   -0.16062E-05   -0.10406E-05   728   0.171E-05   0.234E-05
DMP:  17    -0.682213673387E+02   -0.93425E-06   -0.64677E-06   728   0.104E-05   0.151E-05
DMP:  18    -0.682213679910E+02   -0.65226E-06   -0.43904E-06   728   0.655E-06   0.116E-05
DMP:  19    -0.682213684242E+02   -0.43328E-06   -0.31920E-06   728   0.469E-06   0.861E-06
DMP:  20    -0.682213687363E+02   -0.31211E-06   -0.25488E-06   728   0.375E-06   0.685E-06
DMP:  21    -0.682213689889E+02   -0.25260E-06   -0.20698E-06   728   0.302E-06   0.565E-06
DMP:  22    -0.682213692017E+02   -0.21277E-06   -0.16955E-06   728   0.245E-06   0.467E-06
DMP:  23    -0.682213693817E+02   -0.18003E-06   -0.13929E-06   728   0.200E-06   0.388E-06
DMP:  24    -0.682213695317E+02   -0.14991E-06   -0.11558E-06   728   0.166E-06   0.321E-06
DMP:  25    -0.682213696574E+02   -0.12577E-06   -0.97062E-07   728   0.140E-06   0.268E-06
DMP:  26    -0.682213697643E+02   -0.10683E-06   -0.83148E-07   728   0.122E-06   0.226E-06
DMP:  27    -0.682213698566E+02   -0.92319E-07   -0.72191E-07   728   0.106E-06   0.194E-06
   3 F= -.68221370E+02 E0= -.68221370E+02  d E =-.165098E+00
       N       E                     dE             d eps       ncg     rms           ort
SDA:   1    -0.682213219096E+02    0.47855E-04   -0.89309E-04   728   0.223E-03   0.000E+00
DMP:   2    -0.682213656175E+02   -0.43708E-04   -0.13015E-04   728   0.269E-04   0.148E-04
DMP:   3    -0.682213699708E+02   -0.43534E-05   -0.10529E-04   728   0.282E-04  -0.500E-05
DMP:   4    -0.682213775528E+02   -0.75820E-05   -0.30924E-05   728   0.500E-05   0.716E-05
DMP:   5    -0.682213795624E+02   -0.20096E-05   -0.60923E-06   728   0.210E-05  -0.150E-05
DMP:   6    -0.682213799879E+02   -0.42548E-06   -0.54903E-06   728   0.136E-05   0.384E-07
DMP:   7    -0.682213800732E+02   -0.85357E-07   -0.10061E-06   728   0.256E-06  -0.109E-07
DMP:   8    -0.682213800423E+02    0.30896E-07   -0.62922E-07   728   0.189E-06  -0.818E-07
   4 F= -.68221380E+02 E0= -.68221380E+02  d E =-.165109E+00
       N       E                     dE             d eps       ncg     rms           ort
SDA:   1    -0.682213801771E+02   -0.10385E-06   -0.40319E-06   728   0.101E-05   0.000E+00
DMP:   2    -0.682213801506E+02    0.26446E-07   -0.81558E-07   728   0.161E-06   0.111E-06
   5 F= -.68221380E+02 E0= -.68221380E+02  d E =-.165109E+00
       N       E                     dE             d eps       ncg     rms           ort
SDA:   1    -0.682213749932E+02    0.51839E-05   -0.76031E-05   728   0.190E-04   0.000E+00
DMP:   2    -0.682213780286E+02   -0.30354E-05   -0.12652E-05   728   0.247E-05   0.180E-05
DMP:   3    -0.682213782547E+02   -0.22614E-06   -0.89560E-06   728   0.235E-05  -0.288E-06
DMP:   4    -0.682213790551E+02   -0.80037E-06   -0.26912E-06   728   0.440E-06   0.608E-06
DMP:   5    -0.682213793810E+02   -0.32590E-06   -0.53399E-07   728   0.177E-06  -0.115E-06
DMP:   6    -0.682213794430E+02   -0.62017E-07   -0.47395E-07   728   0.117E-06   0.335E-08
   6 F= -.68221379E+02 E0= -.68221379E+02  d E =-.165108E+00
       N       E                     dE             d eps       ncg     rms           ort
SDA:   1    -0.682213751438E+02    0.42372E-05   -0.50132E-05   728   0.125E-04   0.000E+00
DMP:   2    -0.682213790779E+02   -0.39342E-05   -0.10941E-05   728   0.161E-05   0.296E-05
DMP:   3    -0.682213800026E+02   -0.92468E-06   -0.58375E-06   728   0.150E-05  -0.993E-07
DMP:   4    -0.682213802808E+02   -0.27815E-06   -0.23889E-06   728   0.395E-06   0.529E-06
DMP:   5    -0.682213802028E+02    0.77941E-07   -0.40536E-07   728   0.120E-06  -0.481E-07
   7 F= -.68221380E+02 E0= -.68221380E+02  d E =-.165109E+00
       N       E                     dE             d eps       ncg     rms           ort
SDA:   1    -0.682213800675E+02    0.21329E-06   -0.96890E-07   728   0.242E-06   0.000E+00
DMP:   2    -0.682213802389E+02   -0.17146E-06   -0.86879E-08   728   0.112E-07   0.277E-07
DMP:   3    -0.682213802887E+02   -0.49711E-07   -0.77212E-08   728   0.288E-07  -0.248E-07
   8 F= -.68221380E+02 E0= -.68221380E+02  d E =-.165109E+00
       N       E                     dE             d eps       ncg     rms           ort
SDA:   1    -0.682213802065E+02    0.32399E-07   -0.10228E-07   728   0.256E-07   0.000E+00
DMP:   2    -0.682213802443E+02   -0.37731E-07   -0.36633E-08   728   0.564E-08   0.922E-08
   9 F= -.68221380E+02 E0= -.68221380E+02  d E =-.165109E+00
       N       E                     dE             d eps       ncg     rms           ort
SDA:   1    -0.682213802438E+02   -0.37259E-07   -0.25806E-08   728   0.645E-08   0.000E+00
DMP:   2    -0.682213802509E+02   -0.70886E-08   -0.83049E-09   728   0.120E-08   0.230E-08
  10 F= -.68221380E+02 E0= -.68221380E+02  d E =-.165109E+00
       N       E                     dE             d eps       ncg     rms           ort
SDA:   1    -0.682213802459E+02   -0.20721E-08   -0.69906E-09   728   0.175E-08   0.000E+00
DMP:   2    -0.682213802528E+02   -0.69113E-08   -0.23975E-09   728   0.353E-09   0.644E-09
  11 F= -.68221380E+02 E0= -.68221380E+02  d E =-.165109E+00
       N       E                     dE             d eps       ncg     rms           ort
SDA:   1    -0.682213802502E+02   -0.43358E-08   -0.13622E-09   728   0.341E-09   0.000E+00
DMP:   2    -0.682213802529E+02   -0.26594E-08   -0.71508E-10   728   0.109E-09   0.182E-09
  12 F= -.68221380E+02 E0= -.68221380E+02  d E =-.165109E+00
       N       E                     dE             d eps       ncg     rms           ort
SDA:   1    -0.682213802518E+02   -0.15837E-08   -0.47675E-10   728   0.119E-09   0.000E+00
DMP:   2    -0.682213802535E+02   -0.16707E-08   -0.25153E-10   728   0.393E-10   0.617E-10
  13 F= -.68221380E+02 E0= -.68221380E+02  d E =-.165109E+00
       N       E                     dE             d eps       ncg     rms           ort
SDA:   1    -0.682213802530E+02   -0.12499E-08   -0.14998E-10   728   0.375E-10   0.000E+00
DMP:   2    -0.682213802538E+02   -0.72896E-09   -0.95458E-11   728   0.151E-10   0.228E-10
  14 F= -.68221380E+02 E0= -.68221380E+02  d E =-.165109E+00
       N       E                     dE             d eps       ncg     rms           ort
SDA:   1    -0.682213802534E+02   -0.31582E-09   -0.68926E-11   728   0.172E-10   0.000E+00
DMP:   2    -0.682213802538E+02   -0.44656E-09   -0.48750E-11   728   0.794E-11   0.111E-10
  15 F= -.68221380E+02 E0= -.68221380E+02  d E =-.165109E+00
       N       E                     dE             d eps       ncg     rms           ort
SDA:   1    -0.682213802537E+02   -0.35971E-09   -0.49622E-11   728   0.124E-10   0.000E+00
DMP:   2    -0.682213802540E+02   -0.26080E-09   -0.36726E-11   728   0.604E-11   0.823E-11
  16 F= -.68221380E+02 E0= -.68221380E+02  d E =-.165109E+00
       N       E                     dE             d eps       ncg     rms           ort
SDA:   1    -0.682213802538E+02   -0.12847E-09   -0.45017E-11   728   0.113E-10   0.000E+00
DMP:   2    -0.682213802540E+02   -0.16962E-09   -0.32925E-11   728   0.543E-11   0.734E-11
  17 F= -.68221380E+02 E0= -.68221380E+02  d E =-.165109E+00
       N       E                     dE             d eps       ncg     rms           ort
SDA:   1    -0.682213802539E+02   -0.20009E-10   -0.43306E-11   728   0.108E-10   0.000E+00
DMP:   2    -0.682213802540E+02   -0.11823E-09   -0.31267E-11   728   0.516E-11   0.695E-11
  18 F= -.68221380E+02 E0= -.68221380E+02  d E =-.165109E+00
       N       E                     dE             d eps       ncg     rms           ort
SDA:   1    -0.682213802539E+02   -0.76398E-10   -0.43278E-11   728   0.108E-10   0.000E+00
DMP:   2    -0.682213802540E+02   -0.93678E-10   -0.30791E-11   728   0.509E-11   0.684E-11
  19 F= -.68221380E+02 E0= -.68221380E+02  d E =-.165109E+00
       N       E                     dE             d eps       ncg     rms           ort
SDA:   1    -0.668228760153E+02    0.13985E+01   -0.15765E+01   728   0.394E+01   0.000E+00
DMP:   2    -0.677624633037E+02   -0.93959E+00   -0.29589E+00   728   0.449E+00   0.760E+00
DMP:   3    -0.678921082589E+02   -0.12964E+00   -0.18482E+00   728   0.496E+00  -0.898E-01
DMP:   4    -0.680149825224E+02   -0.12287E+00   -0.66794E-01   728   0.108E+00   0.153E+00
DMP:   5    -0.680419685716E+02   -0.26986E-01   -0.12824E-01   728   0.442E-01  -0.317E-01
DMP:   6    -0.680491113418E+02   -0.71428E-02   -0.91425E-02   728   0.214E-01   0.369E-02
DMP:   7    -0.680539509125E+02   -0.48396E-02   -0.20866E-02   728   0.474E-02   0.125E-02
DMP:   8    -0.680549033369E+02   -0.95242E-03   -0.12153E-02   728   0.322E-02  -0.481E-03
DMP:   9    -0.680556006101E+02   -0.69727E-03   -0.50254E-03   728   0.107E-02   0.488E-03
DMP:  10    -0.680558582921E+02   -0.25768E-03   -0.18938E-03   728   0.450E-03   0.625E-04
DMP:  11    -0.680559740732E+02   -0.11578E-03   -0.86832E-04   728   0.177E-03   0.104E-03
DMP:  12    -0.680560285431E+02   -0.54470E-04   -0.32065E-04   728   0.630E-04   0.449E-04
DMP:  13    -0.680560497859E+02   -0.21243E-04   -0.14455E-04   728   0.283E-04   0.205E-04
DMP:  14    -0.680560589683E+02   -0.91824E-05   -0.55636E-05   728   0.105E-04   0.888E-05
DMP:  15    -0.680560627582E+02   -0.37900E-05   -0.28433E-05   728   0.527E-05   0.481E-05
DMP:  16    -0.680560649542E+02   -0.21960E-05   -0.13490E-05   728   0.214E-05   0.321E-05
DMP:  17    -0.680560661292E+02   -0.11750E-05   -0.80605E-06   728   0.130E-05   0.188E-05
DMP:  18    -0.680560668820E+02   -0.75280E-06   -0.56887E-06   728   0.865E-06   0.146E-05
DMP:  19    -0.680560674081E+02   -0.52607E-06   -0.41139E-06   728   0.606E-06   0.111E-05
DMP:  20    -0.680560678130E+02   -0.40494E-06   -0.32543E-06   728   0.478E-06   0.878E-06
DMP:  21    -0.680560681509E+02   -0.33788E-06   -0.26202E-06   728   0.379E-06   0.723E-06
DMP:  22    -0.680560684266E+02   -0.27569E-06   -0.21304E-06   728   0.307E-06   0.591E-06
DMP:  23    -0.680560686504E+02   -0.22376E-06   -0.17635E-06   728   0.255E-06   0.487E-06
DMP:  24    -0.680560688366E+02   -0.18624E-06   -0.14727E-06   728   0.213E-06   0.406E-06
DMP:  25    -0.680560689949E+02   -0.15833E-06   -0.12429E-06   728   0.181E-06   0.341E-06
DMP:  26    -0.680560691313E+02   -0.13636E-06   -0.10609E-06   728   0.155E-06   0.288E-06
DMP:  27    -0.680560692489E+02   -0.11757E-06   -0.91696E-07   728   0.135E-06   0.247E-06
DMP:  28    -0.680560693511E+02   -0.10225E-06   -0.80557E-07   728   0.120E-06   0.213E-06
DMP:  29    -0.680560694416E+02   -0.90519E-07   -0.71323E-07   728   0.107E-06   0.188E-06
  20 F= -.68056069E+02 E0= -.68056069E+02  d E =0.201936E-03
