 vasp.6.5.1 10Mar25 (build May 05 2025 13:45:00) complex                        
  
 executed on             LinuxIFC date 2026.04.27  13:17:40
 running  112 mpi-ranks, on    1 nodes
 distrk:  each k-point on   28 cores,    4 groups
 distr:  one band on NCORE=   1 cores,   28 groups


--------------------------------------------------------------------------------------------------------


 INCAR:
   ALGO = Damped
   PREC = Normal
   LREAL = False
   EDIFF = 1e-07
   ENCUT = 400.0
   LASPH = True
   NELM = 100
   ISIF = 3
   IBRION = 2
   EDIFFG = -0.005
   NSW = 300
   ISMEAR = -5
   SIGMA = 0.1
   LWAVE = True
   LCHARG = False
   LORBIT = 10
   LHFCALC = True
   PRECFOCK = Fast
   AEXX = 0.36
   HFSCREEN = 0.2
   TIME = 0.4
   KPAR = 4

 POTCAR:    PAW_PBE Na 08Apr2002                  
 POTCAR:    PAW_PBE Nd_3 06Sep2000                
 POTCAR:    PAW_PBE O 08Apr2002                   
 -----------------------------------------------------------------------------
|                                                                             |
|           W    W    AA    RRRRR   N    N  II  N    N   GGGG   !!!           |
|           W    W   A  A   R    R  NN   N  II  NN   N  G    G  !!!           |
|           W    W  A    A  R    R  N N  N  II  N N  N  G       !!!           |
|           W WW W  AAAAAA  RRRRR   N  N N  II  N  N N  G  GGG   !            |
|           WW  WW  A    A  R   R   N   NN  II  N   NN  G    G                |
|           W    W  A    A  R    R  N    N  II  N    N   GGGG   !!!           |
|                                                                             |
|     For optimal performance we recommend to set                             |
|       NCORE = 2 up to number-of-cores-per-socket                            |
|     NCORE specifies how many cores store one orbital (NPAR=cpu/NCORE).      |
|     This setting can greatly improve the performance of VASP for DFT.       |
|     The default, NCORE=1 might be grossly inefficient on modern             |
|     multi-core architectures or massively parallel machines. Do your        |
|     own testing! More info at https://www.vasp.at/wiki/index.php/NCORE      |
|     Unfortunately you need to use the default for GW and RPA                |
|     calculations (for HF NCORE is supported but not extensively tested      |
|     yet).                                                                   |
|                                                                             |
 -----------------------------------------------------------------------------

 POTCAR:    PAW_PBE Na 08Apr2002                  
   SHA256 =  28de979e29d3a0ce6b912090ec41d2d3fb15239b988ee49a7215736a384d2747 Na/POTCAR             
   COPYR  = (c) Copyright 08Apr2002 Georg Kresse                                                    
   COPYR  = This file is part of the software VASP. Any use, copying, and all other rights are regul
   COPYR  = If you do not have a valid VASP license, you may not use, copy or distribute this file. 
   VRHFIN =Na: s1p0                                                                                 
   LEXCH  = PE                                                                                      
   EATOM  =     5.1581 eV,    0.3791 Ry                                                             
                                                                                                    
   TITEL  = PAW_PBE Na 08Apr2002                                                                    
   LULTRA =        F    use ultrasoft PP ?                                                          
   IUNSCR =        1    unscreen: 0-lin 1-nonlin 2-no                                               
   RPACOR =    1.800    partial core radius                                                         
   POMASS =   22.990; ZVAL   =    1.000    mass and valenz                                          
   RCORE  =    2.200    outmost cutoff radius                                                       
   RWIGS  =    3.320; RWIGS  =    1.757    wigner-seitz radius (au A)                               
   ENMAX  =  101.968; ENMIN  =   76.476 eV                                                          
   ICORE  =        2    local potential                                                             
   LCOR   =        T    correct aug charges                                                         
   LPAW   =        T    paw PP                                                                      
   EAUG   =  250.695                                                                                
   DEXC   =    0.000                                                                                
   RMAX   =    2.245    core radius for proj-oper                                                   
   RAUG   =    1.300    factor for augmentation sphere                                              
   RDEP   =    2.259    radius for radial grids                                                     
   RDEPT  =    2.115    core radius for aug-charge                                                  
                                                                                                    
   Atomic configuration                                                                             
    6 entries                                                                                       
     n  l   j            E        occ.                                                              
     1  0  0.50     -1033.6933   2.0000                                                             
     2  0  0.50       -56.7526   2.0000                                                             
     2  1  1.50       -28.6721   6.0000                                                             
     3  0  0.50        -2.7440   1.0000                                                             
     3  1  0.50        -1.3606   0.0000                                                             
     3  2  1.50        -1.3606   0.0000                                                             
   Description                                                                                      
     l       E           TYP  RCUT    TYP  RCUT                                                     
     0     -2.7439560     23  2.200                                                                 
     0     27.2116520     23  2.200                                                                 
     1     -1.3605826     23  2.200                                                                 
     2     -1.3605826     23  2.200                                                                 
  local pseudopotential read in
  partial core-charges read in
  partial kinetic energy density read in
  atomic valenz-charges read in
  non local Contribution for L=           0  read in
    real space projection operators read in
  non local Contribution for L=           0  read in
    real space projection operators read in
  non local Contribution for L=           1  read in
    real space projection operators read in
    PAW grid and wavefunctions read in
 
   number of l-projection  operators is LMAX  =           3
   number of lm-projection operators is LMMAX =           5
 
 POTCAR:    PAW_PBE Nd_3 06Sep2000                
   SHA256 =  90782177844a5d17e05a83442c3981b109958f4399d5595472847236a982ac31 Nd_3/POTCAR           
   COPYR  = (c) Copyright 06Sep2000 Georg Kresse                                                    
   COPYR  = This file is part of the software VASP. Any use, copying, and all other rights are regul
   COPYR  = If you do not have a valid VASP license, you may not use, copy or distribute this file. 
   VRHFIN =Nd : [core=Xe4]                                                                          
   LEXCH  = PE                                                                                      
   EATOM  =   934.1494 eV,   68.6580 Ry                                                             
                                                                                                    
   TITEL  = PAW_PBE Nd_3 06Sep2000                                                                  
   LULTRA =        F    use ultrasoft PP ?                                                          
   IUNSCR =        1    unscreen: 0-lin 1-nonlin 2-no                                               
   RPACOR =    2.400    partial core radius                                                         
   POMASS =  144.240; ZVAL   =   11.000    mass and valenz                                          
   RCORE  =    2.800    outmost cutoff radius                                                       
   RWIGS  =    3.000; RWIGS  =    1.588    wigner-seitz radius (au A)                               
   ENMAX  =  182.619; ENMIN  =  136.964 eV                                                          
   RCLOC  =    2.418    cutoff for local pot                                                        
   LCOR   =        T    correct aug charges                                                         
   LPAW   =        T    paw PP                                                                      
   EAUG   =  299.021                                                                                
   DEXC   =    0.000                                                                                
   RMAX   =    2.866    core radius for proj-oper                                                   
   RAUG   =    1.300    factor for augmentation sphere                                              
   RDEP   =    2.838    radius for radial grids                                                     
   RDEPT  =    2.433    core radius for aug-charge                                                  
                                                                                                    
   Atomic configuration                                                                             
   14 entries                                                                                       
     n  l   j            E        occ.                                                              
     1  0  0.50    -43395.8286   2.0000                                                             
     2  0  0.50     -7023.8781   2.0000                                                             
     2  1  1.50     -6278.5294   6.0000                                                             
     3  0  0.50     -1529.8925   2.0000                                                             
     3  1  1.50     -1294.9660   6.0000                                                             
     3  2  2.50      -969.3626  10.0000                                                             
     4  0  0.50      -309.7145   2.0000                                                             
     4  1  1.50      -232.6371   6.0000                                                             
     4  2  2.50      -123.0912  10.0000                                                             
     4  3  2.50        -6.9199   3.0000                                                             
     5  0  0.50       -43.6910   2.0000                                                             
     6  0  0.50        -3.8688   2.0000                                                             
     5  1  1.50       -24.6661   6.0000                                                             
     5  2  2.50        -2.9249   1.0000                                                             
   Description                                                                                      
     l       E           TYP  RCUT    TYP  RCUT                                                     
     0    -43.6910211     23  2.800                                                                 
     0     -3.8687565     23  2.800                                                                 
     1    -24.6660554     23  2.800                                                                 
     1     13.6058260     23  2.800                                                                 
     2     -2.9249058     23  2.800                                                                 
     2      0.2001824     23  2.800                                                                 
  local pseudopotential read in
  partial core-charges read in
  partial kinetic energy density read in
  atomic valenz-charges read in
  non local Contribution for L=           0  read in
    real space projection operators read in
  non local Contribution for L=           0  read in
    real space projection operators read in
  non local Contribution for L=           1  read in
    real space projection operators read in
  non local Contribution for L=           1  read in
    real space projection operators read in
  non local Contribution for L=           2  read in
    real space projection operators read in
  non local Contribution for L=           2  read in
    real space projection operators read in
    PAW grid and wavefunctions read in
 
   number of l-projection  operators is LMAX  =           6
   number of lm-projection operators is LMMAX =          18
 
 POTCAR:    PAW_PBE O 08Apr2002                   
   SHA256 =  818f92134a0a090dccd8ba1447fa70422a3b330e708bb4f08108d8ae51209ddf O/POTCAR              
   COPYR  = (c) Copyright 08Apr2002 Georg Kresse                                                    
   COPYR  = This file is part of the software VASP. Any use, copying, and all other rights are regul
   COPYR  = If you do not have a valid VASP license, you may not use, copy or distribute this file. 
   VRHFIN =O: s2p4                                                                                  
   LEXCH  = PE                                                                                      
   EATOM  =   432.3788 eV,   31.7789 Ry                                                             
                                                                                                    
   TITEL  = PAW_PBE O 08Apr2002                                                                     
   LULTRA =        F    use ultrasoft PP ?                                                          
   IUNSCR =        1    unscreen: 0-lin 1-nonlin 2-no                                               
   RPACOR =    1.200    partial core radius                                                         
   POMASS =   16.000; ZVAL   =    6.000    mass and valenz                                          
   RCORE  =    1.520    outmost cutoff radius                                                       
   RWIGS  =    1.550; RWIGS  =    0.820    wigner-seitz radius (au A)                               
   ENMAX  =  400.000; ENMIN  =  300.000 eV                                                          
   ICORE  =        2    local potential                                                             
   LCOR   =        T    correct aug charges                                                         
   LPAW   =        T    paw PP                                                                      
   EAUG   =  605.392                                                                                
   DEXC   =    0.000                                                                                
   RMAX   =    1.553    core radius for proj-oper                                                   
   RAUG   =    1.300    factor for augmentation sphere                                              
   RDEP   =    1.550    radius for radial grids                                                     
   RDEPT  =    1.329    core radius for aug-charge                                                  
                                                                                                    
   Atomic configuration                                                                             
    4 entries                                                                                       
     n  l   j            E        occ.                                                              
     1  0  0.50      -514.6923   2.0000                                                             
     2  0  0.50       -23.9615   2.0000                                                             
     2  1  0.50        -9.0305   4.0000                                                             
     3  2  1.50        -9.5241   0.0000                                                             
   Description                                                                                      
     l       E           TYP  RCUT    TYP  RCUT                                                     
     0    -23.9615318     23  1.200                                                                 
     0     -9.5240782     23  1.200                                                                 
     1     -9.0304911     23  1.520                                                                 
     1      8.1634956     23  1.520                                                                 
     2     -9.5240782      7  1.500                                                                 
  local pseudopotential read in
  partial core-charges read in
  partial kinetic energy density read in
  kinetic energy density of atom read in
  atomic valenz-charges read in
  non local Contribution for L=           0  read in
    real space projection operators read in
  non local Contribution for L=           0  read in
    real space projection operators read in
  non local Contribution for L=           1  read in
    real space projection operators read in
  non local Contribution for L=           1  read in
    real space projection operators read in
    PAW grid and wavefunctions read in
 
   number of l-projection  operators is LMAX  =           4
   number of lm-projection operators is LMMAX =           8
 
  PAW_PBE Na 08Apr2002                  :
 energy of atom  1       EATOM=   -5.1581
 kinetic energy error for atom=    0.0001 (will be added to EATOM!!)
  PAW_PBE Nd_3 06Sep2000                :
 energy of atom  2       EATOM= -934.1494
 kinetic energy error for atom=    0.0015 (will be added to EATOM!!)
  PAW_PBE O 08Apr2002                   :
 energy of atom  3       EATOM= -432.3788
 kinetic energy error for atom=    0.1156 (will be added to EATOM!!)
 
 
 POSCAR: Na2 Nd2 O4
  positions in direct lattice
  No initial velocities read in


 exchange-correlation table for PE
   RHO(1)=    0.500       N(1)  =     2000
   RHO(2)=  100.500       N(2)  =     4000
 


--------------------------------------------------------------------------------------------------------


 ion  position               nearest neighbor table
   1  0.250  0.750  0.500-   5 2.39   7 2.39   5 2.39   7 2.39   6 3.08   8 3.08   4 3.35   4 3.35
                             4 3.35   4 3.35   3 3.63   3 3.63   2 3.63   3 3.63   3 3.63   2 3.63
   2  0.500  0.500  0.000-   6 2.39   8 2.39   6 2.39   8 2.39   7 3.08   5 3.08   3 3.35   3 3.35
                             3 3.35   3 3.35   4 3.63   4 3.63   1 3.63   1 3.63   4 3.63   4 3.63
   3  0.000  0.000  0.000-   6 2.39   8 2.39   6 2.39   8 2.39   7 2.41   5 2.41   2 3.35   2 3.35
                             2 3.35   2 3.35   4 3.63   4 3.63   1 3.63   4 3.63   4 3.63   1 3.63
   4  0.750  0.250  0.500-   5 2.39   7 2.39   5 2.39   7 2.39   6 2.41   8 2.41   1 3.35   1 3.35
                             1 3.35   1 3.35   3 3.63   3 3.63   2 3.63   2 3.63   3 3.63   3 3.63
   5  0.781  0.781  0.000-   1 2.39   4 2.39   4 2.39   1 2.39   3 2.41   2 3.08
   6  0.531  0.031  0.500-   2 2.39   3 2.39   2 2.39   3 2.39   4 2.41   1 3.08
   7  0.219  0.219  0.000-   4 2.39   1 2.39   1 2.39   4 2.39   3 2.41   2 3.08
   8  0.969  0.469  0.500-   2 2.39   3 2.39   2 2.39   3 2.39   4 2.41   1 3.08
 
  LATTYP: Found a body centered tetragonal cell.
 ALAT       =     4.7406042840
 C/A-ratio  =     2.3148375873
  
  Lattice vectors:
  
 A1 = (  -2.3703021420,   2.3703021420,   5.4868644915)
 A2 = (   2.3703021420,  -2.3703021420,   5.4868644915)
 A3 = (   2.3703021420,   2.3703021420,  -5.4868644915)


Analysis of symmetry for initial positions (statically):
=====================================================================
 Subroutine PRICEL returns:
 Original cell was already a primitive cell.
 

 Routine SETGRP: Setting up the symmetry group for a 
 body centered tetragonal supercell.


 Subroutine GETGRP returns: Found 16 space group operations
 (whereof  8 operations were pure point group operations)
 out of a pool of 16 trial point group operations.


The static configuration has the point symmetry D_2d.
 The point group associated with its full space group is D_4h.


Analysis of symmetry for dynamics (positions and initial velocities):
=====================================================================
 Subroutine PRICEL returns:
 Original cell was already a primitive cell.
 

 Routine SETGRP: Setting up the symmetry group for a 
 body centered tetragonal supercell.


 Subroutine GETGRP returns: Found 16 space group operations
 (whereof  8 operations were pure point group operations)
 out of a pool of 16 trial point group operations.


The dynamic configuration has the point symmetry D_2d.
 The point group associated with its full space group is D_4h.


 Subroutine INISYM returns: Found 16 space group operations
 (whereof  8 operations are pure point group operations),
 and found     1 'primitive' translations


----------------------------------------------------------------------------------------

                                     Primitive cell                                     

  volume of cell :     123.3081

  direct lattice vectors                    reciprocal lattice vectors
    -2.370302142  2.370302142  5.486864492    -0.000000000  0.210943572  0.091126727
     2.370302142 -2.370302142  5.486864492     0.210943572 -0.000000000  0.091126727
     2.370302142  2.370302142 -5.486864492     0.210943572  0.210943572 -0.000000000

  length of vectors
     6.429801431  6.429801431  6.429801431     0.229785271  0.229785271  0.298319260

  position of ions in fractional coordinates (direct lattice)
     0.250000000  0.750000000  0.500000000
     0.500000000  0.500000000  1.000000000
     0.000000000  0.000000000  0.000000000
     0.750000000  0.250000000  0.500000000
     0.780747725  0.780747725  1.000000000
     0.530747725  0.030747725  0.500000000
     0.219252275  0.219252275  1.000000000
     0.969252275  0.469252275  0.500000000

  ion indices of the primitive-cell ions
   primitive index   ion index
                 1           1
                 2           2
                 3           3
                 4           4
                 5           5
                 6           6
                 7           7
                 8           8

----------------------------------------------------------------------------------------

 
 
 KPOINTS: Num irrep kpoints: 13                   

Automatic generation of k-mesh.
 Grid dimensions read from file:
 generate k-points for:    4    4    4

 Generating k-lattice:

  Cartesian coordinates                     Fractional coordinates (reciprocal lattice)
    -0.000000000  0.052735893  0.022781682     0.250000000  0.000000000 -0.000000000
     0.052735893 -0.000000000  0.022781682     0.000000000  0.250000000 -0.000000000
     0.052735893  0.052735893 -0.000000000    -0.000000000  0.000000000  0.250000000

  Length of vectors
     0.057446318  0.057446318  0.074579815

  Shift w.r.t. Gamma in fractional coordinates (k-lattice)
     0.000000000  0.000000000  0.000000000

 TETIRR: Found     80 inequivalent tetrahedra from      384
 
 Subroutine IBZKPT returns following result:
 ===========================================
 
 Found     13 irreducible k-points:
 
 Following reciprocal coordinates:
            Coordinates               Weight
  0.000000  0.000000  0.000000      1.000000
  0.250000  0.000000 -0.000000      8.000000
  0.500000  0.000000 -0.000000      4.000000
  0.250000  0.250000 -0.000000      8.000000
  0.500000  0.250000 -0.000000     16.000000
 -0.250000  0.250000  0.000000      4.000000
  0.500000  0.500000 -0.000000      2.000000
  0.250000  0.250000  0.250000      2.000000
 -0.250000  0.250000  0.250000      4.000000
  0.500000  0.500000  0.250000      4.000000
 -0.250000  0.500000  0.250000      8.000000
 -0.250000 -0.250000  0.250000      2.000000
  0.500000  0.500000  0.500000      1.000000
 
 Following cartesian coordinates:
            Coordinates               Weight
  0.000000  0.000000  0.000000      1.000000
 -0.000000  0.052736  0.022782      8.000000
 -0.000000  0.105472  0.045563      4.000000
  0.052736  0.052736  0.045563      8.000000
  0.052736  0.105472  0.068345     16.000000
  0.052736 -0.052736 -0.000000      4.000000
  0.105472  0.105472  0.091127      2.000000
  0.105472  0.105472  0.045563      2.000000
  0.105472  0.000000 -0.000000      4.000000
  0.158208  0.158208  0.091127      4.000000
  0.158208  0.000000  0.022782      8.000000
  0.000000  0.000000 -0.045563      2.000000
  0.210944  0.210944  0.091127      1.000000
 
 
 Subroutine IBZKPT_HF returns following result:
 ==============================================
 
 Found     64 k-points in 1st BZ
 the following     64 k-points will be used (e.g. in the exchange kernel)
 Following reciprocal coordinates:   # in IRBZ
  0.000000  0.000000  0.000000    0.01562500   1 t-inv F
  0.250000  0.000000 -0.000000    0.01562500   2 t-inv F
  0.500000  0.000000 -0.000000    0.01562500   3 t-inv F
  0.250000  0.250000 -0.000000    0.01562500   4 t-inv F
  0.500000  0.250000 -0.000000    0.01562500   5 t-inv F
 -0.250000  0.250000  0.000000    0.01562500   6 t-inv F
  0.500000  0.500000 -0.000000    0.01562500   7 t-inv F
  0.250000  0.250000  0.250000    0.01562500   8 t-inv F
 -0.250000  0.250000  0.250000    0.01562500   9 t-inv F
  0.500000  0.500000  0.250000    0.01562500  10 t-inv F
 -0.250000  0.500000  0.250000    0.01562500  11 t-inv F
 -0.250000 -0.250000  0.250000    0.01562500  12 t-inv F
  0.500000  0.500000  0.500000    0.01562500  13 t-inv F
 -0.250000 -0.000000  0.250000    0.01562500   2 t-inv F
  0.000000  0.250000 -0.250000    0.01562500   2 t-inv F
 -0.000000 -0.250000  0.000000    0.01562500   2 t-inv F
 -0.250000 -0.000000  0.000000    0.01562500   2 t-inv F
  0.250000  0.000000 -0.250000    0.01562500   2 t-inv F
 -0.000000 -0.250000  0.250000    0.01562500   2 t-inv F
  0.000000  0.250000 -0.000000    0.01562500   2 t-inv F
 -0.500000 -0.000000  0.500000    0.01562500   3 t-inv F
  0.000000  0.500000 -0.500000    0.01562500   3 t-inv F
 -0.000000 -0.500000  0.000000    0.01562500   3 t-inv F
 -0.500000 -0.000000  0.250000    0.01562500   4 t-inv F
  0.250000  0.250000 -0.500000    0.01562500   4 t-inv F
 -0.000000 -0.500000  0.250000    0.01562500   4 t-inv F
  0.000000  0.500000 -0.250000    0.01562500   4 t-inv F
 -0.250000 -0.250000  0.500000    0.01562500   4 t-inv F
  0.500000  0.000000 -0.250000    0.01562500   4 t-inv F
 -0.250000 -0.250000  0.000000    0.01562500   4 t-inv F
 -0.750000 -0.000000  0.500000    0.01562500   5 t-inv F
  0.250000  0.500000 -0.750000    0.01562500   5 t-inv F
 -0.000000 -0.750000  0.250000    0.01562500   5 t-inv F
  0.000000  0.750000 -0.500000    0.01562500   5 t-inv F
 -0.500000 -0.250000  0.750000    0.01562500   5 t-inv F
  0.750000  0.000000 -0.250000    0.01562500   5 t-inv F
 -0.250000 -0.500000  0.000000    0.01562500   5 t-inv F
 -0.500000 -0.250000  0.000000    0.01562500   5 t-inv F
  0.750000  0.000000 -0.500000    0.01562500   5 t-inv F
 -0.250000 -0.500000  0.750000    0.01562500   5 t-inv F
  0.000000  0.750000 -0.250000    0.01562500   5 t-inv F
 -0.000000 -0.750000  0.500000    0.01562500   5 t-inv F
  0.500000  0.250000 -0.750000    0.01562500   5 t-inv F
 -0.750000 -0.000000  0.250000    0.01562500   5 t-inv F
  0.250000  0.500000 -0.000000    0.01562500   5 t-inv F
 -0.000000  0.000000 -0.250000    0.01562500   6 t-inv F
  0.250000 -0.250000 -0.000000    0.01562500   6 t-inv F
  0.000000 -0.000000  0.250000    0.01562500   6 t-inv F
 -1.000000 -0.000000  0.500000    0.01562500   7 t-inv F
 -0.250000  0.750000 -0.250000    0.01562500   8 t-inv F
 -0.250000  0.250000 -0.250000    0.01562500   9 t-inv F
  0.250000 -0.250000 -0.250000    0.01562500   9 t-inv F
  0.250000 -0.250000  0.250000    0.01562500   9 t-inv F
 -1.250000  0.250000  0.500000    0.01562500  10 t-inv F
  0.500000  0.500000 -1.250000    0.01562500  10 t-inv F
  0.250000 -1.250000  0.500000    0.01562500  10 t-inv F
 -0.500000  0.250000 -0.250000    0.01562500  11 t-inv F
  0.500000 -0.250000 -0.500000    0.01562500  11 t-inv F
  0.250000 -0.500000  0.500000    0.01562500  11 t-inv F
  0.250000 -0.500000 -0.250000    0.01562500  11 t-inv F
  0.500000 -0.250000  0.250000    0.01562500  11 t-inv F
 -0.500000  0.250000  0.500000    0.01562500  11 t-inv F
 -0.250000  0.500000 -0.500000    0.01562500  11 t-inv F
  0.250000  0.250000 -0.250000    0.01562500  12 t-inv F


--------------------------------------------------------------------------------------------------------




 Dimension of arrays:
   k-points           NKPTS =     13   k-points in BZ     NKDIM =     64   number of bands    NBANDS=     56
   number of dos      NEDOS =    301   number of ions     NIONS =      8
   non local maximal  LDIM  =      6   non local SUM 2l+1 LMDIM =     18
   total plane-waves  NPLWV =  32768
   max r-space proj   IRMAX =      1   max aug-charges    IRDMAX=  21367
   dimension x,y,z NGX =    32 NGY =   32 NGZ =   32
   dimension x,y,z NGXF=    64 NGYF=   64 NGZF=   64
   support grid    NGXF=    64 NGYF=   64 NGZF=   64
   ions per type =               2   2   4
   NGX,Y,Z   is equivalent  to a cutoff of   8.27,  8.27,  8.27 a.u.
   NGXF,Y,Z  is equivalent  to a cutoff of  16.55, 16.55, 16.55 a.u.

 SYSTEM =  unknown system                          
 POSCAR =  Na2 Nd2 O4                              

 Startparameter for this run:
   NWRITE =      2    write-flag & timer
   PREC   = normal    normal or accurate (medium, high low for compatibility)
   ISTART =      0    job   : 0-new  1-cont  2-samecut
   ICHARG =      2    charge: 1-file 2-atom 10-const
   ISPIN  =      1    spin polarized calculation?
   LNONCOLLINEAR =      F non collinear calculations
   LSORBIT =      F    spin-orbit coupling
   INIWAV =      1    electr: 0-lowe 1-rand  2-diag
   LASPH  =      T    aspherical Exc in radial PAW
 Electronic Relaxation 1
   ENCUT  =  400.0 eV  29.40 Ry    5.42 a.u.  10.49 10.49 10.49*2*pi/ulx,y,z
   ENINI  =  400.0     initial cutoff
   ENAUG  =  605.4 eV  augmentation charge cutoff
   NELM   =    100;   NELMIN=  2; NELMDL= -5     # of ELM steps 
   EDIFF  = 0.1E-06   stopping-criterion for ELM
   LREAL  =      F    real-space projection
   NLSPLINE    = F    spline interpolate recip. space projectors
   LCOMPAT=      F    compatible to vasp.4.4
   GGA_COMPAT  = T    GGA compatible to vasp.4.4-vasp.4.6
   LMAXPAW     = -100 max onsite density
   LMAXMIX     =    2 max onsite mixed and CHGCAR
   VOSKOWN=      0    Vosko Wilk Nusair interpolation
   ROPT   =    0.00000   0.00000   0.00000
 Ionic relaxation
   EDIFFG = -.5E-02   stopping-criterion for IOM
   NSW    =    300    number of steps for IOM
   NBLOCK =      1;   KBLOCK =    300    inner block; outer block 
   IBRION =      2    ionic relax: 0-MD 1-quasi-New 2-CG
   NFREE  =      1    steps in history (QN), initial steepest desc. (CG)
   ISIF   =      3    stress and relaxation
   IWAVPR =     11    prediction:  0-non 1-charg 2-wave 3-comb
   ISYM   =      3    0-nonsym 1-usesym 2-fastsym
   LCORR  =      T    Harris-Foulkes like correction to forces

   POTIM  = 0.5000    time-step for ionic-motion
   TEIN   =    0.0    initial temperature
   TEBEG  =    0.0;   TEEND  =   0.0 temperature during run
   SMASS  =  -3.00    Nose mass-parameter (am)
   estimated Nose-frequenzy (Omega)   =  0.10E-29 period in steps = 0.13E+47 mass=  -0.945E-27a.u.
   SCALEE = 1.0000    scale energy and forces
   NPACO  =    256;   APACO  = 10.0  distance and # of slots for P.C.
   PSTRESS=    0.0 pullay stress

  Mass of Ions in am
   POMASS =  22.99144.24 16.00
  Ionic Valenz
   ZVAL   =   1.00 11.00  6.00
  Atomic Wigner-Seitz radii
   RWIGS  =  -1.00 -1.00 -1.00
  virtual crystal weights 
   VCA    =   1.00  1.00  1.00
   NELECT =      48.0000    total number of electrons
   NUPDOWN=      -1.0000    fix difference up-down

 DOS related values:
   EMIN   =  10.00;   EMAX   =-10.00  energy-range for DOS
   EFERMI =   0.00;   METHOD = LEGACY      
   ISMEAR =    -5;   SIGMA  =   0.10  broadening in eV -4-tet -1-fermi 0-gaus
   EFERMI_NEDOS =   21; number of points for ismear=-14 and -15

 Electronic relaxation 2 (details)
   IALGO  =     53    algorithm
   LDIAG  =      T    sub-space diagonalisation (order eigenvalues)
   LSUBROT=      F    optimize rotation matrix (better conditioning)
   LROBUST=      F    robust break criterion during scf (extrapolated energy error)
   ISEARCH=      0    line search for conjugate gradient (0, 1=use gradient)
   TURBO    =      0    0=normal 1=particle mesh
   IRESTART =      0    0=no restart 2=restart with 2 vectors
   NREBOOT  =      0    no. of reboots
   NMIN     =      0    reboot dimension
   EREF     =   0.00    reference energy to select bands
   IMIX   =      4    mixing-type and parameters
     AMIX     =   0.40;   BMIX     =  1.00
     AMIX_MAG =   1.60;   BMIX_MAG =  1.00
     AMIN     =   0.10
     WC   =   100.;   INIMIX=   1;  MIXPRE=   1;  MAXMIX= -45

 Intra band minimization:
   WEIMIN = 0.0010     energy-eigenvalue tresh-hold
   EBREAK =  0.45E-09  absolut break condition
   DEPER  =   0.30     relativ break condition  

   TIME   =   0.40     timestep for ELM

  volume/ion in A,a.u.               =      15.41       104.02
  Fermi-wavevector in a.u.,A,eV,Ry     =   1.195340  2.258865 19.440509  1.428837
  Thomas-Fermi vector in A             =   2.331308
 
 Write flags
   LWAVE        =      T    write WAVECAR
   LDOWNSAMPLE  =      F    k-point downsampling of WAVECAR
   LCHARG       =      F    write CHGCAR
   LVTOT        =      F    write LOCPOT, total local potential
   LVHAR        =      F    write LOCPOT, Hartree potential only
   WRT_POTENTIAL= false  ! write potential to hdf5 file
   LELF         =      F    write electronic localiz. function (ELF)
   LORBIT       =     10    0 simple, 1 ext, 2 COOP (PROOUT), +10 PAW based schemes


 Python interface
   PLUGINS active      =      F    recompile with -DPLUGINS to activate
 
 Dipole corrections
   LMONO      =      F    monopole corrections only (constant potential shift)
   LDIPOL     =      F    correct potential (dipole corrections)
   IDIPOL     =      0    1-x, 2-y, 3-z, 4-all directions 
   EPSILON    =  1.0000000 bulk dielectric constant
   LVACPOTAV  =      F  vacuum potentials using an averaging scheme for the charge density
   VACPOTFLAT =  0.1000000 required flatness to determine vacuum potential
 
Coulomb truncation method
  LTRUNCATE          =      F  Coulomb kernel truncation to be used

 
 Exchange correlation treatment:
   GGA     = PE    functional components
   XC_C    = 1    coefficients multiplying the functional components
   LIBXC   =     F    Libxc                    
   VOSKOWN =     0    Vosko Wilk Nusair interpolation
   EXXOEP  =     0    0=HF, 1=EXX-LHF (local Hartree Fock) 2=EXX OEP
   LHFCALC =     T    Hartree Fock is set to
   LSYMGRAD=     F    symmetrize gradient (conserves proper symmetry)
   PRECFOCK=fast      Normal, Fast or Accurate (Low or Medium for compatibility)
   LRHFCALC=     F    long range Hartree Fock
   LRSCOR  =     F    long range correlation only (use DFT for short range part)
   LTHOMAS =     F    Thomas Fermi screening in HF
   LMODELHF=     F    short range full HF, long range fraction AEXX
   FOCKCORR=     1    mode to apply convergence corrections
   LFOCKACE=     T    use Adeptively-Compressed-Exchange operator
   ENCUT4O =  -1.0   cutoff for four orbital integrals eV
   LMAXFOCK=     4    L truncation for augmentation on plane wave grid
   LMAXFOCKAE=  -1    L truncation for all-electron charge restoration on plane wave grid
   NMAXFOCKAE=   1    number of basis functions for all-electron charge restoration
   LFOCKAEDFT=     F  apply the AE augmentation even for DFT
   NKREDX  =     1    reduce k-point grid by
   NKREDY  =     1    reduce k-point grid by
   NKREDZ  =     1    reduce k-point grid by
   SHIFTRED=     F    shift reduced grid of Gamma
   HFKIDENT=     F    idential grid for each k-point
   ODDONLY =     F    use only odd q-grid points
   EVENONLY=     F    use only even q-grid points
   HFALPHA =   -1.0000 decay constant for conv. correction
   MCALPHA =    0.0000 extent of test-charge in conv. correction in multipole expansion
   AEXX    =    0.3600 exact exchange contribution
   HFSCREEN=    0.2000 screening length (either q_TF or 0.3 A-1)
   HFSCREENC=   0.2000 screening length for correlation (either q_TF or 0.3 A-1)
   HFRCUT  =    0.0000 spherical cutoff for potential kernel
   ALDAX   =    0.6400 LDA exchange part
   AGGAX   =    0.6400 GGA exchange part
   AMGGAX  =    0.6400 meta-GGA exchange part
   ALDAC   =    1.0000 LDA correlation
   AGGAC   =    1.0000 GGA correlation
   AMGGAC  =    1.0000 meta-GGA correlation
   ENCUTFOCK=  -1.0 apply spherical cutoff to Coloumb kernel
   NBANDSGWLOW=     1    first orbital included in HF term
   NBLOCK_FOCK=    64    blocking factor in FOCK_ACC

 Parameters of functionals:
   PE:
     No parameter
 
 Van der Waals corrections
   IVDW    =     0    specifies the selected vdW correction

 Linear response parameters
   LEPSILON=     F    determine dielectric tensor
   LRPA    =     F    only Hartree local field effects (RPA)
   LNABLA  =     F    use nabla operator in PAW spheres
   LVEL    =     F    velocity operator in full k-point grid
   CSHIFT  =0.1000    complex shift for real part using Kramers Kronig
   OMEGAMAX=  -1.0    maximum frequency
   DEG_THRESHOLD= 0.2000000E-02 threshold for treating states as degnerate
   RTIME   =   -0.100 relaxation time in fs
  (WPLASMAI=    0.000 imaginary part of plasma frequency in eV, 0.658/RTIME)
   DFIELD  = 0.0000000 0.0000000 0.0000000 field for delta impulse in time
 
  Optional k-point grid parameters
   LKPOINTS_OPT  =     F    use optional k-point grid
   KPOINTS_OPT_MODE=     1    mode for optional k-point grid
 
 Orbital magnetization related:
   ORBITALMAG=     F  switch on orbital magnetization
   LCHIMAG   =     F  perturbation theory with respect to B field
   DQ        =  0.001000  dq finite difference perturbation B field
   LLRAUG    =     F  two centre corrections for induced B field
   LBONE     =     F  B-component reconstruction in AE one-centre
   LVGVCALC  =     T  calculate vGv susceptibility
   LVGVAPPL  =     F  apply vGv susceptibility instead of pGv for G=0

 Random number generation:
   RANDOM_GENERATOR = DEFAULT
   PCG_SEED         = not used


--------------------------------------------------------------------------------------------------------


 conjugate gradient relaxation of ions
 charge density and potential will be updated during run
 non-spin polarized calculation
 Conjugate gradient for all bands (Freysoldt, et al. PRB 79, 241103 (2009))
 perform sub-space diagonalisation
    before iterative eigenvector-optimisation
 modified Broyden-mixing scheme, WC =      100.0
 initial mixing is a Kerker type mixing with AMIX =  0.4000 and BMIX =      1.0000
 Hartree-type preconditioning will be used
 using additional bands           32
 reciprocal scheme for non local part
 use partial core corrections
 no Harris-corrections to forces 
 use gradient corrections 
 use of overlap-Matrix (Vanderbilt PP)
 Fermi weights with tetrahedron method with Bloechl corrections


--------------------------------------------------------------------------------------------------------


  energy-cutoff  :      400.00
  volume of cell :      123.31
      direct lattice vectors                 reciprocal lattice vectors
    -2.370302142  2.370302142  5.486864492    -0.000000000  0.210943572  0.091126727
     2.370302142 -2.370302142  5.486864492     0.210943572 -0.000000000  0.091126727
     2.370302142  2.370302142 -5.486864492     0.210943572  0.210943572 -0.000000000

  length of vectors
     6.429801431  6.429801431  6.429801431     0.229785271  0.229785271  0.298319260


 
 k-points in units of 2pi/SCALE and weight: Num irrep kpoints: 13                   
   0.00000000  0.00000000  0.00000000       0.016
  -0.00000000  0.05273589  0.02278168       0.125
  -0.00000000  0.10547179  0.04556336       0.062
   0.05273589  0.05273589  0.04556336       0.125
   0.05273589  0.10547179  0.06834504       0.250
   0.05273589 -0.05273589 -0.00000000       0.062
   0.10547179  0.10547179  0.09112673       0.031
   0.10547179  0.10547179  0.04556336       0.031
   0.10547179  0.00000000 -0.00000000       0.062
   0.15820768  0.15820768  0.09112673       0.062
   0.15820768  0.00000000  0.02278168       0.125
   0.00000000  0.00000000 -0.04556336       0.031
   0.21094357  0.21094357  0.09112673       0.016
 
 k-points in reciprocal lattice and weights: Num irrep kpoints: 13                   
   0.00000000  0.00000000  0.00000000       0.016
   0.25000000  0.00000000 -0.00000000       0.125
   0.50000000  0.00000000 -0.00000000       0.062
   0.25000000  0.25000000 -0.00000000       0.125
   0.50000000  0.25000000 -0.00000000       0.250
  -0.25000000  0.25000000  0.00000000       0.062
   0.50000000  0.50000000 -0.00000000       0.031
   0.25000000  0.25000000  0.25000000       0.031
  -0.25000000  0.25000000  0.25000000       0.062
   0.50000000  0.50000000  0.25000000       0.062
  -0.25000000  0.50000000  0.25000000       0.125
  -0.25000000 -0.25000000  0.25000000       0.031
   0.50000000  0.50000000  0.50000000       0.016
 
 position of ions in fractional coordinates (direct lattice) 
   0.25000000  0.75000000  0.50000000
   0.50000000  0.50000000  0.00000000
   0.00000000  0.00000000  0.00000000
   0.75000000  0.25000000  0.50000000
   0.78074772  0.78074772  0.00000000
   0.53074772  0.03074772  0.50000000
   0.21925228  0.21925228  0.00000000
   0.96925228  0.46925228  0.50000000
 
 position of ions in cartesian coordinates  (Angst):
   2.37030214  0.00000000  2.74343225
   0.00000000  0.00000000  5.48686449
   0.00000000  0.00000000  0.00000000
   0.00000000  2.37030214  2.74343225
   0.00000000 -0.00000000  8.56771394
   0.00000000  2.37030214  0.33741720
  -0.00000000  0.00000000  2.40601504
   0.00000000  2.37030214  5.14944729
 


--------------------------------------------------------------------------------------------------------


 k-point     1 :   0.0000 0.0000 0.0000  plane waves:    2257
 k-point     2 :   0.2500 0.0000-0.0000  plane waves:    2240
 k-point     3 :   0.5000 0.0000-0.0000  plane waves:    2246
 k-point     4 :   0.2500 0.2500-0.0000  plane waves:    2235
 k-point     5 :   0.5000 0.2500-0.0000  plane waves:    2240
 k-point     6 :  -0.2500 0.2500 0.0000  plane waves:    2231
 k-point     7 :   0.5000 0.5000-0.0000  plane waves:    2246
 k-point     8 :   0.2500 0.2500 0.2500  plane waves:    2260
 k-point     9 :  -0.2500 0.2500 0.2500  plane waves:    2230
 k-point    10 :   0.5000 0.5000 0.2500  plane waves:    2230
 k-point    11 :  -0.2500 0.5000 0.2500  plane waves:    2238
 k-point    12 :  -0.2500-0.2500 0.2500  plane waves:    2234
 k-point    13 :   0.5000 0.5000 0.5000  plane waves:    2250

 maximum and minimum number of plane-waves per node :      2260     2230

 maximum number of plane-waves:      2260
 maximum index in each direction: 
   IXMAX=   10   IYMAX=   10   IZMAX=   10
   IXMIN=  -10   IYMIN=  -10   IZMIN=  -10


 serial   3D FFT for wavefunctions
 parallel 3D FFT for charge:
    minimum data exchange during FFTs selected (reduces bandwidth)


 FFT grid for exact exchange (Hartree Fock) 
  NGX = 24; NGY = 24; NGZ = 24

 
 Radii for the augmentation spheres in the non-local exchange
 for species   1 augmentation radius   1.514 (default was   1.121)
       energy cutoff for augmentation   1600.0
 for species   2 augmentation radius   1.784 (default was   1.321)
       energy cutoff for augmentation   1600.0
 for species   3 augmentation radius   0.974 (default was   0.722)
       energy cutoff for augmentation   1600.0
 Maximum index for augmentation-charges in exchange         2651
  SETUP_FOCK is finished

 total amount of memory used by VASP MPI-rank0    50895. kBytes
=======================================================================

   base                                    :      30000. kBytes
   nonl-proj                               :      13027. kBytes
   fftplans                                :        546. kBytes
   grid                                    :       2131. kBytes
   one-center                              :        124. kBytes
   HF                                      :        194. kBytes
   nonlr-proj                              :       1939. kBytes
   wavefun                                 :       2934. kBytes
 
     INWAV:  cpu time      0.0000: real time      0.0003
 Broyden mixing: mesh for mixing (old mesh)
   NGX = 21   NGY = 21   NGZ = 21
  (NGX  = 64   NGY  = 64   NGZ  = 64)
  gives a total of   9261 points

 initial charge density was supplied:
 charge density of overlapping atoms calculated
 number of electron      48.0000000 magnetization 
 keeping initial charge density in first step


--------------------------------------------------------------------------------------------------------


 BZINTS: Fermi energy:   17.427701;   48.000000 electrons
         Band energy: 0.425924E+03;  BLOECHL correction: -143.363950
 Maximum index for augmentation-charges         1458 (set IRDMAX)


--------------------------------------------------------------------------------------------------------


 First call to EWALD:  gamma=   0.356
 Maximum number of real-space cells   3x   3x   4
 Maximum number of reciprocal cells   3x   3x   3

    FEWALD:  cpu time      0.0078: real time      0.0083


--------------------------------------- Ionic step        1  -------------------------------------------


 -----------------------------------------------------------------------------
|                                                                             |
|           W    W    AA    RRRRR   N    N  II  N    N   GGGG   !!!           |
|           W    W   A  A   R    R  NN   N  II  NN   N  G    G  !!!           |
|           W    W  A    A  R    R  N N  N  II  N N  N  G       !!!           |
|           W WW W  AAAAAA  RRRRR   N  N N  II  N  N N  G  GGG   !            |
|           WW  WW  A    A  R   R   N   NN  II  N   NN  G    G                |
|           W    W  A    A  R    R  N    N  II  N    N   GGGG   !!!           |
|                                                                             |
|     ALGO=A and IALGO=5X tend to fail with the tetrahedron method (e.g.      |
|     Bloechl's method, ISMEAR=-5, is not variational). Please switch to      |
|     IMSEAR=0-n, except for DOS calculations. For DOS calculations use       |
|     IALGO=53 after pre-converging with ISMEAR>=0.                           |
|     I HOPE YOU KNOW WHAT YOU ARE DOING!                                     |
|                                                                             |
 -----------------------------------------------------------------------------



--------------------------------------- Iteration      1(   1)  ---------------------------------------


    POTLOK:  cpu time      0.0278: real time      0.0323
    SETDIJ:  cpu time      0.0588: real time      0.0593
 BZINTS: Fermi energy:    9.145049;   48.000000 electrons
         Band energy:-0.220165E+03;  BLOECHL correction:   -0.025623
    TRIAL :  cpu time      0.1768: real time      0.2203
 BZINTS: Fermi energy:    9.145049;   48.000000 electrons
         Band energy:-0.220165E+03;  BLOECHL correction:   -0.025623
    CORREC:  cpu time      0.0009: real time      0.0009
    --------------------------------------------
      LOOP:  cpu time      0.2658: real time      0.3149

 eigenvalue-minimisations  :  2184
 total energy-change (2. order) :-0.4312583E+04  (-0.2326071E+04)
 number of electron      48.0000000 magnetization 
 augmentation part       48.0000000 magnetization 

 Free energy of the ion-electron system (eV)
  ---------------------------------------------------
  alpha Z        PSCENC =       211.09225997
  Ewald energy   TEWEN  =     -2610.87633660
  -Hartree energ DENC   =      -975.69090256
  -exchange      EXHF   =         0.00000000
  -V(xc)+E(xc)   XCENC  =        91.78703810
  PAW double counting   =      2906.72906803    -7316.97461623
  entropy T*S    EENTRO =         0.00000000
  eigenvalues    EBANDS =      -220.16493343
  atomic energy  EATOM  =      3601.51511230
  ---------------------------------------------------
  free energy    TOTEN  =     -4312.58331041 eV

  energy without entropy =    -4312.58331041  energy(sigma->0) =    -4312.58331041
  exchange ACFDT corr.  =         0.00000000  see jH, gK, PRB 81, 115126


--------------------------------------------------------------------------------------------------------




--------------------------------------- Iteration      1(   2)  ---------------------------------------


 BZINTS: Fermi energy:   -1.042178;   48.000000 electrons
         Band energy:-0.560159E+03;  BLOECHL correction:    0.000000
    TRIAL :  cpu time      0.1203: real time      0.1242
 BZINTS: Fermi energy:   -1.042178;   48.000000 electrons
         Band energy:-0.560159E+03;  BLOECHL correction:    0.000000
    CORREC:  cpu time      0.0006: real time      0.0007
    --------------------------------------------
      LOOP:  cpu time      0.1400: real time      0.1473

 eigenvalue-minimisations  :  2548
 total energy-change (2. order) :-0.3399945E+03  (-0.3153786E+03)
 number of electron      48.0000000 magnetization 
 augmentation part       48.0000000 magnetization 

 Free energy of the ion-electron system (eV)
  ---------------------------------------------------
  alpha Z        PSCENC =       211.09225997
  Ewald energy   TEWEN  =     -2610.87633660
  -Hartree energ DENC   =      -975.69090256
  -exchange      EXHF   =         0.00000000
  -V(xc)+E(xc)   XCENC  =        91.78703810
  PAW double counting   =      2906.72906803    -7316.97461623
  entropy T*S    EENTRO =         0.00000000
  eigenvalues    EBANDS =      -560.15939175
  atomic energy  EATOM  =      3601.51511230
  ---------------------------------------------------
  free energy    TOTEN  =     -4652.57776874 eV

  energy without entropy =    -4652.57776874  energy(sigma->0) =    -4652.57776874
  exchange ACFDT corr.  =         0.00000000  see jH, gK, PRB 81, 115126


--------------------------------------------------------------------------------------------------------




--------------------------------------- Iteration      1(   3)  ---------------------------------------


 BZINTS: Fermi energy:   -2.507037;   48.000000 electrons
         Band energy:-0.590067E+03;  BLOECHL correction:    0.000000
    TRIAL :  cpu time      0.1385: real time      0.1395
 BZINTS: Fermi energy:   -2.507037;   48.000000 electrons
         Band energy:-0.590067E+03;  BLOECHL correction:    0.000000
    CORREC:  cpu time      0.0006: real time      0.0006
    --------------------------------------------
      LOOP:  cpu time      0.1516: real time      0.1629

 eigenvalue-minimisations  :  2912
 total energy-change (2. order) :-0.2990774E+02  (-0.2936737E+02)
 number of electron      48.0000000 magnetization 
 augmentation part       48.0000000 magnetization 

 Free energy of the ion-electron system (eV)
  ---------------------------------------------------
  alpha Z        PSCENC =       211.09225997
  Ewald energy   TEWEN  =     -2610.87633660
  -Hartree energ DENC   =      -975.69090256
  -exchange      EXHF   =         0.00000000
  -V(xc)+E(xc)   XCENC  =        91.78703810
  PAW double counting   =      2906.72906803    -7316.97461623
  entropy T*S    EENTRO =         0.00000000
  eigenvalues    EBANDS =      -590.06712762
  atomic energy  EATOM  =      3601.51511230
  ---------------------------------------------------
  free energy    TOTEN  =     -4682.48550460 eV

  energy without entropy =    -4682.48550460  energy(sigma->0) =    -4682.48550460
  exchange ACFDT corr.  =         0.00000000  see jH, gK, PRB 81, 115126


--------------------------------------------------------------------------------------------------------




--------------------------------------- Iteration      1(   4)  ---------------------------------------


 BZINTS: Fermi energy:   -2.507340;   48.000000 electrons
         Band energy:-0.591389E+03;  BLOECHL correction:    0.000000
    TRIAL :  cpu time      0.1158: real time      0.1167
 BZINTS: Fermi energy:   -2.507340;   48.000000 electrons
         Band energy:-0.591389E+03;  BLOECHL correction:    0.000000
    CORREC:  cpu time      0.0006: real time      0.0006
    --------------------------------------------
      LOOP:  cpu time      0.1321: real time      0.1390

 eigenvalue-minimisations  :  2520
 total energy-change (2. order) :-0.1321774E+01  (-0.1309962E+01)
 number of electron      48.0000000 magnetization 
 augmentation part       48.0000000 magnetization 

 Free energy of the ion-electron system (eV)
  ---------------------------------------------------
  alpha Z        PSCENC =       211.09225997
  Ewald energy   TEWEN  =     -2610.87633660
  -Hartree energ DENC   =      -975.69090256
  -exchange      EXHF   =         0.00000000
  -V(xc)+E(xc)   XCENC  =        91.78703810
  PAW double counting   =      2906.72906803    -7316.97461623
  entropy T*S    EENTRO =         0.00000000
  eigenvalues    EBANDS =      -591.38890164
  atomic energy  EATOM  =      3601.51511230
  ---------------------------------------------------
  free energy    TOTEN  =     -4683.80727863 eV

  energy without entropy =    -4683.80727863  energy(sigma->0) =    -4683.80727863
  exchange ACFDT corr.  =         0.00000000  see jH, gK, PRB 81, 115126


--------------------------------------------------------------------------------------------------------




--------------------------------------- Iteration      1(   5)  ---------------------------------------


    POTLOK:  cpu time      0.0163: real time      0.0164
    SETDIJ:  cpu time      0.1771: real time      0.1777
 BZINTS: Fermi energy:   -4.616999;   48.000000 electrons
         Band energy:-0.678861E+03;  BLOECHL correction:    0.000000
    TRIAL :  cpu time     10.0817: real time     10.1365
 BZINTS: Fermi energy:   -4.616999;   48.000000 electrons
         Band energy:-0.678861E+03;  BLOECHL correction:    0.000000
    CORREC:  cpu time      0.0006: real time      0.0006
    CHARGE:  cpu time      0.0141: real time      0.0170
    --------------------------------------------
      LOOP:  cpu time     10.3028: real time     10.3707

 eigenvalue-minimisations  :  2548
 total energy-change (2. order) : 0.4603682E+04  (-0.1401050E+01)
 number of electron      47.9999980 magnetization 
 augmentation part        5.2648153 magnetization 

 Free energy of the ion-electron system (eV)
  ---------------------------------------------------
  alpha Z        PSCENC =       211.09225997
  Ewald energy   TEWEN  =     -2610.87633660
  -Hartree energ DENC   =      -975.69090256
  -exchange      EXHF   =       201.78505890
  -V(xc)+E(xc)   XCENC  =        57.18610726
  PAW double counting   =      2937.36709177    -2823.64318042
  entropy T*S    EENTRO =         0.00000000
  eigenvalues    EBANDS =      -678.86060256
  atomic energy  EATOM  =      3601.51511230
  ---------------------------------------------------
  free energy    TOTEN  =       -80.12539194 eV

  energy without entropy =      -80.12539194  energy(sigma->0) =      -80.12539194
  exchange ACFDT corr.  =        -0.00000000  see jH, gK, PRB 81, 115126


--------------------------------------------------------------------------------------------------------




--------------------------------------- Iteration      1(   6)  ---------------------------------------


    POTLOK:  cpu time      0.0172: real time      0.0173
    SETDIJ:  cpu time      0.1759: real time      0.1764
    TRIAL :  cpu time     10.0104: real time     10.0625
 BZINTS: Fermi energy:   -2.106879;   48.000000 electrons
         Band energy:-0.609943E+03;  BLOECHL correction:    0.000000
    CORREC:  cpu time      0.0008: real time      0.0008
    CHARGE:  cpu time      0.0049: real time      0.0049
    --------------------------------------------
      LOOP:  cpu time     10.2253: real time     10.2834

 eigenvalue-minimisations  :     0
 total energy-change (2. order) : 0.3642252E+02  (-0.3639297E+02)
 number of electron      47.9999984 magnetization 
 augmentation part        4.6143983 magnetization 

 Free energy of the ion-electron system (eV)
  ---------------------------------------------------
  alpha Z        PSCENC =       211.09225997
  Ewald energy   TEWEN  =     -2610.87633660
  -Hartree energ DENC   =     -1283.60691922
  -exchange      EXHF   =       202.93335649
  -V(xc)+E(xc)   XCENC  =        69.67520269
  PAW double counting   =      4309.58190823    -4217.84633699
  entropy T*S    EENTRO =         0.00000000
  eigenvalues    EBANDS =      -326.17112236
  atomic energy  EATOM  =      3601.51511230
  ---------------------------------------------------
  free energy    TOTEN  =       -43.70287549 eV

  energy without entropy =      -43.70287549  energy(sigma->0) =      -43.70287549
  exchange ACFDT corr.  =        -0.00000000  see jH, gK, PRB 81, 115126


--------------------------------------------------------------------------------------------------------




--------------------------------------- Iteration      1(   7)  ---------------------------------------


    POTLOK:  cpu time      0.0166: real time      0.0167
    SETDIJ:  cpu time      0.1783: real time      0.1788
    TRIAL :  cpu time      9.9709: real time     10.0196
 BZINTS: Fermi energy:   -0.508099;   48.000000 electrons
         Band energy:-0.563082E+03;  BLOECHL correction:    0.000000
    CORREC:  cpu time      0.0009: real time      0.0009
    CHARGE:  cpu time      0.0043: real time      0.0043
    --------------------------------------------
      LOOP:  cpu time     10.1910: real time     10.2419

 eigenvalue-minimisations  :     0
 total energy-change (2. order) :-0.2081111E+02  (-0.4005727E+01)
 number of electron      47.9999986 magnetization 
 augmentation part        4.1797613 magnetization 

 Free energy of the ion-electron system (eV)
  ---------------------------------------------------
  alpha Z        PSCENC =       211.09225997
  Ewald energy   TEWEN  =     -2610.87633660
  -Hartree energ DENC   =     -1116.78663655
  -exchange      EXHF   =       190.46041250
  -V(xc)+E(xc)   XCENC  =        62.85179703
  PAW double counting   =      4329.36451177    -4233.19961800
  entropy T*S    EENTRO =         0.00000000
  eigenvalues    EBANDS =      -498.93548913
  atomic energy  EATOM  =      3601.51511230
  ---------------------------------------------------
  free energy    TOTEN  =       -64.51398671 eV

  energy without entropy =      -64.51398671  energy(sigma->0) =      -64.51398671
  exchange ACFDT corr.  =        -0.02451234  see jH, gK, PRB 81, 115126


--------------------------------------------------------------------------------------------------------




--------------------------------------- Iteration      1(   8)  ---------------------------------------


    POTLOK:  cpu time      0.0135: real time      0.0136
    SETDIJ:  cpu time      0.1793: real time      0.1799
    TRIAL :  cpu time      9.9496: real time     10.0614
 BZINTS: Fermi energy:    0.105058;   48.000000 electrons
         Band energy:-0.547218E+03;  BLOECHL correction:    0.000000
    CORREC:  cpu time      0.0007: real time      0.0007
    CHARGE:  cpu time      0.0045: real time      0.0045
    --------------------------------------------
      LOOP:  cpu time     10.1740: real time     10.2928

 eigenvalue-minimisations  :     0
 total energy-change (2. order) :-0.1390518E+00  (-0.3348462E+01)
 number of electron      47.9999986 magnetization 
 augmentation part        4.1081250 magnetization 

 Free energy of the ion-electron system (eV)
  ---------------------------------------------------
  alpha Z        PSCENC =       211.09225997
  Ewald energy   TEWEN  =     -2610.87633660
  -Hartree energ DENC   =     -1037.56221930
  -exchange      EXHF   =       183.94865604
  -V(xc)+E(xc)   XCENC  =        59.45344594
  PAW double counting   =      4303.84898599    -4205.34470318
  entropy T*S    EENTRO =         0.00000000
  eigenvalues    EBANDS =      -570.72823964
  atomic energy  EATOM  =      3601.51511230
  ---------------------------------------------------
  free energy    TOTEN  =       -64.65303847 eV

  energy without entropy =      -64.65303847  energy(sigma->0) =      -64.65303847
  exchange ACFDT corr.  =        -0.00000000  see jH, gK, PRB 81, 115126


--------------------------------------------------------------------------------------------------------




--------------------------------------- Iteration      1(   9)  ---------------------------------------


    POTLOK:  cpu time      0.0164: real time      0.0164
    SETDIJ:  cpu time      0.1777: real time      0.1781
    TRIAL :  cpu time      9.9765: real time     10.0267
 BZINTS: Fermi energy:    0.101598;   48.000000 electrons
         Band energy:-0.544727E+03;  BLOECHL correction:    0.000000
    CORREC:  cpu time      0.0009: real time      0.0009
    CHARGE:  cpu time      0.0043: real time      0.0043
    --------------------------------------------
      LOOP:  cpu time     10.1972: real time     10.2495

 eigenvalue-minimisations  :     0
 total energy-change (2. order) :-0.2339340E+01  (-0.1902520E+01)
 number of electron      47.9999985 magnetization 
 augmentation part        4.1795295 magnetization 

 Free energy of the ion-electron system (eV)
  ---------------------------------------------------
  alpha Z        PSCENC =       211.09225997
  Ewald energy   TEWEN  =     -2610.87633660
  -Hartree energ DENC   =     -1046.27381705
  -exchange      EXHF   =       184.15762326
  -V(xc)+E(xc)   XCENC  =        59.80690346
  PAW double counting   =      4249.12186430    -4150.70011918
  entropy T*S    EENTRO =         0.00000000
  eigenvalues    EBANDS =      -564.83586904
  atomic energy  EATOM  =      3601.51511230
  ---------------------------------------------------
  free energy    TOTEN  =       -66.99237857 eV

  energy without entropy =      -66.99237857  energy(sigma->0) =      -66.99237857
  exchange ACFDT corr.  =        -0.00000000  see jH, gK, PRB 81, 115126


--------------------------------------------------------------------------------------------------------




--------------------------------------- Iteration      1(  10)  ---------------------------------------


    POTLOK:  cpu time      0.0163: real time      0.0163
    SETDIJ:  cpu time      0.1776: real time      0.1781
    TRIAL :  cpu time      9.9699: real time     10.0158
 BZINTS: Fermi energy:    0.214866;   48.000000 electrons
         Band energy:-0.543244E+03;  BLOECHL correction:    0.000000
    CORREC:  cpu time      0.0008: real time      0.0008
    CHARGE:  cpu time      0.0042: real time      0.0042
    --------------------------------------------
      LOOP:  cpu time     10.1900: real time     10.2387

 eigenvalue-minimisations  :     0
 total energy-change (2. order) :-0.8817420E+00  (-0.1563820E+00)
 number of electron      47.9999985 magnetization 
 augmentation part        4.2252084 magnetization 

 Free energy of the ion-electron system (eV)
  ---------------------------------------------------
  alpha Z        PSCENC =       211.09225997
  Ewald energy   TEWEN  =     -2610.87633660
  -Hartree energ DENC   =     -1072.26229096
  -exchange      EXHF   =       185.84258438
  -V(xc)+E(xc)   XCENC  =        60.91540572
  PAW double counting   =      4208.48139699    -4110.54542327
  entropy T*S    EENTRO =         0.00000000
  eigenvalues    EBANDS =      -542.03682911
  atomic energy  EATOM  =      3601.51511230
  ---------------------------------------------------
  free energy    TOTEN  =       -67.87412057 eV

  energy without entropy =      -67.87412057  energy(sigma->0) =      -67.87412057
  exchange ACFDT corr.  =        -0.00000000  see jH, gK, PRB 81, 115126


--------------------------------------------------------------------------------------------------------




--------------------------------------- Iteration      1(  11)  ---------------------------------------


    POTLOK:  cpu time      0.0162: real time      0.0163
    SETDIJ:  cpu time      0.1789: real time      0.1794
    TRIAL :  cpu time      9.9611: real time     10.0049
 BZINTS: Fermi energy:    0.166986;   48.000000 electrons
         Band energy:-0.541186E+03;  BLOECHL correction:    0.000000
    CORREC:  cpu time      0.0008: real time      0.0008
    CHARGE:  cpu time      0.0042: real time      0.0042
    --------------------------------------------
      LOOP:  cpu time     10.1802: real time     10.2272

 eigenvalue-minimisations  :     0
 total energy-change (2. order) :-0.2314346E-01  (-0.2163762E+00)
 number of electron      47.9999985 magnetization 
 augmentation part        4.2173820 magnetization 

 Free energy of the ion-electron system (eV)
  ---------------------------------------------------
  alpha Z        PSCENC =       211.09225997
  Ewald energy   TEWEN  =     -2610.87633660
  -Hartree energ DENC   =     -1079.23070852
  -exchange      EXHF   =       186.21992356
  -V(xc)+E(xc)   XCENC  =        61.21771250
  PAW double counting   =      4192.39327105    -4094.47842114
  entropy T*S    EENTRO =         0.00000000
  eigenvalues    EBANDS =      -535.75007716
  atomic energy  EATOM  =      3601.51511230
  ---------------------------------------------------
  free energy    TOTEN  =       -67.89726403 eV

  energy without entropy =      -67.89726403  energy(sigma->0) =      -67.89726403
  exchange ACFDT corr.  =        -0.00000000  see jH, gK, PRB 81, 115126


--------------------------------------------------------------------------------------------------------




--------------------------------------- Iteration      1(  12)  ---------------------------------------


    POTLOK:  cpu time      0.0157: real time      0.0158
    SETDIJ:  cpu time      0.1791: real time      0.1796
    TRIAL :  cpu time      9.9745: real time     10.0190
 BZINTS: Fermi energy:    0.180521;   48.000000 electrons
         Band energy:-0.540758E+03;  BLOECHL correction:    0.000000
    CORREC:  cpu time      0.0007: real time      0.0007
    CHARGE:  cpu time      0.0042: real time      0.0042
    --------------------------------------------
      LOOP:  cpu time     10.1918: real time     10.2421

 eigenvalue-minimisations  :     0
 total energy-change (2. order) :-0.1262783E+00  (-0.5692858E-01)
 number of electron      47.9999985 magnetization 
 augmentation part        4.1993238 magnetization 

 Free energy of the ion-electron system (eV)
  ---------------------------------------------------
  alpha Z        PSCENC =       211.09225997
  Ewald energy   TEWEN  =     -2610.87633660
  -Hartree energ DENC   =     -1071.41668143
  -exchange      EXHF   =       185.57580938
  -V(xc)+E(xc)   XCENC  =        60.89873081
  PAW double counting   =      4191.21662526    -4093.07339351
  entropy T*S    EENTRO =         0.00000000
  eigenvalues    EBANDS =      -542.95566850
  atomic energy  EATOM  =      3601.51511230
  ---------------------------------------------------
  free energy    TOTEN  =       -68.02354231 eV

  energy without entropy =      -68.02354231  energy(sigma->0) =      -68.02354231
  exchange ACFDT corr.  =        -0.00000000  see jH, gK, PRB 81, 115126


--------------------------------------------------------------------------------------------------------




--------------------------------------- Iteration      1(  13)  ---------------------------------------


    POTLOK:  cpu time      0.0162: real time      0.0163
    SETDIJ:  cpu time      0.1783: real time      0.1788
    TRIAL :  cpu time      9.9646: real time     10.0088
 BZINTS: Fermi energy:    0.080684;   48.000000 electrons
         Band energy:-0.542276E+03;  BLOECHL correction:    0.000000
    CORREC:  cpu time      0.0008: real time      0.0008
    CHARGE:  cpu time      0.0041: real time      0.0041
    --------------------------------------------
      LOOP:  cpu time     10.1829: real time     10.2325

 eigenvalue-minimisations  :     0
 total energy-change (2. order) :-0.1311536E-01  (-0.1510419E-01)
 number of electron      47.9999985 magnetization 
 augmentation part        4.1972875 magnetization 

 Free energy of the ion-electron system (eV)
  ---------------------------------------------------
  alpha Z        PSCENC =       211.09225997
  Ewald energy   TEWEN  =     -2610.87633660
  -Hartree energ DENC   =     -1064.53740932
  -exchange      EXHF   =       185.06748532
  -V(xc)+E(xc)   XCENC  =        60.61944163
  PAW double counting   =      4194.43786464    -4096.19836188
  entropy T*S    EENTRO =         0.00000000
  eigenvalues    EBANDS =      -549.15671374
  atomic energy  EATOM  =      3601.51511230
  ---------------------------------------------------
  free energy    TOTEN  =       -68.03665767 eV

  energy without entropy =      -68.03665767  energy(sigma->0) =      -68.03665767
  exchange ACFDT corr.  =        -0.00000000  see jH, gK, PRB 81, 115126


--------------------------------------------------------------------------------------------------------




--------------------------------------- Iteration      1(  14)  ---------------------------------------


    POTLOK:  cpu time      0.0140: real time      0.0141
    SETDIJ:  cpu time      0.1805: real time      0.1811
    TRIAL :  cpu time      9.9697: real time     10.0153
 BZINTS: Fermi energy:    0.040467;   48.000000 electrons
         Band energy:-0.544275E+03;  BLOECHL correction:    0.000000
    CORREC:  cpu time      0.0008: real time      0.0008
    CHARGE:  cpu time      0.0041: real time      0.0041
    --------------------------------------------
      LOOP:  cpu time     10.1872: real time     10.2374

 eigenvalue-minimisations  :     0
 total energy-change (2. order) :-0.9456457E-02  (-0.1505515E-01)
 number of electron      47.9999985 magnetization 
 augmentation part        4.2044799 magnetization 

 Free energy of the ion-electron system (eV)
  ---------------------------------------------------
  alpha Z        PSCENC =       211.09225997
  Ewald energy   TEWEN  =     -2610.87633660
  -Hartree energ DENC   =     -1064.25179216
  -exchange      EXHF   =       185.08211185
  -V(xc)+E(xc)   XCENC  =        60.61577232
  PAW double counting   =      4196.41763653    -4098.27005049
  entropy T*S    EENTRO =         0.00000000
  eigenvalues    EBANDS =      -549.37082784
  atomic energy  EATOM  =      3601.51511230
  ---------------------------------------------------
  free energy    TOTEN  =       -68.04611413 eV

  energy without entropy =      -68.04611413  energy(sigma->0) =      -68.04611413
  exchange ACFDT corr.  =        -0.00000000  see jH, gK, PRB 81, 115126


--------------------------------------------------------------------------------------------------------




--------------------------------------- Iteration      1(  15)  ---------------------------------------


    POTLOK:  cpu time      0.0145: real time      0.0145
    SETDIJ:  cpu time      0.1796: real time      0.1800
    TRIAL :  cpu time      9.9616: real time     10.0079
 BZINTS: Fermi energy:    0.000486;   48.000000 electrons
         Band energy:-0.545655E+03;  BLOECHL correction:    0.000000
    CORREC:  cpu time      0.0007: real time      0.0007
    CHARGE:  cpu time      0.0040: real time      0.0040
    --------------------------------------------
      LOOP:  cpu time     10.1730: real time     10.2306

 eigenvalue-minimisations  :     0
 total energy-change (2. order) :-0.8071119E-02  (-0.2388644E-02)
 number of electron      47.9999985 magnetization 
 augmentation part        4.2097905 magnetization 

 Free energy of the ion-electron system (eV)
  ---------------------------------------------------
  alpha Z        PSCENC =       211.09225997
  Ewald energy   TEWEN  =     -2610.87633660
  -Hartree energ DENC   =     -1066.48745280
  -exchange      EXHF   =       185.28308606
  -V(xc)+E(xc)   XCENC  =        60.71347684
  PAW double counting   =      4197.23117307    -4099.17243071
  entropy T*S    EENTRO =         0.00000000
  eigenvalues    EBANDS =      -547.35307338
  atomic energy  EATOM  =      3601.51511230
  ---------------------------------------------------
  free energy    TOTEN  =       -68.05418525 eV

  energy without entropy =      -68.05418525  energy(sigma->0) =      -68.05418525
  exchange ACFDT corr.  =        -0.00000000  see jH, gK, PRB 81, 115126


--------------------------------------------------------------------------------------------------------




--------------------------------------- Iteration      1(  16)  ---------------------------------------


    POTLOK:  cpu time      0.0135: real time      0.0136
    SETDIJ:  cpu time      0.1818: real time      0.1823
    TRIAL :  cpu time      9.9649: real time     10.0099
 BZINTS: Fermi energy:   -0.036737;   48.000000 electrons
         Band energy:-0.546300E+03;  BLOECHL correction:    0.000000
    CORREC:  cpu time      0.0007: real time      0.0007
    CHARGE:  cpu time      0.0040: real time      0.0041
    --------------------------------------------
      LOOP:  cpu time     10.1880: real time     10.2342

 eigenvalue-minimisations  :     0
 total energy-change (2. order) :-0.7448747E-03  (-0.1468753E-02)
 number of electron      47.9999985 magnetization 
 augmentation part        4.2097326 magnetization 

 Free energy of the ion-electron system (eV)
  ---------------------------------------------------
  alpha Z        PSCENC =       211.09225997
  Ewald energy   TEWEN  =     -2610.87633660
  -Hartree energ DENC   =     -1067.75806528
  -exchange      EXHF   =       185.39603274
  -V(xc)+E(xc)   XCENC  =        60.76655824
  PAW double counting   =      4197.73941273    -4099.68818368
  entropy T*S    EENTRO =         0.00000000
  eigenvalues    EBANDS =      -546.24172055
  atomic energy  EATOM  =      3601.51511230
  ---------------------------------------------------
  free energy    TOTEN  =       -68.05493012 eV

  energy without entropy =      -68.05493012  energy(sigma->0) =      -68.05493012
  exchange ACFDT corr.  =        -0.00000000  see jH, gK, PRB 81, 115126


--------------------------------------------------------------------------------------------------------




--------------------------------------- Iteration      1(  17)  ---------------------------------------


    POTLOK:  cpu time      0.0147: real time      0.0148
    SETDIJ:  cpu time      0.1782: real time      0.1787
    TRIAL :  cpu time      9.9665: real time     10.0129
 BZINTS: Fermi energy:   -0.069026;   48.000000 electrons
         Band energy:-0.546557E+03;  BLOECHL correction:    0.000000
    CORREC:  cpu time      0.0008: real time      0.0008
    CHARGE:  cpu time      0.0041: real time      0.0041
    --------------------------------------------
      LOOP:  cpu time     10.1734: real time     10.2329

 eigenvalue-minimisations  :     0
 total energy-change (2. order) :-0.9391638E-03  (-0.7028618E-03)
 number of electron      47.9999985 magnetization 
 augmentation part        4.2075043 magnetization 

 Free energy of the ion-electron system (eV)
  ---------------------------------------------------
  alpha Z        PSCENC =       211.09225997
  Ewald energy   TEWEN  =     -2610.87633660
  -Hartree energ DENC   =     -1067.67727314
  -exchange      EXHF   =       185.39556259
  -V(xc)+E(xc)   XCENC  =        60.76149298
  PAW double counting   =      4198.09268126    -4100.00527531
  entropy T*S    EENTRO =         0.00000000
  eigenvalues    EBANDS =      -546.35409334
  atomic energy  EATOM  =      3601.51511230
  ---------------------------------------------------
  free energy    TOTEN  =       -68.05586929 eV

  energy without entropy =      -68.05586929  energy(sigma->0) =      -68.05586929
  exchange ACFDT corr.  =        -0.00000000  see jH, gK, PRB 81, 115126


--------------------------------------------------------------------------------------------------------




--------------------------------------- Iteration      1(  18)  ---------------------------------------


    POTLOK:  cpu time      0.0141: real time      0.0141
    SETDIJ:  cpu time      0.1801: real time      0.1806
    TRIAL :  cpu time      9.9582: real time     10.0134
 BZINTS: Fermi energy:   -0.037594;   48.000000 electrons
         Band energy:-0.546696E+03;  BLOECHL correction:    0.000000
    CORREC:  cpu time      0.0008: real time      0.0008
    CHARGE:  cpu time      0.0040: real time      0.0040
    --------------------------------------------
      LOOP:  cpu time     10.1778: real time     10.2362

 eigenvalue-minimisations  :     0
 total energy-change (2. order) :-0.2951137E-03  (-0.7898683E-04)
 number of electron      47.9999985 magnetization 
 augmentation part        4.2062638 magnetization 

 Free energy of the ion-electron system (eV)
  ---------------------------------------------------
  alpha Z        PSCENC =       211.09225997
  Ewald energy   TEWEN  =     -2610.87633660
  -Hartree energ DENC   =     -1067.24698015
  -exchange      EXHF   =       185.36395060
  -V(xc)+E(xc)   XCENC  =        60.74222701
  PAW double counting   =      4198.34549987    -4100.23000700
  entropy T*S    EENTRO =         0.00000000
  eigenvalues    EBANDS =      -546.76189040
  atomic energy  EATOM  =      3601.51511230
  ---------------------------------------------------
  free energy    TOTEN  =       -68.05616440 eV

  energy without entropy =      -68.05616440  energy(sigma->0) =      -68.05616440
  exchange ACFDT corr.  =        -0.00000000  see jH, gK, PRB 81, 115126


--------------------------------------------------------------------------------------------------------




--------------------------------------- Iteration      1(  19)  ---------------------------------------


    POTLOK:  cpu time      0.0134: real time      0.0135
    SETDIJ:  cpu time      0.1807: real time      0.1812
    TRIAL :  cpu time      9.9486: real time      9.9952
 BZINTS: Fermi energy:   -0.060422;   48.000000 electrons
         Band energy:-0.546783E+03;  BLOECHL correction:    0.000000
    CORREC:  cpu time      0.0008: real time      0.0008
    CHARGE:  cpu time      0.0040: real time      0.0041
    --------------------------------------------
      LOOP:  cpu time     10.1663: real time     10.2183

 eigenvalue-minimisations  :     0
 total energy-change (2. order) :-0.2139404E-04  (-0.1026491E-03)
 number of electron      47.9999985 magnetization 
 augmentation part        4.2060909 magnetization 

 Free energy of the ion-electron system (eV)
  ---------------------------------------------------
[...]
  band No.  band energies     occupation 
      1     -38.5384      2.00000
      2     -38.5384      2.00000
      3     -20.1400      2.00000
      4     -20.1400      2.00000
      5     -19.6746      2.00000
      6     -19.6746      2.00000
      7     -17.7839      2.00000
      8     -17.7838      2.00000
      9     -15.6143      2.00000
     10     -15.6143      2.00000
     11     -15.1355      2.00000
     12     -15.1355      2.00000
     13      -2.9440      2.00000
     14      -2.9439      2.00000
     15      -2.6316      2.00000
     16      -2.6315      2.00000
     17      -2.5786      2.00000
     18      -2.5785      2.00000
     19      -2.0862      2.00000
     20      -2.0862      2.00000
     21      -0.7674      2.00000
     22      -0.7673      2.00000
     23      -0.6006      2.00000
     24      -0.6005      2.00000
     25       7.7336      0.00000
     26       7.7343      0.00000
     27       8.2729      0.00000
     28       8.2732      0.00000
     29       9.1510      0.00000
     30       9.1513      0.00000
     31      10.1747      0.00000
     32      10.1753      0.00000
     33      10.9184      0.00000
     34      10.9188      0.00000
     35      12.6264      0.00000
     36      12.6266      0.00000
     37      13.0634      0.00000
     38      13.0640      0.00000
     39      13.7456      0.00000
     40      13.7462      0.00000
     41      14.8001      0.00000
     42      14.8004      0.00000
     43      16.5300      0.00000
     44      16.5301      0.00000
     45      17.6799      0.00000
     46      17.6799      0.00000
     47      20.1251      0.00000
     48      20.1254      0.00000
     49      20.4021      0.00000
     50      20.4025      0.00000
     51      21.3095      0.00000
     52      21.3098      0.00000
     53      22.4935      0.00000
     54      22.5146      0.00000
     55      22.6554      0.00000
     56      22.6731      0.00000

 k-point     9 :      -0.2500    0.2500    0.2500
  band No.  band energies     occupation 
      1     -38.5787      2.00000
      2     -38.5099      2.00000
      3     -20.0986      2.00000
      4     -19.9207      2.00000
      5     -18.9599      2.00000
      6     -18.3665      2.00000
      7     -18.2491      2.00000
      8     -17.9436      2.00000
      9     -17.1168      2.00000
     10     -16.7374      2.00000
     11     -15.3346      2.00000
     12     -15.3115      2.00000
     13      -2.7647      2.00000
     14      -2.6012      2.00000
     15      -2.4467      2.00000
     16      -1.8915      2.00000
     17      -1.7722      2.00000
     18      -1.5433      2.00000
     19      -1.5177      2.00000
     20      -1.1434      2.00000
     21      -0.9606      2.00000
     22      -0.8635      2.00000
     23      -0.6340      2.00000
     24      -0.1646      2.00000
     25       7.0844      0.00000
     26       7.4243      0.00000
     27       7.5552      0.00000
     28       7.8708      0.00000
     29       8.4661      0.00000
     30       8.6503      0.00000
     31       9.0737      0.00000
     32       9.6545      0.00000
     33      10.1172      0.00000
     34      11.2240      0.00000
     35      11.6875      0.00000
     36      12.5233      0.00000
     37      12.9096      0.00000
     38      12.9865      0.00000
     39      13.0262      0.00000
     40      14.5886      0.00000
     41      14.8938      0.00000
     42      16.1632      0.00000
     43      17.0714      0.00000
     44      17.2418      0.00000
     45      17.5164      0.00000
     46      17.9028      0.00000
     47      18.7395      0.00000
     48      19.4635      0.00000
     49      19.6051      0.00000
     50      20.0665      0.00000
     51      20.6150      0.00000
     52      21.0949      0.00000
     53      21.3408      0.00000
     54      21.8208      0.00000
     55      22.3903      0.00000
     56      23.4631      0.00000

 k-point    10 :       0.5000    0.5000    0.2500
  band No.  band energies     occupation 
      1     -38.5445      2.00000
      2     -38.5445      2.00000
      3     -19.7999      2.00000
      4     -19.7999      2.00000
      5     -19.2481      2.00000
      6     -19.2481      2.00000
      7     -17.8460      2.00000
      8     -17.8460      2.00000
      9     -16.4445      2.00000
     10     -16.4445      2.00000
     11     -15.7089      2.00000
     12     -15.7089      2.00000
     13      -2.6659      2.00000
     14      -2.6659      2.00000
     15      -1.8826      2.00000
     16      -1.8826      2.00000
     17      -1.7177      2.00000
     18      -1.7175      2.00000
     19      -1.3656      2.00000
     20      -1.3655      2.00000
     21      -0.9536      2.00000
     22      -0.9535      2.00000
     23      -0.5299      2.00000
     24      -0.5298      2.00000
     25       6.8043      0.00000
     26       6.8045      0.00000
     27       7.9392      0.00000
     28       7.9392      0.00000
     29       8.2309      0.00000
     30       8.2312      0.00000
     31       9.5448      0.00000
     32       9.5449      0.00000
     33      10.8380      0.00000
     34      10.8385      0.00000
     35      12.5174      0.00000
     36      12.5176      0.00000
     37      12.7608      0.00000
     38      12.7611      0.00000
     39      14.2133      0.00000
     40      14.2139      0.00000
     41      15.9668      0.00000
     42      15.9670      0.00000
     43      16.7360      0.00000
     44      16.7362      0.00000
     45      17.6894      0.00000
     46      17.6897      0.00000
     47      18.4593      0.00000
     48      18.4595      0.00000
     49      19.9062      0.00000
     50      19.9064      0.00000
     51      20.6619      0.00000
     52      20.6620      0.00000
     53      21.9444      0.00000
     54      21.9446      0.00000
     55      22.8608      0.00000
     56      22.8611      0.00000

 k-point    11 :      -0.2500    0.5000    0.2500
  band No.  band energies     occupation 
      1     -38.5718      2.00000
      2     -38.5231      2.00000
      3     -19.7560      2.00000
      4     -19.6023      2.00000
      5     -18.8463      2.00000
      6     -18.3369      2.00000
      7     -18.2771      2.00000
      8     -17.9259      2.00000
      9     -17.3022      2.00000
     10     -16.8595      2.00000
     11     -16.0654      2.00000
     12     -15.7659      2.00000
     13      -2.5532      2.00000
     14      -2.0955      2.00000
     15      -1.7737      2.00000
     16      -1.6322      2.00000
     17      -1.5356      2.00000
     18      -1.3835      2.00000
     19      -1.3031      2.00000
     20      -1.0530      2.00000
     21      -0.9494      2.00000
     22      -0.6221      2.00000
     23      -0.5661      2.00000
     24      -0.1458      2.00000
     25       6.6164      0.00000
     26       6.7477      0.00000
     27       7.1967      0.00000
     28       7.4543      0.00000
     29       7.7691      0.00000
     30       8.0617      0.00000
     31       9.5247      0.00000
     32       9.6939      0.00000
     33      10.0361      0.00000
     34      11.0110      0.00000
     35      11.8151      0.00000
     36      12.4405      0.00000
     37      12.6225      0.00000
     38      13.0692      0.00000
     39      14.0114      0.00000
     40      14.8544      0.00000
     41      14.9901      0.00000
     42      15.7568      0.00000
     43      16.7937      0.00000
     44      17.1560      0.00000
     45      17.6192      0.00000
     46      17.7201      0.00000
     47      18.8032      0.00000
     48      19.0765      0.00000
     49      19.2808      0.00000
     50      19.7808      0.00000
     51      20.4693      0.00000
     52      21.3791      0.00000
     53      21.5592      0.00000
     54      21.9061      0.00000
     55      23.0522      0.00000
     56      23.4050      0.00000

 k-point    12 :      -0.2500   -0.2500    0.2500
  band No.  band energies     occupation 
      1     -38.5990      2.00000
      2     -38.5015      2.00000
      3     -19.6597      2.00000
      4     -18.8770      2.00000
      5     -18.2671      2.00000
      6     -18.2671      2.00000
      7     -17.9492      2.00000
      8     -17.9492      2.00000
      9     -17.8749      2.00000
     10     -17.8180      2.00000
     11     -16.5326      2.00000
     12     -16.1900      2.00000
     13      -2.0997      2.00000
     14      -1.9855      2.00000
     15      -1.4325      2.00000
     16      -1.4325      2.00000
     17      -1.2685      2.00000
     18      -1.2685      2.00000
     19      -0.8240      2.00000
     20      -0.7589      2.00000
     21      -0.7588      2.00000
     22      -0.6692      2.00000
     23      -0.1375      2.00000
     24      -0.1375      2.00000
     25       6.1306      0.00000
     26       6.2736      0.00000
     27       6.9051      0.00000
     28       6.9051      0.00000
     29       7.5515      0.00000
     30       8.2807      0.00000
     31       9.2741      0.00000
     32       9.2741      0.00000
     33      10.2815      0.00000
     34      10.3250      0.00000
     35      11.6902      0.00000
     36      12.0183      0.00000
     37      12.7559      0.00000
     38      12.7560      0.00000
     39      13.2769      0.00000
     40      14.9394      0.00000
     41      15.5439      0.00000
     42      16.2599      0.00000
     43      16.2599      0.00000
     44      16.6884      0.00000
     45      17.1330      0.00000
     46      18.7692      0.00000
     47      18.7692      0.00000
     48      19.6077      0.00000
     49      19.6162      0.00000
     50      19.7100      0.00000
     51      19.7101      0.00000
     52      20.4541      0.00000
     53      23.1325      0.00000
     54      23.3636      0.00000
     55      23.9732      0.00000
     56      24.2495      0.00000

 k-point    13 :       0.5000    0.5000    0.5000
  band No.  band energies     occupation 
      1     -38.5505      2.00000
      2     -38.5505      2.00000
      3     -19.2992      2.00000
      4     -19.2992      2.00000
      5     -18.3023      2.00000
      6     -18.3023      2.00000
      7     -17.9109      2.00000
      8     -17.9109      2.00000
      9     -17.8476      2.00000
     10     -17.8476      2.00000
     11     -16.3274      2.00000
     12     -16.3274      2.00000
     13      -2.1269      2.00000
     14      -2.1269      2.00000
     15      -1.5055      2.00000
     16      -1.5055      2.00000
     17      -1.0175      2.00000
     18      -1.0175      2.00000
     19      -0.9708      2.00000
     20      -0.9708      2.00000
     21      -0.6912      2.00000
     22      -0.6911      2.00000
     23      -0.1172      2.00000
     24      -0.1172      2.00000
     25       6.5132      0.00000
     26       6.5132      0.00000
     27       6.7599      0.00000
     28       6.7599      0.00000
     29       7.2842      0.00000
     30       7.2842      0.00000
     31       9.9581      0.00000
     32       9.9581      0.00000
     33      10.1898      0.00000
     34      10.1898      0.00000
     35      11.9855      0.00000
     36      11.9855      0.00000
     37      12.8639      0.00000
     38      12.8639      0.00000
     39      14.3491      0.00000
     40      14.3491      0.00000
     41      15.8439      0.00000
     42      15.8439      0.00000
     43      15.9483      0.00000
     44      15.9483      0.00000
     45      18.1882      0.00000
     46      18.1882      0.00000
     47      18.9856      0.00000
     48      18.9856      0.00000
     49      19.1502      0.00000
     50      19.1502      0.00000
     51      20.9579      0.00000
     52      20.9579      0.00000
     53      22.0309      0.00000
     54      22.0309      0.00000
     55      24.0763      0.00000
     56      24.3308      0.00000


--------------------------------------------------------------------------------------------------------


 soft charge-density along one line, spin component           1
         0         1         2         3         4         5         6         7         8         9
 total charge-density along one line
 
 pseudopotential strength for first ion, spin component:           1
  1.350   6.094  -0.000   0.000   0.000
  6.094  26.768  -0.000   0.000   0.000
 -0.000  -0.000   5.591  -0.000  -0.000
  0.000   0.000  -0.000   5.593  -0.000
  0.000   0.000  -0.000  -0.000   5.591
 total augmentation occupancy for first ion, spin component:           1
  1.114  -0.106   0.000   0.000  -0.000
 -0.106   0.010  -0.000  -0.000   0.000
  0.000  -0.000   0.033  -0.000   0.000
  0.000  -0.000  -0.000   0.010  -0.000
 -0.000   0.000   0.000  -0.000   0.033


------------------------ aborting loop because EDIFF is reached ----------------------------------------





 total charge

# of ion       s       p       d       tot
------------------------------------------
    1        0.069   0.049   0.000   0.118
    2        0.069   0.049   0.000   0.118
    3        2.090   5.935   0.751   8.776
    4        2.090   5.935   0.751   8.776
    5        1.585   3.491   0.000   5.076
    6        1.585   3.491   0.000   5.076
    7        1.585   3.491   0.000   5.076
    8        1.585   3.491   0.000   5.076
--------------------------------------------------
tot         10.661  25.931   1.502  38.094
 
    FORLOC:  cpu time      0.0012: real time      0.0013
    FORHF :  cpu time     10.3966: real time     10.4810
    FORNL :  cpu time      0.0076: real time      0.0078
    STRESS:  cpu time      0.0859: real time      0.0865
    FORCOR:  cpu time      0.0742: real time      0.1979
    OFIELD:  cpu time      0.0009: real time      0.0010

  FORCE on cell =-STRESS in cart. coord.  units (eV):
  Direction    XX          YY          ZZ          XY          YZ          ZX
  --------------------------------------------------------------------------------------
  Alpha Z   211.09226   211.09226   211.09226
  Ewald    -930.25637  -930.25637  -750.44197     0.00000     0.00000     0.00000
  Hartree   307.26676   307.26676   452.71995     0.00000     0.00008     0.00005
  E(xc)    -136.61916  -136.61916  -136.12370    -0.00027     0.00026     0.00026
  Local     -57.34903   -57.34903  -382.43325    -0.00137    -0.00257    -0.00253
  n-local  -112.04487  -115.03363  -115.66334    -0.08490     0.06061     0.02191
  augment    34.27438    34.27438    34.36573     0.00009     0.00006     0.00007
  Kinetic   802.18807   800.93520   803.23662    -0.03311    -0.27783    -0.07011
  Fock     -122.41068  -122.27796  -122.20839    -0.00241     0.01375     0.00882
  -------------------------------------------------------------------------------------
  Total      -5.91311    -5.91311    -5.45609    -0.00000    -0.00000    -0.00000
  in kB     -76.83070   -76.83070   -70.89256    -0.00000    -0.00000    -0.00000
  external pressure =      -74.85 kB  Pullay stress =        0.00 kB


 VOLUME and BASIS-vectors are now :
 -----------------------------------------------------------------------------
  energy-cutoff  :      400.00
  volume of cell :      123.31
      direct lattice vectors                 reciprocal lattice vectors
    -2.370302142  2.370302142  5.486864492    -0.000000000  0.210943572  0.091126727
     2.370302142 -2.370302142  5.486864492     0.210943572 -0.000000000  0.091126727
     2.370302142  2.370302142 -5.486864492     0.210943572  0.210943572 -0.000000000

  length of vectors
     6.429801431  6.429801431  6.429801431     0.229785271  0.229785271  0.298319260


 FORCES acting on ions:
    Electron-Ion                     Ewald-Force                    Non-Local-Force
 -----------------------------------------------------------------------------------------------
   -.220E-04 0.243E-04 0.300E-07   -.255E-15 -.541E-15 -.167E-15   -.404E-19 -.675E-19 -.622E-18
   0.219E-04 -.243E-04 0.146E-07   -.214E-14 -.677E-15 -.203E-14   -.119E-18 0.261E-18 0.533E-18
   -.752E-05 0.137E-04 0.142E-05   0.818E-15 -.205E-14 0.324E-13   -.497E-18 0.116E-17 0.566E-18
   0.851E-05 -.138E-04 -.154E-05   -.111E-13 0.475E-14 -.148E-13   0.763E-18 -.149E-17 0.264E-17
   -.420E-04 -.621E-04 0.737E+02   0.617E-14 0.352E-14 -.767E+02   -.813E-17 0.173E-17 0.256E+01
   -.584E-04 -.416E-04 0.737E+02   -.682E-14 -.387E-14 -.767E+02   0.261E-18 0.113E-17 0.256E+01
   0.595E-04 0.420E-04 -.737E+02   0.408E-14 0.694E-14 0.767E+02   -.148E-18 0.286E-18 -.256E+01
   0.418E-04 0.620E-04 -.737E+02   0.799E-14 -.785E-14 0.767E+02   0.102E-16 -.747E-17 -.256E+01
 -----------------------------------------------------------------------------------------------
   0.183E-05 0.272E-06 -.157E-05   -.125E-14 0.235E-15 -.142E-13   0.229E-17 -.446E-17 0.000E+00
 
 
 POSITION                                       TOTAL-FORCE (eV/Angst)
 -----------------------------------------------------------------------------------
      2.37030      0.00000      2.74343         0.000000     -0.000000      0.000000
      0.00000      0.00000      5.48686         0.000000     -0.000000      0.000000
      0.00000      0.00000     10.97373         0.000000     -0.000000      0.000000
      0.00000      2.37030      2.74343         0.000000     -0.000000      0.000000
     -0.00000      0.00000      8.56747        -0.000000     -0.000000      0.203614
      0.00000      2.37030      0.33717        -0.000000     -0.000000      0.203614
      0.00000     -0.00000      2.40626         0.000000      0.000000     -0.203614
      0.00000      2.37030      5.14969         0.000000      0.000000     -0.203614
 -----------------------------------------------------------------------------------
    total drift:                                0.000002      0.000000     -0.000002


--------------------------------------------------------------------------------------------------------



  FREE ENERGIE OF THE ION-ELECTRON SYSTEM (eV)
  ---------------------------------------------------
  free  energy   TOTEN  =       -68.05606944 eV

  energy  without entropy=      -68.05606944  energy(sigma->0) =      -68.05606944
 d Force =-0.1750262E-02[-0.429E-02, 0.791E-03]  d Energy =-0.1653108E+00 0.164E+00
 d Force = 0.1647487E+01[ 0.162E+01, 0.168E+01]  d Ewald  =-0.4757118E+02 0.492E+02
 


--------------------------------------------------------------------------------------------------------


    POTLOK:  cpu time      0.1988: real time      0.2012


--------------------------------------------------------------------------------------------------------


 -----------------------------------------------------------------------------
|                                                                             |
|     EEEEEEE  RRRRRR   RRRRRR   OOOOOOO  RRRRRR      ###     ###     ###     |
|     E        R     R  R     R  O     O  R     R     ###     ###     ###     |
|     E        R     R  R     R  O     O  R     R     ###     ###     ###     |
|     EEEEE    RRRRRR   RRRRRR   O     O  RRRRRR       #       #       #      |
|     E        R   R    R   R    O     O  R   R                               |
|     E        R    R   R    R   O     O  R    R      ###     ###     ###     |
|     EEEEEEE  R     R  R     R  OOOOOOO  R     R     ###     ###     ###     |
|                                                                             |
|     ZBRENT: fatal error in bracketing                                       |
|      please rerun with smaller EDIFF, or copy CONTCAR                       |
|      to POSCAR and continue                                                 |
|                                                                             |
|       ---->  I REFUSE TO CONTINUE WITH THIS SICK JOB ... BYE!!! <----       |
|                                                                             |
 -----------------------------------------------------------------------------

