<?xml version="1.0" encoding="ISO-8859-1"?>
<modeling>
 <generator>
  <i name="program" type="string">vasp </i>
  <i name="version" type="string">6.5.1  </i>
  <i name="subversion" type="string">10Mar25 (build May 05 2025 13:45:00) complex                          parallel </i>
  <i name="platform" type="string">LinuxIFC </i>
  <i name="date" type="string">2026 04 27 </i>
  <i name="time" type="string">13:17:40 </i>
 </generator>
 <incar>
  <i type="string" name="PREC">Normal</i>
  <i type="string" name="ALGO">Damped</i>
  <i type="int" name="NELM">   100</i>
  <i type="int" name="IBRION">     2</i>
  <i name="EDIFF">      0.00000010</i>
  <i name="EDIFFG">     -0.00500000</i>
  <i type="int" name="NSW">   300</i>
  <i type="int" name="ISIF">     3</i>
  <i name="ENCUT">    400.00000000</i>
  <i type="logical" name="LREAL"> F  </i>
  <i name="TIME">      0.40000000</i>
  <i type="int" name="ISMEAR">    -5</i>
  <i name="SIGMA">      0.10000000</i>
  <i type="logical" name="LWAVE"> T  </i>
  <i type="logical" name="LCHARG"> F  </i>
  <i type="int" name="LORBIT">    10</i>
  <i type="logical" name="LASPH"> T  </i>
  <i name="HFSCREEN">      0.20000000</i>
  <i type="logical" name="LHFCALC"> T  </i>
  <i name="AEXX">      0.36000000</i>
  <i type="string" name="PRECFOCK">Fast</i>
 </incar>
 <primitive_cell>
  <structure name="primitive_cell" >
   <crystal>
    <varray name="basis" >
     <v>      -2.37030214       2.37030214       5.48686449 </v>
     <v>       2.37030214      -2.37030214       5.48686449 </v>
     <v>       2.37030214       2.37030214      -5.48686449 </v>
    </varray>
    <i name="volume">    123.30811077 </i>
    <varray name="rec_basis" >
     <v>      -0.00000000       0.21094357       0.09112673 </v>
     <v>       0.21094357      -0.00000000       0.09112673 </v>
     <v>       0.21094357       0.21094357      -0.00000000 </v>
    </varray>
   </crystal>
   <varray name="positions" >
    <v>       0.25000000       0.75000000       0.50000000 </v>
    <v>       0.50000000       0.50000000       1.00000000 </v>
    <v>       0.00000000       0.00000000       0.00000000 </v>
    <v>       0.75000000       0.25000000       0.50000000 </v>
    <v>       0.78074772       0.78074772       1.00000000 </v>
    <v>       0.53074772       0.03074772       0.50000000 </v>
    <v>       0.21925228       0.21925228       1.00000000 </v>
    <v>       0.96925228       0.46925228       0.50000000 </v>
   </varray>
  </structure>
  <varray name="primitive_index" >
   <v type="int" >        1 </v>
   <v type="int" >        2 </v>
   <v type="int" >        3 </v>
   <v type="int" >        4 </v>
   <v type="int" >        5 </v>
   <v type="int" >        6 </v>
   <v type="int" >        7 </v>
   <v type="int" >        8 </v>
  </varray>
 </primitive_cell>
 <kpoints>
  <generation param="Gamma">
   <v type="int" name="divisions">       4        4        4 </v>
   <v name="usershift">      0.00000000       0.00000000       0.00000000 </v>
   <v name="genvec1">      0.25000000       0.00000000      -0.00000000 </v>
   <v name="genvec2">      0.00000000       0.25000000      -0.00000000 </v>
   <v name="genvec3">     -0.00000000       0.00000000       0.25000000 </v>
   <v name="shift">      0.00000000       0.00000000       0.00000000 </v>
  </generation>
  <varray name="kpointlist" >
   <v>       0.00000000       0.00000000       0.00000000 </v>
   <v>       0.25000000       0.00000000      -0.00000000 </v>
   <v>       0.50000000       0.00000000      -0.00000000 </v>
   <v>       0.25000000       0.25000000      -0.00000000 </v>
   <v>       0.50000000       0.25000000      -0.00000000 </v>
   <v>      -0.25000000       0.25000000       0.00000000 </v>
   <v>       0.50000000       0.50000000      -0.00000000 </v>
   <v>       0.25000000       0.25000000       0.25000000 </v>
   <v>      -0.25000000       0.25000000       0.25000000 </v>
   <v>       0.50000000       0.50000000       0.25000000 </v>
   <v>      -0.25000000       0.50000000       0.25000000 </v>
   <v>      -0.25000000      -0.25000000       0.25000000 </v>
   <v>       0.50000000       0.50000000       0.50000000 </v>
  </varray>
  <varray name="weights" >
   <v>       0.01562500 </v>
   <v>       0.12500000 </v>
   <v>       0.06250000 </v>
   <v>       0.12500000 </v>
   <v>       0.25000000 </v>
   <v>       0.06250000 </v>
   <v>       0.03125000 </v>
   <v>       0.03125000 </v>
   <v>       0.06250000 </v>
   <v>       0.06250000 </v>
   <v>       0.12500000 </v>
   <v>       0.03125000 </v>
   <v>       0.01562500 </v>
  </varray>
  <varray name="tetrahedronlist"  type="int" >
   <v type="int" >        4        4        5        8       10 </v>
   <v type="int" >        8        4        5       10       11 </v>
   <v type="int" >        4        4       10       11       13 </v>
   <v type="int" >        4        5        9       11       11 </v>
   <v type="int" >        4        5       10       11       11 </v>
   <v type="int" >        4       10       11       11       13 </v>
   <v type="int" >        4        9       10       11       11 </v>
   <v type="int" >        4       10       11       11       11 </v>
   <v type="int" >        4       11       11       11       13 </v>
   <v type="int" >        4        4        5        9       10 </v>
   <v type="int" >        4        4        9       10       11 </v>
   <v type="int" >        4        4       10       11       11 </v>
   <v type="int" >        4        4        5        5       10 </v>
   <v type="int" >        4        3        4        5       10 </v>
   <v type="int" >        4        3        4       10       11 </v>
   <v type="int" >        8        5        5        5        8 </v>
   <v type="int" >        8        4        5        5        5 </v>
   <v type="int" >        8        3        4        5        5 </v>
   <v type="int" >        8        4        5        5        8 </v>
   <v type="int" >        4        4        5        5       11 </v>
   <v type="int" >        4        3        5        5       11 </v>
   <v type="int" >        4       10       11       12       13 </v>
   <v type="int" >        4       11       11       12       13 </v>
   <v type="int" >        4        4       11       12       13 </v>
   <v type="int" >        4        2        4       11       11 </v>
   <v type="int" >        4        2       11       11       12 </v>
   <v type="int" >        8        2        4       11       12 </v>
   <v type="int" >        8        2        3        4       11 </v>
   <v type="int" >        8        2        3        5       11 </v>
   <v type="int" >        8        2        4        5       11 </v>
   <v type="int" >        8        3        4        5        9 </v>
   <v type="int" >        4        2        3        4        9 </v>
   <v type="int" >        8        2        3        5        9 </v>
   <v type="int" >        8        3        5        9       11 </v>
   <v type="int" >        4        3        9       10       11 </v>
   <v type="int" >        4        3        5        9       10 </v>
   <v type="int" >        4        2        4        6       12 </v>
   <v type="int" >        8        2        4        5        6 </v>
   <v type="int" >        4        4        5        6        7 </v>
   <v type="int" >        4        2        5        5        9 </v>
   <v type="int" >        4        2        5        5        6 </v>
   <v type="int" >        4        5        5        6        7 </v>
   <v type="int" >        4        5        5        9       10 </v>
   <v type="int" >        4        5        5        5       10 </v>
   <v type="int" >        8        5        5        5        7 </v>
   <v type="int" >        4        5        6        7        8 </v>
   <v type="int" >        8        5        5        7        8 </v>
   <v type="int" >        8        4        5        7        8 </v>
   <v type="int" >        4        4       10       11       12 </v>
   <v type="int" >        4        4        5        7       10 </v>
   <v type="int" >        4        5        5        9       11 </v>
   <v type="int" >        4        5        5       10       11 </v>
   <v type="int" >        4        5        5        7       10 </v>
   <v type="int" >        4        5        5        6        9 </v>
   <v type="int" >        4        5        5        5        6 </v>
   <v type="int" >        4        2        4        6        9 </v>
   <v type="int" >        4        4        5        6        9 </v>
   <v type="int" >        4        4        5        5        6 </v>
   <v type="int" >        4        2        2        4        6 </v>
   <v type="int" >        4        2        3        4        6 </v>
   <v type="int" >        4        3        4        5        6 </v>
   <v type="int" >        4        2        2       11       12 </v>
   <v type="int" >        4        2        2        4       11 </v>
   <v type="int" >        4        5        7        8       10 </v>
   <v type="int" >        4        2        3        5        5 </v>
   <v type="int" >        4        2        4        5        5 </v>
   <v type="int" >        4        3        4        9       11 </v>
   <v type="int" >        4        3        5        6        9 </v>
   <v type="int" >        4        2        3        6        9 </v>
   <v type="int" >        4        4        5        6        8 </v>
   <v type="int" >        4        1        2        4        6 </v>
   <v type="int" >        4        2        2        5        9 </v>
   <v type="int" >        4        2        2        5        6 </v>
   <v type="int" >        4        1        2        2        6 </v>
   <v type="int" >        4        2        2        6        9 </v>
   <v type="int" >        4        2        2        2        6 </v>
   <v type="int" >        4        1        2        2        2 </v>
   <v type="int" >        4        1        2        6       12 </v>
   <v type="int" >        4        1        2        2       12 </v>
   <v type="int" >        4        1        2        4       12 </v>
  </varray>
  <i name="volumeweight">      0.00260417 </i>
 </kpoints>
 <parameters>
  <separator name="general" >
   <i type="string" name="SYSTEM">unknown system</i>
   <i type="logical" name="LCOMPAT"> F  </i>
  </separator>
  <separator name="electronic" >
   <i type="string" name="PREC">normal</i>
   <i name="ENMAX">    400.00000000</i>
   <i name="ENAUG">    605.39200000</i>
   <i name="EDIFF">      0.00000010</i>
   <i type="int" name="IALGO">    53</i>
   <i type="int" name="IWAVPR">    11</i>
   <i type="int" name="NBANDS">    56</i>
   <i type="int" name="NBANDSLOW">    -1</i>
   <i type="int" name="NBANDSHIGH">    -1</i>
   <i name="NELECT">     48.00000000</i>
   <i type="int" name="TURBO">     0</i>
   <i type="int" name="IRESTART">     0</i>
   <i type="int" name="NREBOOT">     0</i>
   <i type="int" name="NMIN">     0</i>
   <i name="EREF">      0.00000000</i>
   <separator name="electronic smearing" >
    <i type="int" name="ISMEAR">    -5</i>
    <i name="SIGMA">      0.10000000</i>
    <i name="KSPACING">      0.50000000</i>
    <i type="logical" name="KGAMMA"> T  </i>
    <i type="logical" name="KBLOWUP"> T  </i>
   </separator>
   <separator name="electronic projectors" >
    <i type="logical" name="LREAL"> F  </i>
    <v name="ROPT">      0.00000000      0.00000000      0.00000000</v>
    <i type="int" name="LMAXPAW">  -100</i>
    <i type="int" name="LMAXMIX">     2</i>
    <i type="logical" name="NLSPLINE"> F  </i>
   </separator>
   <separator name="electronic startup" >
    <i type="int" name="ISTART">     0</i>
    <i type="int" name="ICHARG">     2</i>
    <i type="int" name="INIWAV">     1</i>
   </separator>
   <separator name="electronic spin" >
    <i type="int" name="ISPIN">     1</i>
    <i type="logical" name="LNONCOLLINEAR"> F  </i>
    <v name="MAGMOM">      1.00000000      1.00000000      1.00000000      1.00000000      1.00000000      1.00000000      1.00000000      1.00000000</v>
    <i name="NUPDOWN">     -1.00000000</i>
    <i type="logical" name="LSORBIT"> F  </i>
    <v name="SAXIS">      0.00000000      0.00000000      1.00000000</v>
    <i type="logical" name="LSPIRAL"> F  </i>
    <v name="QSPIRAL">      0.00000000      0.00000000      0.00000000</v>
    <i type="logical" name="LZEROZ"> F  </i>
   </separator>
   <separator name="electronic exchange-correlation" >
    <i type="logical" name="LASPH"> T  </i>
   </separator>
   <separator name="electronic convergence" >
    <i type="int" name="NELM">   100</i>
    <i type="int" name="NELMDL">    -5</i>
    <i type="int" name="NELMIN">     2</i>
    <i name="ENINI">    400.00000000</i>
    <separator name="electronic convergence detail" >
     <i type="logical" name="LDIAG"> T  </i>
     <i type="logical" name="LSUBROT"> F  </i>
     <i type="logical" name="LROBUST"> F  </i>
     <i type="int" name="ISEARCH">     0</i>
     <i name="WEIMIN">      0.00100000</i>
     <i name="EBREAK">      0.00000000</i>
     <i name="DEPER">      0.30000000</i>
     <i type="int" name="NRMM">     4</i>
     <i name="TIME">      0.40000000</i>
    </separator>
   </separator>
   <separator name="electronic mixer" >
    <i name="AMIX">      0.40000000</i>
    <i name="BMIX">      1.00000000</i>
    <i name="AMIN">      0.10000000</i>
    <i name="AMIX_MAG">      1.60000000</i>
    <i name="BMIX_MAG">      1.00000000</i>
    <separator name="electronic mixer details" >
     <i type="int" name="IMIX">     4</i>
     <i type="logical" name="MIXFIRST"> F  </i>
     <i type="int" name="MAXMIX">   -45</i>
     <i name="WC">    100.00000000</i>
     <i type="int" name="INIMIX">     1</i>
     <i type="int" name="MIXPRE">     1</i>
     <i type="int" name="MREMOVE">     5</i>
    </separator>
   </separator>
   <separator name="electronic dipolcorrection" >
    <i type="logical" name="LDIPOL"> F  </i>
    <i type="logical" name="LMONO"> F  </i>
    <i type="int" name="IDIPOL">     0</i>
    <i name="EPSILON">      1.00000000</i>
    <v name="DIPOL">   -100.00000000   -100.00000000   -100.00000000</v>
    <i name="EFIELD">      0.00000000</i>
    <i type="logical" name="LVACPOTAV"> F  </i>
   </separator>
  </separator>
  <separator name="grids" >
   <i type="int" name="NGX">    32</i>
   <i type="int" name="NGY">    32</i>
   <i type="int" name="NGZ">    32</i>
   <i type="int" name="NGXF">    64</i>
   <i type="int" name="NGYF">    64</i>
   <i type="int" name="NGZF">    64</i>
   <i type="logical" name="ADDGRID"> F  </i>
  </separator>
  <separator name="ionic" >
   <i type="int" name="NSW">   300</i>
   <i type="int" name="IBRION">     2</i>
   <i type="int" name="MDALGO">     0</i>
   <i type="int" name="ISIF">     3</i>
   <i name="PSTRESS">      0.00000000</i>
   <i name="EDIFFG">     -0.00500000</i>
   <i type="int" name="NFREE">     1</i>
   <i name="POTIM">      0.50000000</i>
   <i name="SMASS">     -3.00000000</i>
   <i name="SCALEE">      1.00000000</i>
  </separator>
  <separator name="ionic md" >
   <i name="TEBEG">      0.00010000</i>
   <i name="TEEND">      0.00010000</i>
   <i type="int" name="NBLOCK">     1</i>
   <i type="int" name="KBLOCK">   300</i>
   <i type="int" name="NPACO">   256</i>
   <i name="APACO">     10.00000000</i>
  </separator>
  <separator name="symmetry" >
   <i type="int" name="ISYM">     3</i>
   <i name="SYMPREC">      0.00001000</i>
  </separator>
  <separator name="dos" >
   <i type="int" name="LORBIT">    10</i>
   <v name="RWIGS">     -1.00000000     -1.00000000     -1.00000000</v>
   <i type="int" name="NEDOS">   301</i>
   <i name="EMIN">     10.00000000</i>
   <i name="EMAX">    -10.00000000</i>
   <i name="EFERMI">      0.00000000</i>
  </separator>
  <separator name="writing" >
   <i type="int" name="NWRITE">     2</i>
   <i type="logical" name="LWAVE"> T  </i>
   <i type="logical" name="LDOWNSAMPLE"> F  </i>
   <i type="logical" name="LCHARG"> F  </i>
   <i type="logical" name="LPARD"> F  </i>
   <i type="logical" name="LVTOT"> F  </i>
   <i type="logical" name="LVHAR"> F  </i>
   <i type="logical" name="LELF"> F  </i>
   <i type="logical" name="LOPTICS"> F  </i>
   <v name="STM">      0.00000000      0.00000000      0.00000000      0.00000000      0.00000000      0.00000000      0.00000000</v>
  </separator>
  <separator name="performance" >
   <i type="int" name="NPAR">    28</i>
   <i type="int" name="NSIM">     4</i>
   <i type="int" name="NBLK">    -1</i>
   <i type="logical" name="LPLANE"> T  </i>
   <i type="logical" name="LSCALAPACK"> T  </i>
   <i type="logical" name="LSCAAWARE"> F  </i>
   <i type="logical" name="LSCALU"> F  </i>
   <i type="logical" name="LASYNC"> F  </i>
   <i type="logical" name="LORBITALREAL"> F  </i>
  </separator>
  <separator name="miscellaneous" >
   <i type="int" name="IDIOT">     3</i>
   <i type="int" name="PHON_NSTRUCT">    -1</i>
   <i type="logical" name="LMUSIC"> F  </i>
   <v name="POMASS">     22.99000000    144.24000000     16.00000000</v>
   <v name="DARWINR">      0.00000000      0.00000000      0.00000000</v>
   <v name="DARWINV">      1.00000000      1.00000000      1.00000000</v>
   <i type="logical" name="LCORR"> T  </i>
  </separator>
  <i type="logical" name="GGA_COMPAT"> T  </i>
  <i type="logical" name="LBERRY"> F  </i>
  <i type="int" name="ICORELEVEL">     0</i>
  <i type="logical" name="LDAU"> F  </i>
  <i type="int" name="I_CONSTRAINED_M">     0</i>
  <separator name="electronic exchange-correlation" >
   <i type="string" name="GGA    ">PE</i>
   <i type="string" name="XC_C">1</i>
   <i type="int" name="VOSKOWN">     0</i>
   <i type="logical" name="LHFCALC"> T  </i>
   <i type="string" name="PRECFOCK">fast</i>
   <i type="logical" name="LSYMGRAD"> F  </i>
   <i type="logical" name="LHFONE"> F  </i>
   <i type="logical" name="LRHFCALC"> F  </i>
   <i type="logical" name="LTHOMAS"> F  </i>
   <i type="logical" name="LMODELHF"> F  </i>
   <i type="logical" name="LFOCKACE"> T  </i>
   <i name="ENCUT4O">     -1.00000000</i>
   <i type="int" name="EXXOEP">     0</i>
   <i type="int" name="FOURORBIT">     0</i>
   <i name="AEXX">      0.36000000</i>
   <i name="HFALPHA">     -1.00000000</i>
   <i name="MCALPHA">      0.00000000</i>
   <i name="ALDAX">      0.64000000</i>
   <i name="AGGAX">      0.64000000</i>
   <i name="AMGGAX">      0.64000000</i>
   <i name="ALDAC">      1.00000000</i>
   <i name="AGGAC">      1.00000000</i>
   <i name="AMGGAC">      1.00000000</i>
   <i type="int" name="NKREDX">     1</i>
   <i type="int" name="NKREDY">     1</i>
   <i type="int" name="NKREDZ">     1</i>
   <i type="logical" name="SHIFTRED"> F  </i>
   <i type="logical" name="ODDONLY"> F  </i>
   <i type="logical" name="EVENONLY"> F  </i>
   <i type="int" name="LMAXFOCK">     4</i>
   <i type="int" name="NMAXFOCKAE">     1</i>
   <i type="logical" name="LFOCKAEDFT"> F  </i>
   <i name="HFSCREEN">      0.20000000</i>
   <i name="HFSCREENC">      0.20000000</i>
   <i type="int" name="NBANDSGWLOW">     1</i>
  </separator>
  <separator name="vdW DFT" >
   <i type="logical" name="LUSE_VDW"> F  </i>
   <i type="int" name="IVDW_NL">    -1</i>
   <i type="logical" name="LSPIN_VDW"> F  </i>
   <i name="ZAB_VDW">     -0.84910000</i>
   <i name="GAMMA_VDW">      1.39626340</i>
   <i name="ALPHA_VDW">      0.00000000</i>
   <i name="PARAM1">      0.12340000</i>
   <i name="PARAM2">      1.00000000</i>
   <i name="BPARAM">      6.30000000</i>
   <i name="CPARAM">      0.00930000</i>
  </separator>
  <separator name="model GW" >
   <i type="int" name="MODEL_GW">     0</i>
   <i name="MODEL_EPS0">      9.24810831</i>
   <i name="MODEL_ALPHA">      1.00000000</i>
  </separator>
  <separator name="linear response parameters" >
   <i type="logical" name="LEPSILON"> F  </i>
   <i type="logical" name="LRPA"> F  </i>
   <i type="logical" name="LNABLA"> F  </i>
   <i type="logical" name="LVEL"> F  </i>
   <i name="CSHIFT">      0.10000000</i>
   <i name="OMEGAMAX">     -1.00000000</i>
   <i name="DEG_THRESHOLD">      0.00200000</i>
   <i name="RTIME">     -0.10000000</i>
   <i name="WPLASMAI">      0.00000000</i>
   <v name="DFIELD">      0.00000000      0.00000000      0.00000000</v>
   <v name="WPLASMA">      0.00000000      0.00000000      0.00000000      0.00000000      0.00000000      0.00000000      0.00000000      0.00000000      0.00000000</v>
  </separator>
  <separator name="orbital magnetization" >
   <i type="logical" name="NUCIND"> F  </i>
   <v name="MAGPOS">      0.00000000      0.00000000      0.00000000</v>
   <i type="logical" name="LNICSALL"> T  </i>
   <i type="logical" name="ORBITALMAG"> F  </i>
   <i type="logical" name="LMAGBLOCH"> F  </i>
   <i type="logical" name="LCHIMAG"> F  </i>
   <i type="logical" name="LGAUGE"> T  </i>
   <i type="int" name="MAGATOM">     0</i>
   <v name="MAGDIPOL">      0.00000000      0.00000000      0.00000000</v>
   <v name="AVECCONST">      0.00000000      0.00000000      0.00000000</v>
  </separator>
  <separator name="response functions" >
   <i type="logical" name="LALL_IN_ONE"> F  </i>
   <i type="int" name="IALL_IN_ONE">    -1</i>
   <i type="int" name="NBANDS_WAVE">    -1</i>
   <i type="logical" name="LFINITE_TEMPERATURE"> F  </i>
   <i type="logical" name="LADDER"> F  </i>
   <i type="logical" name="LRPAFORCE"> F  </i>
   <i type="logical" name="LFXC"> F  </i>
   <i type="logical" name="LHARTREE"> T  </i>
   <i type="int" name="IBSE">     2</i>
   <v type="int" name="KPOINT">    -1     0     0     0</v>
   <i type="logical" name="LTCTC"> F  </i>
   <i type="logical" name="LTCTE"> F  </i>
   <i type="logical" name="LTETE"> F  </i>
   <i type="logical" name="LTRIPLET"> F  </i>
   <i type="logical" name="LFXCEPS"> F  </i>
   <i type="logical" name="LFXHEG"> F  </i>
   <i type="int" name="NATURALO">     2</i>
   <i type="logical" name="LHOLEGF"> F  </i>
   <i type="logical" name="L2ORDER"> F  </i>
   <i type="logical" name="LDMP1"> F  </i>
   <i type="logical" name="LMP2LT"> F  </i>
   <i type="logical" name="LSMP2LT"> F  </i>
   <i type="logical" name="LGWLF"> F  </i>
   <i name="ENCUTGW">     -1.60000002</i>
   <i name="ENCUTGWSOFT">     -1.60000002</i>
   <i name="ENCUTLF">     -1.00000000</i>
   <i type="logical" name="ESF_SPLINES"> F  </i>
   <i name="ESF_CONV">      0.01000000</i>
   <i type="int" name="ESF_NINTER">    15</i>
   <i type="int" name="LMAXMP2">    -1</i>
   <i name="SCISSOR">      0.00000000</i>
   <i type="int" name="NOMEGA">     0</i>
   <i type="int" name="NOMEGAR">     0</i>
   <i type="int" name="NBANDSGW">    -1</i>
   <i type="int" name="NBANDSO">    -1</i>
   <i type="int" name="NBANDSV">    -1</i>
   <i type="int" name="NELMGW">     1</i>
   <i type="int" name="NELMHF">     1</i>
   <i type="int" name="DIM">     3</i>
   <i type="int" name="IESPILON">     4</i>
   <i type="int" name="ANTIRES">     0</i>
   <i name="OMEGAMAX">    -30.00000000</i>
   <i name="OMEGAMIN">    -30.00000000</i>
   <i name="OMEGATL">   -200.00000000</i>
   <i type="int" name="OMEGAGRID">     0</i>
   <i name="CSHIFT">     -0.10000000</i>
   <i type="logical" name="LSELFENERGY"> F  </i>
   <i type="logical" name="LSPECTRAL"> F  </i>
   <i type="logical" name="LSPECTRALGW"> F  </i>
   <i type="logical" name="LSINGLES"> F  </i>
   <i type="logical" name="LFERMIGW"> F  </i>
   <i type="logical" name="ODDONLYGW"> F  </i>
   <i type="logical" name="EVENONLYGW"> F  </i>
   <i type="int" name="NKREDLFX">     1</i>
   <i type="int" name="NKREDLFY">     1</i>
   <i type="int" name="NKREDLFZ">     1</i>
   <i type="int" name="MAXMEM">  2800</i>
   <i type="int" name="TELESCOPE">     0</i>
   <i type="int" name="NTAUPAR">    -1</i>
   <i type="int" name="NOMEGAPAR">    -1</i>
   <i name="DAMP_NEWTON">      0.80000001</i>
   <i name="LAMBDA">      1.00000000</i>
  </separator>
  <separator name="External order field" >
   <i name="OFIELD_KAPPA">      0.00000000</i>
   <v name="OFIELD_K">      0.00000000      0.00000000      0.00000000</v>
   <i name="OFIELD_Q6_NEAR">      0.00000000</i>
   <i name="OFIELD_Q6_FAR">      0.00000000</i>
   <i name="OFIELD_A">      0.00000000</i>
  </separator>
  <separator name="optional k-points parameters" >
   <i type="int" name="KPOINTS_OPT_MODE">     1</i>
   <i type="logical" name="LKPOINTS_OPT"> F  </i>
  </separator>
 </parameters>
 <atominfo>
  <atoms>       8 </atoms>
  <types>       3 </types>
  <array name="atoms" >
   <dimension dim="1">ion</dimension>
   <field type="string">element</field>
   <field type="int">atomtype</field>
   <set>
    <rc><c>Na</c><c>   1</c></rc>
    <rc><c>Na</c><c>   1</c></rc>
    <rc><c>Nd</c><c>   2</c></rc>
    <rc><c>Nd</c><c>   2</c></rc>
    <rc><c>O </c><c>   3</c></rc>
    <rc><c>O </c><c>   3</c></rc>
    <rc><c>O </c><c>   3</c></rc>
    <rc><c>O </c><c>   3</c></rc>
   </set>
  </array>
  <array name="atomtypes" >
   <dimension dim="1">type</dimension>
   <field type="int">atomspertype</field>
   <field type="string">element</field>
   <field>mass</field>
   <field>valence</field>
   <field type="string">pseudopotential</field>
   <set>
    <rc><c>   2</c><c>Na</c><c>     22.99000000</c><c>      1.00000000</c><c>  PAW_PBE Na 08Apr2002                  </c></rc>
    <rc><c>   2</c><c>Nd</c><c>    144.24000000</c><c>     11.00000000</c><c>  PAW_PBE Nd_3 06Sep2000                </c></rc>
    <rc><c>   4</c><c>O </c><c>     16.00000000</c><c>      6.00000000</c><c>  PAW_PBE O 08Apr2002                   </c></rc>
   </set>
  </array>
 </atominfo>
 <structure name="initialpos" >
  <crystal>
   <varray name="basis" >
    <v>      -2.37030214       2.37030214       5.48686449 </v>
    <v>       2.37030214      -2.37030214       5.48686449 </v>
    <v>       2.37030214       2.37030214      -5.48686449 </v>
   </varray>
   <i name="volume">    123.30811077 </i>
   <varray name="rec_basis" >
    <v>      -0.00000000       0.21094357       0.09112673 </v>
    <v>       0.21094357      -0.00000000       0.09112673 </v>
    <v>       0.21094357       0.21094357      -0.00000000 </v>
   </varray>
  </crystal>
  <varray name="positions" >
   <v>       0.25000000       0.75000000       0.50000000 </v>
   <v>       0.50000000       0.50000000       0.00000000 </v>
   <v>       0.00000000       0.00000000       0.00000000 </v>
   <v>       0.75000000       0.25000000       0.50000000 </v>
   <v>       0.78074772       0.78074772       0.00000000 </v>
   <v>       0.53074772       0.03074772       0.50000000 </v>
   <v>       0.21925228       0.21925228       0.00000000 </v>
   <v>       0.96925228       0.46925228       0.50000000 </v>
  </varray>
 </structure>
 <calculation>
  <scstep>
   <time name="total">    0.27    0.31</time>
   <energy>
    <i name="alphaZ">    211.09225997 </i>
    <i name="ewald">  -2610.87633660 </i>
    <i name="hartreedc">   -975.69090256 </i>
    <i name="XCdc">     91.78703810 </i>
    <i name="pawpsdc">   2906.72906803 </i>
    <i name="pawaedc">  -7316.97461623 </i>
    <i name="eentropy">      0.00000000 </i>
    <i name="bandstr">   -220.16493343 </i>
    <i name="atom">   3601.51511230 </i>
    <i name="e_fr_energy">  -4312.58331041 </i>
    <i name="e_wo_entrp">  -4312.58331041 </i>
    <i name="e_0_energy">  -4312.58331041 </i>
   </energy>
  </scstep>
  <scstep>
   <time name="total">    0.14    0.15</time>
   <energy>
    <i name="e_fr_energy">  -4652.57776874 </i>
    <i name="e_wo_entrp">  -4652.57776874 </i>
    <i name="e_0_energy">  -4652.57776874 </i>
   </energy>
  </scstep>
  <scstep>
   <time name="total">    0.15    0.16</time>
   <energy>
    <i name="e_fr_energy">  -4682.48550460 </i>
    <i name="e_wo_entrp">  -4682.48550460 </i>
    <i name="e_0_energy">  -4682.48550460 </i>
   </energy>
  </scstep>
  <scstep>
   <time name="total">    0.13    0.14</time>
   <energy>
    <i name="e_fr_energy">  -4683.80727863 </i>
    <i name="e_wo_entrp">  -4683.80727863 </i>
    <i name="e_0_energy">  -4683.80727863 </i>
   </energy>
  </scstep>
  <scstep>
   <time name="total">   10.30   10.37</time>
   <energy>
    <i name="e_fr_energy">    -80.12539194 </i>
    <i name="e_wo_entrp">    -80.12539194 </i>
    <i name="e_0_energy">    -80.12539194 </i>
   </energy>
  </scstep>
  <scstep>
   <time name="total">   10.23   10.28</time>
   <energy>
    <i name="e_fr_energy">    -43.70287549 </i>
    <i name="e_wo_entrp">    -43.70287549 </i>
    <i name="e_0_energy">    -43.70287549 </i>
   </energy>
  </scstep>
  <scstep>
   <time name="total">   10.19   10.24</time>
   <energy>
    <i name="e_fr_energy">    -64.51398671 </i>
    <i name="e_wo_entrp">    -64.51398671 </i>
    <i name="e_0_energy">    -64.51398671 </i>
   </energy>
  </scstep>
  <scstep>
   <time name="total">   10.17   10.29</time>
   <energy>
    <i name="e_fr_energy">    -64.65303847 </i>
    <i name="e_wo_entrp">    -64.65303847 </i>
    <i name="e_0_energy">    -64.65303847 </i>
   </energy>
  </scstep>
  <scstep>
   <time name="total">   10.20   10.25</time>
   <energy>
    <i name="e_fr_energy">    -66.99237857 </i>
    <i name="e_wo_entrp">    -66.99237857 </i>
    <i name="e_0_energy">    -66.99237857 </i>
   </energy>
  </scstep>
  <scstep>
   <time name="total">   10.19   10.24</time>
   <energy>
    <i name="e_fr_energy">    -67.87412057 </i>
    <i name="e_wo_entrp">    -67.87412057 </i>
    <i name="e_0_energy">    -67.87412057 </i>
   </energy>
  </scstep>
  <scstep>
   <time name="total">   10.18   10.23</time>
   <energy>
    <i name="e_fr_energy">    -67.89726403 </i>
    <i name="e_wo_entrp">    -67.89726403 </i>
    <i name="e_0_energy">    -67.89726403 </i>
   </energy>
  </scstep>
  <scstep>
   <time name="total">   10.19   10.24</time>
   <energy>
    <i name="e_fr_energy">    -68.02354231 </i>
    <i name="e_wo_entrp">    -68.02354231 </i>
    <i name="e_0_energy">    -68.02354231 </i>
   </energy>
  </scstep>
  <scstep>
   <time name="total">   10.18   10.23</time>
   <energy>
    <i name="e_fr_energy">    -68.03665767 </i>
    <i name="e_wo_entrp">    -68.03665767 </i>
    <i name="e_0_energy">    -68.03665767 </i>
   </energy>
  </scstep>
  <scstep>
   <time name="total">   10.19   10.24</time>
   <energy>
    <i name="e_fr_energy">    -68.04611413 </i>
    <i name="e_wo_entrp">    -68.04611413 </i>
    <i name="e_0_energy">    -68.04611413 </i>
   </energy>
  </scstep>
  <scstep>
   <time name="total">   10.17   10.23</time>
   <energy>
    <i name="e_fr_energy">    -68.05418525 </i>
    <i name="e_wo_entrp">    -68.05418525 </i>
    <i name="e_0_energy">    -68.05418525 </i>
   </energy>
  </scstep>
  <scstep>
   <time name="total">   10.19   10.23</time>
   <energy>
    <i name="e_fr_energy">    -68.05493012 </i>
    <i name="e_wo_entrp">    -68.05493012 </i>
    <i name="e_0_energy">    -68.05493012 </i>
   </energy>
  </scstep>
  <scstep>
   <time name="total">   10.17   10.23</time>
   <energy>
    <i name="e_fr_energy">    -68.05586929 </i>
    <i name="e_wo_entrp">    -68.05586929 </i>
    <i name="e_0_energy">    -68.05586929 </i>
   </energy>
  </scstep>
  <scstep>
   <time name="total">   10.18   10.24</time>
   <energy>
    <i name="e_fr_energy">    -68.05616440 </i>
    <i name="e_wo_entrp">    -68.05616440 </i>
    <i name="e_0_energy">    -68.05616440 </i>
   </energy>
  </scstep>
  <scstep>
   <time name="total">   10.17   10.22</time>
   <energy>
    <i name="e_fr_energy">    -68.05618579 </i>
    <i name="e_wo_entrp">    -68.05618579 </i>
    <i name="e_0_energy">    -68.05618579 </i>
   </energy>
  </scstep>
  <scstep>
   <time name="total">   10.16   10.22</time>
   <energy>
    <i name="e_fr_energy">    -68.05624720 </i>
    <i name="e_wo_entrp">    -68.05624720 </i>
    <i name="e_0_energy">    -68.05624720 </i>
   </energy>
  </scstep>
  <scstep>
   <time name="total">   10.17   10.23</time>
   <energy>
    <i name="e_fr_energy">    -68.05626088 </i>
    <i name="e_wo_entrp">    -68.05626088 </i>
    <i name="e_0_energy">    -68.05626088 </i>
   </energy>
  </scstep>
  <scstep>
   <time name="total">   10.17   10.23</time>
   <energy>
    <i name="e_fr_energy">    -68.05626629 </i>
    <i name="e_wo_entrp">    -68.05626629 </i>
    <i name="e_0_energy">    -68.05626629 </i>
   </energy>
  </scstep>
  <scstep>
   <time name="total">   10.17   10.22</time>
   <energy>
    <i name="e_fr_energy">    -68.05627037 </i>
    <i name="e_wo_entrp">    -68.05627037 </i>
    <i name="e_0_energy">    -68.05627037 </i>
   </energy>
  </scstep>
  <scstep>
   <time name="total">   10.19   10.25</time>
   <energy>
    <i name="e_fr_energy">    -68.05627104 </i>
    <i name="e_wo_entrp">    -68.05627104 </i>
    <i name="e_0_energy">    -68.05627104 </i>
   </energy>
  </scstep>
  <scstep>
   <time name="total">   10.18   10.23</time>
   <energy>
    <i name="e_fr_energy">    -68.05627128 </i>
    <i name="e_wo_entrp">    -68.05627128 </i>
    <i name="e_0_energy">    -68.05627128 </i>
   </energy>
  </scstep>
  <scstep>
   <time name="total">   20.20   20.31</time>
   <energy>
    <i name="alphaZ">    211.09225997 </i>
    <i name="ewald">  -2610.87633660 </i>
    <i name="hartreedc">  -1067.34126968 </i>
    <i name="XCdc">     60.74538311 </i>
    <i name="pawpsdc">   4198.66981844 </i>
    <i name="pawaedc">  -4100.55491686 </i>
    <i name="eentropy">      0.00000000 </i>
    <i name="bandstr">   -546.67358633 </i>
    <i name="atom">   3601.51511230 </i>
    <i name="e_fr_energy">    -68.05627138 </i>
    <i name="e_wo_entrp">    -68.05627138 </i>
    <i name="e_0_energy">    -68.05627138 </i>
   </energy>
  </scstep>
  <structure>
   <crystal>
    <varray name="basis" >
     <v>      -2.37030214       2.37030214       5.48686449 </v>
     <v>       2.37030214      -2.37030214       5.48686449 </v>
     <v>       2.37030214       2.37030214      -5.48686449 </v>
    </varray>
    <i name="volume">    123.30811077 </i>
    <varray name="rec_basis" >
     <v>      -0.00000000       0.21094357       0.09112673 </v>
     <v>       0.21094357      -0.00000000       0.09112673 </v>
     <v>       0.21094357       0.21094357      -0.00000000 </v>
    </varray>
   </crystal>
   <varray name="positions" >
    <v>       0.25000000       0.75000000       0.50000000 </v>
    <v>       0.50000000       0.50000000       0.00000000 </v>
    <v>       0.00000000       0.00000000       0.00000000 </v>
    <v>       0.75000000       0.25000000       0.50000000 </v>
    <v>       0.78074772       0.78074772       0.00000000 </v>
    <v>       0.53074772       0.03074772       0.50000000 </v>
    <v>       0.21925228       0.21925228       0.00000000 </v>
    <v>       0.96925228       0.46925228       0.50000000 </v>
   </varray>
  </structure>
  <varray name="forces" >
   <v>      -0.00000000      -0.00000000       0.00000000 </v>
   <v>      -0.00000000      -0.00000000       0.00000000 </v>
   <v>      -0.00000000      -0.00000000       0.00000000 </v>
   <v>      -0.00000000      -0.00000000       0.00000000 </v>
   <v>       0.00000000      -0.00000000       0.20205737 </v>
   <v>       0.00000000       0.00000000       0.20205737 </v>
   <v>      -0.00000000      -0.00000000      -0.20205737 </v>
   <v>      -0.00000000       0.00000000      -0.20205737 </v>
  </varray>
  <varray name="stress" >
   <v>     -76.80775659      -0.00000000      -0.00000000 </v>
   <v>      -0.00000000     -76.80775659       0.00000000 </v>
   <v>      -0.00000000      -0.00000000     -70.71617611 </v>
  </varray>
  <energy>
   <i name="e_fr_energy">    -68.05627138 </i>
   <i name="e_wo_entrp">    -68.05627138 </i>
   <i name="e_0_energy">    -68.05627138 </i>
  </energy>
  <time name="totalsc">  256.75  258.24</time>
 </calculation>
 <calculation>
  <scstep>
   <time name="total">   10.75   10.80</time>
   <energy>
    <i name="alphaZ">    234.68932528 </i>
    <i name="ewald">  -2702.01504612 </i>
    <i name="hartreedc">  -1032.48487080 </i>
    <i name="XCdc">     61.96271193 </i>
    <i name="pawpsdc">   4256.82461954 </i>
    <i name="pawaedc">  -4153.23537674 </i>
    <i name="eentropy">      0.00000000 </i>
    <i name="bandstr">   -516.79784757 </i>
    <i name="atom">   3601.51511230 </i>
    <i name="e_fr_energy">    -63.62115879 </i>
    <i name="e_wo_entrp">    -63.62115879 </i>
    <i name="e_0_energy">    -63.62115879 </i>
   </energy>
  </scstep>
  <scstep>
   <time name="total">   10.81   10.87</time>
   <energy>
    <i name="e_fr_energy">    -66.93732185 </i>
    <i name="e_wo_entrp">    -66.93732185 </i>
    <i name="e_0_energy">    -66.93732185 </i>
   </energy>
  </scstep>
  <scstep>
   <time name="total">   10.80   10.94</time>
   <energy>
    <i name="e_fr_energy">    -67.52522162 </i>
    <i name="e_wo_entrp">    -67.52522162 </i>
    <i name="e_0_energy">    -67.52522162 </i>
   </energy>
  </scstep>
  <scstep>
   <time name="total">   11.07   11.30</time>
   <energy>
    <i name="e_fr_energy">    -67.90989310 </i>
    <i name="e_wo_entrp">    -67.90989310 </i>
    <i name="e_0_energy">    -67.90989310 </i>
   </energy>
  </scstep>
  <scstep>
   <time name="total">   10.80   10.86</time>
   <energy>
    <i name="e_fr_energy">    -68.04250131 </i>
    <i name="e_wo_entrp">    -68.04250131 </i>
    <i name="e_0_energy">    -68.04250131 </i>
   </energy>
  </scstep>
  <scstep>
   <time name="total">   10.80   10.87</time>
   <energy>
    <i name="e_fr_energy">    -68.05627071 </i>
    <i name="e_wo_entrp">    -68.05627071 </i>
    <i name="e_0_energy">    -68.05627071 </i>
   </energy>
  </scstep>
  <scstep>
   <time name="total">   10.76   10.81</time>
   <energy>
    <i name="e_fr_energy">    -68.07284202 </i>
    <i name="e_wo_entrp">    -68.07284202 </i>
    <i name="e_0_energy">    -68.07284202 </i>
   </energy>
  </scstep>
  <scstep>
   <time name="total">   10.81   10.87</time>
   <energy>
    <i name="e_fr_energy">    -68.07752393 </i>
    <i name="e_wo_entrp">    -68.07752393 </i>
    <i name="e_0_energy">    -68.07752393 </i>
   </energy>
  </scstep>
  <scstep>
   <time name="total">   10.75   10.81</time>
   <energy>
    <i name="e_fr_energy">    -68.07903764 </i>
    <i name="e_wo_entrp">    -68.07903764 </i>
    <i name="e_0_energy">    -68.07903764 </i>
   </energy>
  </scstep>
  <scstep>
   <time name="total">   10.74   10.80</time>
   <energy>
    <i name="e_fr_energy">    -68.08012267 </i>
    <i name="e_wo_entrp">    -68.08012267 </i>
    <i name="e_0_energy">    -68.08012267 </i>
   </energy>
  </scstep>
  <scstep>
   <time name="total">   10.74   10.81</time>
   <energy>
    <i name="e_fr_energy">    -68.08038924 </i>
    <i name="e_wo_entrp">    -68.08038924 </i>
    <i name="e_0_energy">    -68.08038924 </i>
   </energy>
  </scstep>
  <scstep>
   <time name="total">   10.74   10.80</time>
   <energy>
    <i name="e_fr_energy">    -68.08050434 </i>
    <i name="e_wo_entrp">    -68.08050434 </i>
    <i name="e_0_energy">    -68.08050434 </i>
   </energy>
  </scstep>
  <scstep>
   <time name="total">   10.75   10.81</time>
   <energy>
    <i name="e_fr_energy">    -68.08055700 </i>
    <i name="e_wo_entrp">    -68.08055700 </i>
    <i name="e_0_energy">    -68.08055700 </i>
   </energy>
  </scstep>
  <scstep>
   <time name="total">   10.77   10.82</time>
   <energy>
    <i name="e_fr_energy">    -68.08057054 </i>
    <i name="e_wo_entrp">    -68.08057054 </i>
    <i name="e_0_energy">    -68.08057054 </i>
   </energy>
  </scstep>
  <scstep>
   <time name="total">   10.76   10.81</time>
   <energy>
    <i name="e_fr_energy">    -68.08057810 </i>
    <i name="e_wo_entrp">    -68.08057810 </i>
    <i name="e_0_energy">    -68.08057810 </i>
   </energy>
  </scstep>
  <scstep>
   <time name="total">   10.76   10.81</time>
   <energy>
    <i name="e_fr_energy">    -68.08058162 </i>
    <i name="e_wo_entrp">    -68.08058162 </i>
    <i name="e_0_energy">    -68.08058162 </i>
   </energy>
  </scstep>
  <scstep>
   <time name="total">   10.77   10.83</time>
   <energy>
    <i name="e_fr_energy">    -68.08058255 </i>
    <i name="e_wo_entrp">    -68.08058255 </i>
    <i name="e_0_energy">    -68.08058255 </i>
   </energy>
  </scstep>
  <scstep>
   <time name="total">   10.77   10.83</time>
   <energy>
    <i name="e_fr_energy">    -68.08058278 </i>
    <i name="e_wo_entrp">    -68.08058278 </i>
    <i name="e_0_energy">    -68.08058278 </i>
   </energy>
  </scstep>
  <scstep>
   <time name="total">   21.28   21.37</time>
   <energy>
    <i name="alphaZ">    234.68932528 </i>
    <i name="ewald">  -2702.01504612 </i>
    <i name="hartreedc">  -1033.62347062 </i>
    <i name="XCdc">     61.98865743 </i>
    <i name="pawpsdc">   4638.13743339 </i>
    <i name="pawaedc">  -4539.10430393 </i>
    <i name="eentropy">      0.00000000 </i>
    <i name="bandstr">   -517.00132290 </i>
    <i name="atom">   3601.51511230 </i>
    <i name="e_fr_energy">    -68.08058282 </i>
    <i name="e_wo_entrp">    -68.08058282 </i>
    <i name="e_0_energy">    -68.08058282 </i>
   </energy>
  </scstep>
  <structure>
   <crystal>
    <varray name="basis" >
     <v>      -2.28580713       2.28580713       5.30678458 </v>
     <v>       2.28580713      -2.28580713       5.30678458 </v>
     <v>       2.28580713       2.28580713      -5.30678458 </v>
    </varray>
    <i name="volume">    110.90997746 </i>
    <varray name="rec_basis" >
     <v>       0.00000000       0.21874111       0.09421901 </v>
     <v>       0.21874111       0.00000000       0.09421901 </v>
     <v>       0.21874111       0.21874111       0.00000000 </v>
    </varray>
   </crystal>
   <varray name="positions" >
    <v>       0.25000000       0.75000000       0.50000000 </v>
    <v>       0.50000000       0.50000000       1.00000000 </v>
    <v>       0.00000000       0.00000000       1.00000000 </v>
    <v>       0.75000000       0.25000000       0.50000000 </v>
    <v>       0.78163601       0.78163601       1.00000000 </v>
    <v>       0.53163601       0.03163601       0.50000000 </v>
    <v>       0.21836399       0.21836399       0.00000000 </v>
    <v>       0.96836399       0.46836399       0.50000000 </v>
   </varray>
  </structure>
  <varray name="forces" >
   <v>       0.00000000      -0.00000000       0.00000000 </v>
   <v>       0.00000000      -0.00000000       0.00000000 </v>
   <v>       0.00000000      -0.00000000       0.00000000 </v>
   <v>       0.00000000      -0.00000000       0.00000000 </v>
   <v>      -0.00000000      -0.00000000      -0.28835633 </v>
   <v>       0.00000000      -0.00000000      -0.28835633 </v>
   <v>      -0.00000000       0.00000000       0.28835633 </v>
   <v>       0.00000000       0.00000000       0.28835633 </v>
  </varray>
  <varray name="stress" >
   <v>      82.47101661      -0.00000000       0.00000000 </v>
   <v>      -0.00000000      82.47101661       0.00000000 </v>
   <v>       0.00000000       0.00000000      76.74613903 </v>
  </varray>
  <energy>
   <i name="e_fr_energy">    -68.08058282 </i>
   <i name="e_wo_entrp">    -68.08058282 </i>
   <i name="e_0_energy">    -68.08058282 </i>
  </energy>
  <time name="totalsc">  237.80  239.40</time>
 </calculation>
 <calculation>
  <scstep>
   <time name="total">   10.38   10.43</time>
   <energy>
    <i name="alphaZ">    223.11462363 </i>
    <i name="ewald">  -2658.15941256 </i>
    <i name="hartreedc">  -1043.39393593 </i>
    <i name="XCdc">     61.15875473 </i>
    <i name="pawpsdc">   4578.30884743 </i>
    <i name="pawaedc">  -4482.37629053 </i>
    <i name="eentropy">      0.00000000 </i>
    <i name="bandstr">   -533.86552258 </i>
    <i name="atom">   3601.51511230 </i>
    <i name="e_fr_energy">    -67.21857189 </i>
    <i name="e_wo_entrp">    -67.21857189 </i>
    <i name="e_0_energy">    -67.21857189 </i>
   </energy>
  </scstep>
  <scstep>
   <time name="total">   10.50   10.56</time>
   <energy>
    <i name="e_fr_energy">    -67.98128909 </i>
    <i name="e_wo_entrp">    -67.98128909 </i>
    <i name="e_0_energy">    -67.98128909 </i>
   </energy>
  </scstep>
  <scstep>
   <time name="total">   10.42   10.48</time>
   <energy>
    <i name="e_fr_energy">    -68.09104020 </i>
    <i name="e_wo_entrp">    -68.09104020 </i>
    <i name="e_0_energy">    -68.09104020 </i>
   </energy>
  </scstep>
  <scstep>
   <time name="total">   10.38   10.44</time>
   <energy>
    <i name="e_fr_energy">    -68.18539895 </i>
    <i name="e_wo_entrp">    -68.18539895 </i>
    <i name="e_0_energy">    -68.18539895 </i>
   </energy>
  </scstep>
  <scstep>
   <time name="total">   10.39   10.44</time>
   <energy>
    <i name="e_fr_energy">    -68.21090687 </i>
    <i name="e_wo_entrp">    -68.21090687 </i>
    <i name="e_0_energy">    -68.21090687 </i>
   </energy>
  </scstep>
  <scstep>
   <time name="total">   10.41   10.46</time>
   <energy>
    <i name="e_fr_energy">    -68.21545842 </i>
    <i name="e_wo_entrp">    -68.21545842 </i>
    <i name="e_0_energy">    -68.21545842 </i>
   </energy>
  </scstep>
  <scstep>
   <time name="total">   10.40   10.45</time>
   <energy>
    <i name="e_fr_energy">    -68.21963421 </i>
    <i name="e_wo_entrp">    -68.21963421 </i>
    <i name="e_0_energy">    -68.21963421 </i>
   </energy>
  </scstep>
  <scstep>
   <time name="total">   10.40   10.46</time>
   <energy>
    <i name="e_fr_energy">    -68.22046383 </i>
    <i name="e_wo_entrp">    -68.22046383 </i>
    <i name="e_0_energy">    -68.22046383 </i>
   </energy>
  </scstep>
  <scstep>
   <time name="total">   10.47   10.57</time>
   <energy>
    <i name="e_fr_energy">    -68.22096835 </i>
    <i name="e_wo_entrp">    -68.22096835 </i>
    <i name="e_0_energy">    -68.22096835 </i>
   </energy>
  </scstep>
  <scstep>
   <time name="total">   10.45   10.53</time>
   <energy>
    <i name="e_fr_energy">    -68.22120617 </i>
    <i name="e_wo_entrp">    -68.22120617 </i>
    <i name="e_0_energy">    -68.22120617 </i>
   </energy>
  </scstep>
  <scstep>
   <time name="total">   10.43   10.51</time>
   <energy>
    <i name="e_fr_energy">    -68.22128918 </i>
    <i name="e_wo_entrp">    -68.22128918 </i>
    <i name="e_0_energy">    -68.22128918 </i>
   </energy>
  </scstep>
  <scstep>
   <time name="total">   10.45   10.50</time>
   <energy>
    <i name="e_fr_energy">    -68.22133581 </i>
    <i name="e_wo_entrp">    -68.22133581 </i>
    <i name="e_0_energy">    -68.22133581 </i>
   </energy>
  </scstep>
  <scstep>
   <time name="total">   10.40   10.45</time>
   <energy>
    <i name="e_fr_energy">    -68.22135415 </i>
    <i name="e_wo_entrp">    -68.22135415 </i>
    <i name="e_0_energy">    -68.22135415 </i>
   </energy>
  </scstep>
  <scstep>
   <time name="total">   10.41   10.46</time>
   <energy>
    <i name="e_fr_energy">    -68.22136156 </i>
    <i name="e_wo_entrp">    -68.22136156 </i>
    <i name="e_0_energy">    -68.22136156 </i>
   </energy>
  </scstep>
  <scstep>
   <time name="total">   10.41   10.45</time>
   <energy>
    <i name="e_fr_energy">    -68.22136480 </i>
    <i name="e_wo_entrp">    -68.22136480 </i>
    <i name="e_0_energy">    -68.22136480 </i>
   </energy>
  </scstep>
  <scstep>
   <time name="total">   10.40   10.44</time>
   <energy>
    <i name="e_fr_energy">    -68.22136640 </i>
    <i name="e_wo_entrp">    -68.22136640 </i>
    <i name="e_0_energy">    -68.22136640 </i>
   </energy>
  </scstep>
  <scstep>
   <time name="total">   10.41   10.46</time>
   <energy>
    <i name="e_fr_energy">    -68.22136734 </i>
    <i name="e_wo_entrp">    -68.22136734 </i>
    <i name="e_0_energy">    -68.22136734 </i>
   </energy>
  </scstep>
  <scstep>
   <time name="total">   10.39   10.44</time>
   <energy>
    <i name="e_fr_energy">    -68.22136799 </i>
    <i name="e_wo_entrp">    -68.22136799 </i>
    <i name="e_0_energy">    -68.22136799 </i>
   </energy>
  </scstep>
  <scstep>
   <time name="total">   10.39   10.45</time>
   <energy>
    <i name="e_fr_energy">    -68.22136842 </i>
    <i name="e_wo_entrp">    -68.22136842 </i>
    <i name="e_0_energy">    -68.22136842 </i>
   </energy>
  </scstep>
  <scstep>
   <time name="total">   10.40   10.45</time>
   <energy>
    <i name="e_fr_energy">    -68.22136874 </i>
    <i name="e_wo_entrp">    -68.22136874 </i>
    <i name="e_0_energy">    -68.22136874 </i>
   </energy>
  </scstep>
  <scstep>
   <time name="total">   10.39   10.45</time>
   <energy>
    <i name="e_fr_energy">    -68.22136899 </i>
    <i name="e_wo_entrp">    -68.22136899 </i>
    <i name="e_0_energy">    -68.22136899 </i>
   </energy>
  </scstep>
  <scstep>
   <time name="total">   10.39   10.45</time>
   <energy>
    <i name="e_fr_energy">    -68.22136920 </i>
    <i name="e_wo_entrp">    -68.22136920 </i>
    <i name="e_0_energy">    -68.22136920 </i>
   </energy>
  </scstep>
  <scstep>
   <time name="total">   10.39   10.44</time>
   <energy>
    <i name="e_fr_energy">    -68.22136938 </i>
    <i name="e_wo_entrp">    -68.22136938 </i>
    <i name="e_0_energy">    -68.22136938 </i>
   </energy>
  </scstep>
  <scstep>
   <time name="total">   10.38   10.44</time>
   <energy>
    <i name="e_fr_energy">    -68.22136953 </i>
    <i name="e_wo_entrp">    -68.22136953 </i>
    <i name="e_0_energy">    -68.22136953 </i>
   </energy>
  </scstep>
  <scstep>
   <time name="total">   10.41   10.46</time>
   <energy>
    <i name="e_fr_energy">    -68.22136966 </i>
    <i name="e_wo_entrp">    -68.22136966 </i>
    <i name="e_0_energy">    -68.22136966 </i>
   </energy>
  </scstep>
  <scstep>
   <time name="total">   10.38   10.44</time>
   <energy>
    <i name="e_fr_energy">    -68.22136976 </i>
    <i name="e_wo_entrp">    -68.22136976 </i>
    <i name="e_0_energy">    -68.22136976 </i>
   </energy>
  </scstep>
  <scstep>
   <time name="total">   20.56   20.66</time>
   <energy>
    <i name="alphaZ">    223.11462363 </i>
    <i name="ewald">  -2658.15941256 </i>
    <i name="hartreedc">  -1049.54838559 </i>
    <i name="XCdc">     61.38121287 </i>
    <i name="pawpsdc">   4407.34947995 </i>
    <i name="pawaedc">  -4308.79469743 </i>
    <i name="eentropy">      0.00000000 </i>
    <i name="bandstr">   -531.44990270 </i>
    <i name="atom">   3601.51511230 </i>
    <i name="e_fr_energy">    -68.22136986 </i>
    <i name="e_wo_entrp">    -68.22136986 </i>
    <i name="e_0_energy">    -68.22136986 </i>
   </energy>
  </scstep>
  <structure>
   <crystal>
    <varray name="basis" >
     <v>      -2.32576286       2.32576286       5.39194018 </v>
     <v>       2.32576286      -2.32576286       5.39194018 </v>
     <v>       2.32576286       2.32576286      -5.39194018 </v>
    </varray>
    <i name="volume">    116.66374598 </i>
    <varray name="rec_basis" >
     <v>      -0.00000000       0.21498323       0.09273100 </v>
     <v>       0.21498323      -0.00000000       0.09273100 </v>
     <v>       0.21498323       0.21498323       0.00000000 </v>
    </varray>
   </crystal>
   <varray name="positions" >
    <v>       0.25000000       0.75000000       0.50000000 </v>
    <v>       0.50000000       0.50000000       0.00000000 </v>
    <v>       0.00000000       0.00000000       0.00000000 </v>
    <v>       0.75000000       0.25000000       0.50000000 </v>
    <v>       0.78120171       0.78120171       0.00000000 </v>
    <v>       0.53120171       0.03120171       0.50000000 </v>
    <v>       0.21879829       0.21879829       0.00000000 </v>
    <v>       0.96879829       0.46879829       0.50000000 </v>
   </varray>
  </structure>
  <varray name="forces" >
   <v>       0.00000000      -0.00000000       0.00000000 </v>
   <v>       0.00000000      -0.00000000       0.00000000 </v>
   <v>       0.00000000      -0.00000000       0.00000000 </v>
   <v>       0.00000000      -0.00000000       0.00000000 </v>
   <v>      -0.00000000      -0.00000000      -0.03612491 </v>
   <v>      -0.00000000       0.00000000      -0.03612491 </v>
   <v>      -0.00000000      -0.00000000       0.03612491 </v>
   <v>       0.00000000       0.00000000       0.03612491 </v>
  </varray>
  <varray name="stress" >
   <v>      -0.83368288       0.00000000      -0.00000000 </v>
   <v>       0.00000000      -0.83368288       0.00000000 </v>
   <v>      -0.00000000      -0.00000000      -0.74349751 </v>
  </varray>
  <energy>
   <i name="e_fr_energy">    -68.22136986 </i>
   <i name="e_wo_entrp">    -68.22136986 </i>
   <i name="e_0_energy">    -68.22136986 </i>
  </energy>
  <time name="totalsc">  312.99  314.72</time>
 </calculation>
 <calculation>
  <scstep>
   <time name="total">   10.48   10.53</time>
   <energy>
    <i name="alphaZ">    223.20262152 </i>
    <i name="ewald">  -2658.49864662 </i>
    <i name="hartreedc">  -1049.45533791 </i>
    <i name="XCdc">     61.38702242 </i>
    <i name="pawpsdc">   4407.67092887 </i>
    <i name="pawaedc">  -4309.09290337 </i>
    <i name="eentropy">      0.00000000 </i>
    <i name="bandstr">   -531.32580823 </i>
    <i name="atom">   3601.51511230 </i>
    <i name="e_fr_energy">    -68.22132191 </i>
    <i name="e_wo_entrp">    -68.22132191 </i>
    <i name="e_0_energy">    -68.22132191 </i>
   </energy>
  </scstep>
  <scstep>
   <time name="total">   10.43   10.48</time>
   <energy>
    <i name="e_fr_energy">    -68.22136562 </i>
    <i name="e_wo_entrp">    -68.22136562 </i>
    <i name="e_0_energy">    -68.22136562 </i>
   </energy>
  </scstep>
  <scstep>
   <time name="total">   10.39   10.44</time>
   <energy>
    <i name="e_fr_energy">    -68.22136997 </i>
    <i name="e_wo_entrp">    -68.22136997 </i>
    <i name="e_0_energy">    -68.22136997 </i>
   </energy>
  </scstep>
  <scstep>
   <time name="total">   10.41   10.47</time>
   <energy>
    <i name="e_fr_energy">    -68.22137755 </i>
    <i name="e_wo_entrp">    -68.22137755 </i>
    <i name="e_0_energy">    -68.22137755 </i>
   </energy>
  </scstep>
  <scstep>
   <time name="total">   10.41   10.46</time>
   <energy>
    <i name="e_fr_energy">    -68.22137956 </i>
    <i name="e_wo_entrp">    -68.22137956 </i>
    <i name="e_0_energy">    -68.22137956 </i>
   </energy>
  </scstep>
  <scstep>
   <time name="total">   10.40   10.46</time>
   <energy>
    <i name="e_fr_energy">    -68.22137999 </i>
    <i name="e_wo_entrp">    -68.22137999 </i>
    <i name="e_0_energy">    -68.22137999 </i>
   </energy>
  </scstep>
  <scstep>
   <time name="total">   10.38   10.43</time>
   <energy>
    <i name="e_fr_energy">    -68.22138007 </i>
    <i name="e_wo_entrp">    -68.22138007 </i>
    <i name="e_0_energy">    -68.22138007 </i>
   </energy>
  </scstep>
  <scstep>
   <time name="total">   20.65   20.78</time>
   <energy>
    <i name="alphaZ">    223.20262152 </i>
    <i name="ewald">  -2658.49864662 </i>
    <i name="hartreedc">  -1049.42719302 </i>
    <i name="XCdc">     61.38599120 </i>
    <i name="pawpsdc">   4409.08387002 </i>
    <i name="pawaedc">  -4310.52278554 </i>
    <i name="eentropy">      0.00000000 </i>
    <i name="bandstr">   -531.33857774 </i>
    <i name="atom">   3601.51511230 </i>
    <i name="e_fr_energy">    -68.22138004 </i>
    <i name="e_wo_entrp">    -68.22138004 </i>
    <i name="e_0_energy">    -68.22138004 </i>
   </energy>
  </scstep>
  <structure>
   <crystal>
    <varray name="basis" >
     <v>      -2.32544872       2.32544872       5.39127068 </v>
     <v>       2.32544872      -2.32544872       5.39127068 </v>
     <v>       2.32544872       2.32544872      -5.39127068 </v>
    </varray>
    <i name="volume">    116.61775117 </i>
    <varray name="rec_basis" >
     <v>       0.00000000       0.21501227       0.09274251 </v>
     <v>       0.21501227       0.00000000       0.09274251 </v>
     <v>       0.21501227       0.21501227      -0.00000000 </v>
    </varray>
   </crystal>
   <varray name="positions" >
    <v>       0.25000000       0.75000000       0.50000000 </v>
    <v>       0.50000000       0.50000000       1.00000000 </v>
    <v>       0.00000000       0.00000000       1.00000000 </v>
    <v>       0.75000000       0.25000000       0.50000000 </v>
    <v>       0.78120507       0.78120507       0.00000000 </v>
    <v>       0.53120507       0.03120507       0.50000000 </v>
    <v>       0.21879493       0.21879493       0.00000000 </v>
    <v>       0.96879493       0.46879493       0.50000000 </v>
   </varray>
  </structure>
  <varray name="forces" >
   <v>       0.00000000      -0.00000000       0.00000000 </v>
   <v>       0.00000000      -0.00000000       0.00000000 </v>
   <v>       0.00000000      -0.00000000       0.00000000 </v>
   <v>       0.00000000      -0.00000000       0.00000000 </v>
   <v>      -0.00000000       0.00000000      -0.03782361 </v>
   <v>      -0.00000000       0.00000000      -0.03782361 </v>
   <v>       0.00000000       0.00000000       0.03782361 </v>
   <v>       0.00000000      -0.00000000       0.03782361 </v>
  </varray>
  <varray name="stress" >
   <v>      -0.25025403       0.00000000       0.00000000 </v>
   <v>       0.00000000      -0.25025403      -0.00000000 </v>
   <v>       0.00000000      -0.00000000      -0.20768538 </v>
  </varray>
  <energy>
   <i name="e_fr_energy">    -68.22138004 </i>
   <i name="e_wo_entrp">    -68.22138004 </i>
   <i name="e_0_energy">    -68.22138004 </i>
  </energy>
  <time name="totalsc">  115.50  116.24</time>
 </calculation>
 <calculation>
  <scstep>
   <time name="total">   10.38   10.42</time>
   <energy>
    <i name="alphaZ">    223.20905449 </i>
    <i name="ewald">  -2658.52344231 </i>
    <i name="hartreedc">  -1049.41699727 </i>
    <i name="XCdc">     61.38624672 </i>
    <i name="pawpsdc">   4409.09853322 </i>
    <i name="pawaedc">  -4310.53506674 </i>
    <i name="eentropy">      0.00000000 </i>
    <i name="bandstr">   -531.33302943 </i>
    <i name="atom">   3601.51511230 </i>
    <i name="e_fr_energy">    -68.22138018 </i>
    <i name="e_wo_entrp">    -68.22138018 </i>
    <i name="e_0_energy">    -68.22138018 </i>
   </energy>
  </scstep>
  <scstep>
   <time name="total">   20.57   20.67</time>
   <energy>
    <i name="alphaZ">    223.20905449 </i>
    <i name="ewald">  -2658.52344231 </i>
    <i name="hartreedc">  -1049.41276389 </i>
    <i name="XCdc">     61.38611524 </i>
    <i name="pawpsdc">   4409.14642305 </i>
    <i name="pawaedc">  -4310.58460848 </i>
    <i name="eentropy">      0.00000000 </i>
    <i name="bandstr">   -531.33529903 </i>
    <i name="atom">   3601.51511230 </i>
    <i name="e_fr_energy">    -68.22138015 </i>
    <i name="e_wo_entrp">    -68.22138015 </i>
    <i name="e_0_energy">    -68.22138015 </i>
   </energy>
  </scstep>
  <structure>
   <crystal>
    <varray name="basis" >
     <v>      -2.32542576       2.32542576       5.39122175 </v>
     <v>       2.32542576      -2.32542576       5.39122175 </v>
     <v>       2.32542576       2.32542576      -5.39122175 </v>
    </varray>
    <i name="volume">    116.61439020 </i>
    <varray name="rec_basis" >
     <v>       0.00000000       0.21501439       0.09274336 </v>
     <v>       0.21501439       0.00000000       0.09274336 </v>
     <v>       0.21501439       0.21501439      -0.00000000 </v>
    </varray>
   </crystal>
   <varray name="positions" >
    <v>       0.25000000       0.75000000       0.50000000 </v>
    <v>       0.50000000       0.50000000       0.00000000 </v>
    <v>       0.00000000       0.00000000       0.00000000 </v>
    <v>       0.75000000       0.25000000       0.50000000 </v>
    <v>       0.78120531       0.78120531       0.00000000 </v>
    <v>       0.53120531       0.03120531       0.50000000 </v>
    <v>       0.21879469       0.21879469       0.00000000 </v>
    <v>       0.96879469       0.46879469       0.50000000 </v>
   </varray>
  </structure>
  <varray name="forces" >
   <v>       0.00000000      -0.00000000       0.00000000 </v>
   <v>       0.00000000      -0.00000000       0.00000000 </v>
   <v>       0.00000000      -0.00000000       0.00000000 </v>
   <v>       0.00000000      -0.00000000       0.00000000 </v>
   <v>      -0.00000000       0.00000000      -0.03790837 </v>
   <v>      -0.00000000      -0.00000000      -0.03790837 </v>
   <v>       0.00000000       0.00000000       0.03790837 </v>
   <v>       0.00000000      -0.00000000       0.03790837 </v>
  </varray>
  <varray name="stress" >
   <v>      -0.24263147       0.00000000      -0.00000000 </v>
   <v>       0.00000000      -0.24263147      -0.00000000 </v>
   <v>       0.00000000      -0.00000000      -0.19977679 </v>
  </varray>
  <energy>
   <i name="e_fr_energy">    -68.22138015 </i>
   <i name="e_wo_entrp">    -68.22138015 </i>
   <i name="e_0_energy">    -68.22138015 </i>
  </energy>
  <time name="totalsc">   52.73   53.01</time>
 </calculation>
 <calculation>
  <scstep>
   <time name="total">   10.38   10.43</time>
   <energy>
    <i name="alphaZ">    223.23592054 </i>
    <i name="ewald">  -2658.62699145 </i>
    <i name="hartreedc">  -1049.39199747 </i>
    <i name="XCdc">     61.38818318 </i>
    <i name="pawpsdc">   4409.29208086 </i>
    <i name="pawaedc">  -4310.72338552 </i>
    <i name="eentropy">      0.00000000 </i>
    <i name="bandstr">   -531.29062107 </i>
    <i name="atom">   3601.51511230 </i>
    <i name="e_fr_energy">    -68.22137499 </i>
    <i name="e_wo_entrp">    -68.22137499 </i>
    <i name="e_0_energy">    -68.22137499 </i>
   </energy>
  </scstep>
  <scstep>
   <time name="total">   10.41   10.46</time>
   <energy>
    <i name="e_fr_energy">    -68.22137803 </i>
    <i name="e_wo_entrp">    -68.22137803 </i>
    <i name="e_0_energy">    -68.22137803 </i>
   </energy>
  </scstep>
  <scstep>
   <time name="total">   10.41   10.47</time>
   <energy>
    <i name="e_fr_energy">    -68.22137825 </i>
    <i name="e_wo_entrp">    -68.22137825 </i>
    <i name="e_0_energy">    -68.22137825 </i>
   </energy>
  </scstep>
  <scstep>
   <time name="total">   10.41   10.47</time>
   <energy>
    <i name="e_fr_energy">    -68.22137906 </i>
    <i name="e_wo_entrp">    -68.22137906 </i>
    <i name="e_0_energy">    -68.22137906 </i>
   </energy>
  </scstep>
  <scstep>
   <time name="total">   10.40   10.46</time>
   <energy>
    <i name="e_fr_energy">    -68.22137938 </i>
    <i name="e_wo_entrp">    -68.22137938 </i>
    <i name="e_0_energy">    -68.22137938 </i>
   </energy>
  </scstep>
  <scstep>
   <time name="total">   20.42   20.74</time>
   <energy>
    <i name="alphaZ">    223.23592054 </i>
    <i name="ewald">  -2658.62699145 </i>
    <i name="hartreedc">  -1049.38348994 </i>
    <i name="XCdc">     61.38785166 </i>
    <i name="pawpsdc">   4409.71501162 </i>
    <i name="pawaedc">  -4311.15169430 </i>
    <i name="eentropy">      0.00000000 </i>
    <i name="bandstr">   -531.29429144 </i>
    <i name="atom">   3601.51511230 </i>
    <i name="e_fr_energy">    -68.22137944 </i>
    <i name="e_wo_entrp">    -68.22137944 </i>
    <i name="e_0_energy">    -68.22137944 </i>
   </energy>
  </scstep>
  <structure>
   <crystal>
    <varray name="basis" >
     <v>      -2.32532989       2.32532989       5.39101742 </v>
     <v>       2.32532989      -2.32532989       5.39101742 </v>
     <v>       2.32532989       2.32532989      -5.39101742 </v>
    </varray>
    <i name="volume">    116.60035586 </i>
    <varray name="rec_basis" >
     <v>      -0.00000000       0.21502325       0.09274687 </v>
     <v>       0.21502325      -0.00000000       0.09274687 </v>
     <v>       0.21502325       0.21502325       0.00000000 </v>
    </varray>
   </crystal>
   <varray name="positions" >
    <v>       0.25000000       0.75000000       0.50000000 </v>
    <v>       0.50000000       0.50000000       1.00000000 </v>
    <v>       0.00000000       0.00000000       1.00000000 </v>
    <v>       0.75000000       0.25000000       0.50000000 </v>
    <v>       0.78120634       0.78120634       0.00000000 </v>
    <v>       0.53120634       0.03120634       0.50000000 </v>
    <v>       0.21879366       0.21879366       0.00000000 </v>
    <v>       0.96879366       0.46879366       0.50000000 </v>
   </varray>
  </structure>
  <varray name="forces" >
   <v>       0.00000000      -0.00000000      -0.00000000 </v>
   <v>       0.00000000      -0.00000000       0.00000000 </v>
   <v>       0.00000000      -0.00000000       0.00000000 </v>
   <v>       0.00000000      -0.00000000      -0.00000000 </v>
   <v>      -0.00000000       0.00000000      -0.03791645 </v>
   <v>       0.00000000       0.00000000      -0.03791645 </v>
   <v>      -0.00000000      -0.00000000       0.03791645 </v>
   <v>       0.00000000      -0.00000000       0.03791645 </v>
  </varray>
  <varray name="stress" >
   <v>      -0.00368584       0.00000000      -0.00000000 </v>
   <v>       0.00000000      -0.00368584      -0.00000000 </v>
   <v>       0.00000000      -0.00000000       0.03412186 </v>
  </varray>
  <energy>
   <i name="e_fr_energy">    -68.22137944 </i>
   <i name="e_wo_entrp">    -68.22137944 </i>
   <i name="e_0_energy">    -68.22137944 </i>
  </energy>
  <time name="totalsc">   94.22   94.92</time>
 </calculation>
 <calculation>
  <scstep>
   <time name="total">   10.39   10.43</time>
   <energy>
    <i name="alphaZ">    223.21291017 </i>
    <i name="ewald">  -2658.53830378 </i>
    <i name="hartreedc">  -1049.40289650 </i>
    <i name="XCdc">     61.38613229 </i>
    <i name="pawpsdc">   4409.62318270 </i>
    <i name="pawaedc">  -4311.06580414 </i>
    <i name="eentropy">      0.00000000 </i>
    <i name="bandstr">   -531.33114081 </i>
    <i name="atom">   3601.51511230 </i>
    <i name="e_fr_energy">    -68.22137514 </i>
    <i name="e_wo_entrp">    -68.22137514 </i>
    <i name="e_0_energy">    -68.22137514 </i>
   </energy>
  </scstep>
  <scstep>
   <time name="total">   10.43   10.47</time>
   <energy>
    <i name="e_fr_energy">    -68.22137908 </i>
    <i name="e_wo_entrp">    -68.22137908 </i>
    <i name="e_0_energy">    -68.22137908 </i>
   </energy>
  </scstep>
  <scstep>
   <time name="total">   10.42   10.48</time>
   <energy>
    <i name="e_fr_energy">    -68.22138000 </i>
    <i name="e_wo_entrp">    -68.22138000 </i>
    <i name="e_0_energy">    -68.22138000 </i>
   </energy>
  </scstep>
  <scstep>
   <time name="total">   10.41   10.46</time>
   <energy>
    <i name="e_fr_energy">    -68.22138028 </i>
    <i name="e_wo_entrp">    -68.22138028 </i>
    <i name="e_0_energy">    -68.22138028 </i>
   </energy>
  </scstep>
  <scstep>
   <time name="total">   20.68   20.78</time>
   <energy>
    <i name="alphaZ">    223.21291017 </i>
    <i name="ewald">  -2658.53830378 </i>
    <i name="hartreedc">  -1049.41547698 </i>
    <i name="XCdc">     61.38661167 </i>
    <i name="pawpsdc">   4409.26330379 </i>
    <i name="pawaedc">  -4310.70087797 </i>
    <i name="eentropy">      0.00000000 </i>
    <i name="bandstr">   -531.32388864 </i>
    <i name="atom">   3601.51511230 </i>
    <i name="e_fr_energy">    -68.22138020 </i>
    <i name="e_wo_entrp">    -68.22138020 </i>
    <i name="e_0_energy">    -68.22138020 </i>
   </energy>
  </scstep>
  <structure>
   <crystal>
    <varray name="basis" >
     <v>      -2.32541200       2.32541200       5.39119242 </v>
     <v>       2.32541200      -2.32541200       5.39119242 </v>
     <v>       2.32541200       2.32541200      -5.39119242 </v>
    </varray>
    <i name="volume">    116.61237585 </i>
    <varray name="rec_basis" >
     <v>       0.00000000       0.21501566       0.09274386 </v>
     <v>       0.21501566       0.00000000       0.09274386 </v>
     <v>       0.21501566       0.21501566       0.00000000 </v>
    </varray>
   </crystal>
   <varray name="positions" >
    <v>       0.25000000       0.75000000       0.50000000 </v>
    <v>       0.50000000       0.50000000       0.00000000 </v>
    <v>       0.00000000       0.00000000       0.00000000 </v>
    <v>       0.75000000       0.25000000       0.50000000 </v>
    <v>       0.78120546       0.78120546       0.00000000 </v>
    <v>       0.53120546       0.03120546       0.50000000 </v>
    <v>       0.21879454       0.21879454       0.00000000 </v>
    <v>       0.96879454       0.46879454       0.50000000 </v>
   </varray>
  </structure>
  <varray name="forces" >
   <v>      -0.00000000       0.00000000       0.00000000 </v>
   <v>      -0.00000000       0.00000000       0.00000000 </v>
   <v>      -0.00000000       0.00000000       0.00000000 </v>
   <v>      -0.00000000       0.00000000       0.00000000 </v>
   <v>      -0.00000000       0.00000000      -0.03818576 </v>
   <v>       0.00000000      -0.00000000      -0.03818576 </v>
   <v>      -0.00000000      -0.00000000       0.03818576 </v>
   <v>       0.00000000      -0.00000000       0.03818576 </v>
  </varray>
  <varray name="stress" >
   <v>      -0.18324537       0.00000000       0.00000000 </v>
   <v>       0.00000000      -0.18324537       0.00000000 </v>
   <v>       0.00000000       0.00000000      -0.13957478 </v>
  </varray>
  <energy>
   <i name="e_fr_energy">    -68.22138020 </i>
   <i name="e_wo_entrp">    -68.22138020 </i>
   <i name="e_0_energy">    -68.22138020 </i>
  </energy>
  <time name="totalsc">   84.21   84.62</time>
 </calculation>
 <calculation>
  <scstep>
   <time name="total">   10.41   10.45</time>
   <energy>
    <i name="alphaZ">    223.21120552 </i>
    <i name="ewald">  -2658.53173336 </i>
    <i name="hartreedc">  -1049.41345372 </i>
    <i name="XCdc">     61.38636670 </i>
    <i name="pawpsdc">   4409.25086386 </i>
    <i name="pawaedc">  -4310.68949534 </i>
    <i name="eentropy">      0.00000000 </i>
    <i name="bandstr">   -531.32904483 </i>
    <i name="atom">   3601.51511230 </i>
    <i name="e_fr_energy">    -68.22138007 </i>
    <i name="e_wo_entrp">    -68.22138007 </i>
    <i name="e_0_energy">    -68.22138007 </i>
   </energy>
  </scstep>
  <scstep>
   <time name="total">   10.40   10.45</time>
   <energy>
    <i name="e_fr_energy">    -68.22138024 </i>
    <i name="e_wo_entrp">    -68.22138024 </i>
    <i name="e_0_energy">    -68.22138024 </i>
   </energy>
  </scstep>
  <scstep>
   <time name="total">   20.64   20.86</time>
   <energy>
    <i name="alphaZ">    223.21120552 </i>
    <i name="ewald">  -2658.53173336 </i>
    <i name="hartreedc">  -1049.41811382 </i>
    <i name="XCdc">     61.38652367 </i>
    <i name="pawpsdc">   4409.24104288 </i>
    <i name="pawaedc">  -4310.67849194 </i>
    <i name="eentropy">      0.00000000 </i>
    <i name="bandstr">   -531.32599957 </i>
    <i name="atom">   3601.51511230 </i>
    <i name="e_fr_energy">    -68.22138029 </i>
    <i name="e_wo_entrp">    -68.22138029 </i>
    <i name="e_0_energy">    -68.22138029 </i>
   </energy>
  </scstep>
  <structure>
   <crystal>
    <varray name="basis" >
     <v>      -2.32541809       2.32541809       5.39120539 </v>
     <v>       2.32541809      -2.32541809       5.39120539 </v>
     <v>       2.32541809       2.32541809      -5.39120539 </v>
    </varray>
    <i name="volume">    116.61326642 </i>
    <varray name="rec_basis" >
     <v>       0.00000000       0.21501510       0.09274364 </v>
     <v>       0.21501510       0.00000000       0.09274364 </v>
     <v>       0.21501510       0.21501510       0.00000000 </v>
    </varray>
   </crystal>
   <varray name="positions" >
    <v>       0.25000000       0.75000000       0.50000000 </v>
    <v>       0.50000000       0.50000000       0.00000000 </v>
    <v>       0.00000000       0.00000000       0.00000000 </v>
    <v>       0.75000000       0.25000000       0.50000000 </v>
    <v>       0.78120539       0.78120539       0.00000000 </v>
    <v>       0.53120539       0.03120539       0.50000000 </v>
    <v>       0.21879461       0.21879461       0.00000000 </v>
    <v>       0.96879461       0.46879461       0.50000000 </v>
   </varray>
  </structure>
  <varray name="forces" >
   <v>      -0.00000000       0.00000000      -0.00000000 </v>
   <v>      -0.00000000       0.00000000       0.00000000 </v>
   <v>      -0.00000000       0.00000000       0.00000000 </v>
   <v>      -0.00000000       0.00000000      -0.00000000 </v>
   <v>       0.00000000       0.00000000      -0.03749654 </v>
   <v>      -0.00000000       0.00000000      -0.03749654 </v>
   <v>       0.00000000      -0.00000000       0.03749654 </v>
   <v>      -0.00000000      -0.00000000       0.03749654 </v>
  </varray>
  <varray name="stress" >
   <v>      -0.15423850       0.00000000       0.00000000 </v>
   <v>       0.00000000      -0.15423850      -0.00000000 </v>
   <v>       0.00000000      -0.00000000      -0.10666835 </v>
  </varray>
  <energy>
   <i name="e_fr_energy">    -68.22138029 </i>
   <i name="e_wo_entrp">    -68.22138029 </i>
   <i name="e_0_energy">    -68.22138029 </i>
  </energy>
  <time name="totalsc">   63.35   63.80</time>
 </calculation>
 <calculation>
  <scstep>
   <time name="total">   10.50   10.66</time>
   <energy>
    <i name="alphaZ">    223.20988959 </i>
    <i name="ewald">  -2658.52666124 </i>
    <i name="hartreedc">  -1049.41686781 </i>
    <i name="XCdc">     61.38634370 </i>
    <i name="pawpsdc">   4409.23356164 </i>
    <i name="pawaedc">  -4310.67159734 </i>
    <i name="eentropy">      0.00000000 </i>
    <i name="bandstr">   -531.32994548 </i>
    <i name="atom">   3601.51511230 </i>
    <i name="e_fr_energy">    -68.22138021 </i>
    <i name="e_wo_entrp">    -68.22138021 </i>
    <i name="e_0_energy">    -68.22138021 </i>
   </energy>
  </scstep>
  <scstep>
   <time name="total">   20.56   20.66</time>
   <energy>
    <i name="alphaZ">    223.20988959 </i>
    <i name="ewald">  -2658.52666124 </i>
    <i name="hartreedc">  -1049.41811098 </i>
    <i name="XCdc">     61.38639040 </i>
    <i name="pawpsdc">   4409.22607759 </i>
    <i name="pawaedc">  -4310.66392726 </i>
    <i name="eentropy">      0.00000000 </i>
    <i name="bandstr">   -531.32900289 </i>
    <i name="atom">   3601.51511230 </i>
    <i name="e_fr_energy">    -68.22138024 </i>
    <i name="e_wo_entrp">    -68.22138024 </i>
    <i name="e_0_energy">    -68.22138024 </i>
   </energy>
  </scstep>
  <structure>
   <crystal>
    <varray name="basis" >
     <v>      -2.32542278       2.32542278       5.39121540 </v>
     <v>       2.32542278      -2.32542278       5.39121540 </v>
     <v>       2.32542278       2.32542278      -5.39121540 </v>
    </varray>
    <i name="volume">    116.61395391 </i>
    <varray name="rec_basis" >
     <v>       0.00000000       0.21501466       0.09274347 </v>
     <v>       0.21501466       0.00000000       0.09274347 </v>
     <v>       0.21501466       0.21501466      -0.00000000 </v>
    </varray>
   </crystal>
   <varray name="positions" >
    <v>       0.25000000       0.75000000       0.50000000 </v>
    <v>       0.50000000       0.50000000       0.00000000 </v>
    <v>       0.00000000       0.00000000       0.00000000 </v>
    <v>       0.75000000       0.25000000       0.50000000 </v>
    <v>       0.78120534       0.78120534       0.00000000 </v>
    <v>       0.53120534       0.03120534       0.50000000 </v>
    <v>       0.21879466       0.21879466       0.00000000 </v>
    <v>       0.96879466       0.46879466       0.50000000 </v>
   </varray>
  </structure>
  <varray name="forces" >
   <v>       0.00000000      -0.00000000      -0.00000000 </v>
   <v>       0.00000000      -0.00000000      -0.00000000 </v>
   <v>       0.00000000      -0.00000000      -0.00000000 </v>
   <v>       0.00000000      -0.00000000      -0.00000000 </v>
   <v>      -0.00000000       0.00000000      -0.03733351 </v>
   <v>      -0.00000000      -0.00000000      -0.03733351 </v>
   <v>       0.00000000       0.00000000       0.03733351 </v>
   <v>       0.00000000       0.00000000       0.03733351 </v>
  </varray>
  <varray name="stress" >
   <v>      -0.17782252       0.00000000      -0.00000000 </v>
   <v>       0.00000000      -0.17782252      -0.00000000 </v>
   <v>       0.00000000      -0.00000000      -0.12973476 </v>
  </varray>
  <energy>
   <i name="e_fr_energy">    -68.22138024 </i>
   <i name="e_wo_entrp">    -68.22138024 </i>
   <i name="e_0_energy">    -68.22138024 </i>
  </energy>
  <time name="totalsc">   53.14   53.58</time>
 </calculation>
 <calculation>
  <scstep>
   <time name="total">   10.39   10.44</time>
   <energy>
    <i name="alphaZ">    223.20950257 </i>
    <i name="ewald">  -2658.52516950 </i>
    <i name="hartreedc">  -1049.41709055 </i>
    <i name="XCdc">     61.38630643 </i>
    <i name="pawpsdc">   4409.21620641 </i>
    <i name="pawaedc">  -4310.65409366 </i>
    <i name="eentropy">      0.00000000 </i>
    <i name="bandstr">   -531.33083032 </i>
    <i name="atom">   3601.51511230 </i>
    <i name="e_fr_energy">    -68.22138024 </i>
    <i name="e_wo_entrp">    -68.22138024 </i>
    <i name="e_0_energy">    -68.22138024 </i>
   </energy>
  </scstep>
  <scstep>
   <time name="total">   20.57   20.67</time>
   <energy>
    <i name="alphaZ">    223.20950257 </i>
    <i name="ewald">  -2658.52516950 </i>
    <i name="hartreedc">  -1049.41802751 </i>
    <i name="XCdc">     61.38634593 </i>
    <i name="pawpsdc">   4409.21268949 </i>
    <i name="pawaedc">  -4310.65055612 </i>
    <i name="eentropy">      0.00000000 </i>
    <i name="bandstr">   -531.33001568 </i>
    <i name="atom">   3601.51511230 </i>
    <i name="e_fr_energy">    -68.22138025 </i>
    <i name="e_wo_entrp">    -68.22138025 </i>
    <i name="e_0_energy">    -68.22138025 </i>
   </energy>
  </scstep>
  <structure>
   <crystal>
    <varray name="basis" >
     <v>      -2.32542416       2.32542416       5.39121834 </v>
     <v>       2.32542416      -2.32542416       5.39121834 </v>
     <v>       2.32542416       2.32542416      -5.39121834 </v>
    </varray>
    <i name="volume">    116.61415610 </i>
    <varray name="rec_basis" >
     <v>      -0.00000000       0.21501454       0.09274342 </v>
     <v>       0.21501454      -0.00000000       0.09274342 </v>
     <v>       0.21501454       0.21501454       0.00000000 </v>
    </varray>
   </crystal>
   <varray name="positions" >
    <v>       0.25000000       0.75000000       0.50000000 </v>
    <v>       0.50000000       0.50000000       0.00000000 </v>
    <v>       0.00000000       0.00000000       0.00000000 </v>
    <v>       0.75000000       0.25000000       0.50000000 </v>
    <v>       0.78120533       0.78120533       0.00000000 </v>
    <v>       0.53120533       0.03120533       0.50000000 </v>
    <v>       0.21879467       0.21879467       0.00000000 </v>
    <v>       0.96879467       0.46879467       0.50000000 </v>
   </varray>
  </structure>
  <varray name="forces" >
   <v>      -0.00000000       0.00000000      -0.00000000 </v>
   <v>      -0.00000000       0.00000000      -0.00000000 </v>
   <v>      -0.00000000       0.00000000      -0.00000000 </v>
   <v>      -0.00000000       0.00000000      -0.00000000 </v>
   <v>       0.00000000      -0.00000000      -0.03741254 </v>
   <v>      -0.00000000       0.00000000      -0.03741254 </v>
   <v>       0.00000000      -0.00000000       0.03741254 </v>
   <v>       0.00000000       0.00000000       0.03741254 </v>
  </varray>
  <varray name="stress" >
   <v>      -0.18389550       0.00000000      -0.00000000 </v>
   <v>       0.00000000      -0.18389550      -0.00000000 </v>
   <v>      -0.00000000      -0.00000000      -0.13594751 </v>
  </varray>
  <energy>
   <i name="e_fr_energy">    -68.22138025 </i>
   <i name="e_wo_entrp">    -68.22138025 </i>
   <i name="e_0_energy">    -68.22138025 </i>
  </energy>
  <time name="totalsc">   52.76   53.00</time>
 </calculation>
 <calculation>
  <scstep>
   <time name="total">   10.39   10.44</time>
   <energy>
    <i name="alphaZ">    223.20927853 </i>
    <i name="ewald">  -2658.52430596 </i>
    <i name="hartreedc">  -1049.41789953 </i>
    <i name="XCdc">     61.38631637 </i>
    <i name="pawpsdc">   4409.20824626 </i>
    <i name="pawaedc">  -4310.64614817 </i>
    <i name="eentropy">      0.00000000 </i>
    <i name="bandstr">   -531.33065697 </i>
    <i name="atom">   3601.51511230 </i>
[...]
   <i name="e_0_energy">    -68.22138025 </i>
  </energy>
  <time name="totalsc">   52.78   53.03</time>
 </calculation>
 <calculation>
  <scstep>
   <time name="total">   10.41   10.45</time>
   <energy>
    <i name="alphaZ">    223.20905799 </i>
    <i name="ewald">  -2658.52345592 </i>
    <i name="hartreedc">  -1049.41870732 </i>
    <i name="XCdc">     61.38632614 </i>
    <i name="pawpsdc">   4409.20053029 </i>
    <i name="pawaedc">  -4310.63838401 </i>
    <i name="eentropy">      0.00000000 </i>
    <i name="bandstr">   -531.33054663 </i>
    <i name="atom">   3601.51511230 </i>
    <i name="e_fr_energy">    -68.22138025 </i>
    <i name="e_wo_entrp">    -68.22138025 </i>
    <i name="e_0_energy">    -68.22138025 </i>
   </energy>
  </scstep>
  <scstep>
   <time name="total">   20.60   20.71</time>
   <energy>
    <i name="alphaZ">    223.20905799 </i>
    <i name="ewald">  -2658.52345592 </i>
    <i name="hartreedc">  -1049.41869496 </i>
    <i name="XCdc">     61.38632544 </i>
    <i name="pawpsdc">   4409.20047152 </i>
    <i name="pawaedc">  -4310.63832358 </i>
    <i name="eentropy">      0.00000000 </i>
    <i name="bandstr">   -531.33055814 </i>
    <i name="atom">   3601.51511230 </i>
    <i name="e_fr_energy">    -68.22138025 </i>
    <i name="e_wo_entrp">    -68.22138025 </i>
    <i name="e_0_energy">    -68.22138025 </i>
   </energy>
  </scstep>
  <structure>
   <crystal>
    <varray name="basis" >
     <v>      -2.32542575       2.32542575       5.39122172 </v>
     <v>       2.32542575      -2.32542575       5.39122172 </v>
     <v>       2.32542575       2.32542575      -5.39122172 </v>
    </varray>
    <i name="volume">    116.61438837 </i>
    <varray name="rec_basis" >
     <v>       0.00000000       0.21501439       0.09274336 </v>
     <v>       0.21501439       0.00000000       0.09274336 </v>
     <v>       0.21501439       0.21501439       0.00000000 </v>
    </varray>
   </crystal>
   <varray name="positions" >
    <v>       0.25000000       0.75000000       0.50000000 </v>
    <v>       0.50000000       0.50000000       0.00000000 </v>
    <v>       0.00000000       0.00000000       0.00000000 </v>
    <v>       0.75000000       0.25000000       0.50000000 </v>
    <v>       0.78120531       0.78120531       0.00000000 </v>
    <v>       0.53120531       0.03120531       0.50000000 </v>
    <v>       0.21879469       0.21879469       0.00000000 </v>
    <v>       0.96879469       0.46879469       0.50000000 </v>
   </varray>
  </structure>
  <varray name="forces" >
   <v>       0.00000000      -0.00000000      -0.00000000 </v>
   <v>       0.00000000      -0.00000000      -0.00000000 </v>
   <v>       0.00000000      -0.00000000      -0.00000000 </v>
   <v>       0.00000000      -0.00000000      -0.00000000 </v>
   <v>      -0.00000000       0.00000000      -0.03752303 </v>
   <v>      -0.00000000       0.00000000      -0.03752303 </v>
   <v>       0.00000000      -0.00000000       0.03752303 </v>
   <v>       0.00000000      -0.00000000       0.03752303 </v>
  </varray>
  <varray name="stress" >
   <v>      -0.18816896       0.00000000       0.00000000 </v>
   <v>       0.00000000      -0.18816896      -0.00000000 </v>
   <v>       0.00000000      -0.00000000      -0.14109419 </v>
  </varray>
  <energy>
   <i name="e_fr_energy">    -68.22138025 </i>
   <i name="e_wo_entrp">    -68.22138025 </i>
   <i name="e_0_energy">    -68.22138025 </i>
  </energy>
  <time name="totalsc">   52.79   53.05</time>
 </calculation>
 <calculation>
  <scstep>
   <time name="total">   10.40   10.44</time>
   <energy>
    <i name="alphaZ">    223.20905624 </i>
    <i name="ewald">  -2658.52344917 </i>
    <i name="hartreedc">  -1049.41871296 </i>
    <i name="XCdc">     61.38632617 </i>
    <i name="pawpsdc">   4409.20047810 </i>
    <i name="pawaedc">  -4310.63833068 </i>
    <i name="eentropy">      0.00000000 </i>
    <i name="bandstr">   -531.33054707 </i>
    <i name="atom">   3601.51511230 </i>
    <i name="e_fr_energy">    -68.22138025 </i>
    <i name="e_wo_entrp">    -68.22138025 </i>
    <i name="e_0_energy">    -68.22138025 </i>
   </energy>
  </scstep>
  <scstep>
   <time name="total">   20.60   20.70</time>
   <energy>
    <i name="alphaZ">    223.20905624 </i>
    <i name="ewald">  -2658.52344917 </i>
    <i name="hartreedc">  -1049.41869761 </i>
    <i name="XCdc">     61.38632535 </i>
    <i name="pawpsdc">   4409.20043220 </i>
    <i name="pawaedc">  -4310.63828356 </i>
    <i name="eentropy">      0.00000000 </i>
    <i name="bandstr">   -531.33056084 </i>
    <i name="atom">   3601.51511230 </i>
    <i name="e_fr_energy">    -68.22138025 </i>
    <i name="e_wo_entrp">    -68.22138025 </i>
    <i name="e_0_energy">    -68.22138025 </i>
   </energy>
  </scstep>
  <structure>
   <crystal>
    <varray name="basis" >
     <v>      -2.32542576       2.32542576       5.39122173 </v>
     <v>       2.32542576      -2.32542576       5.39122173 </v>
     <v>       2.32542576       2.32542576      -5.39122173 </v>
    </varray>
    <i name="volume">    116.61438928 </i>
    <varray name="rec_basis" >
     <v>       0.00000000       0.21501439       0.09274336 </v>
     <v>       0.21501439       0.00000000       0.09274336 </v>
     <v>       0.21501439       0.21501439       0.00000000 </v>
    </varray>
   </crystal>
   <varray name="positions" >
    <v>       0.25000000       0.75000000       0.50000000 </v>
    <v>       0.50000000       0.50000000       0.00000000 </v>
    <v>       0.00000000       0.00000000       0.00000000 </v>
    <v>       0.75000000       0.25000000       0.50000000 </v>
    <v>       0.78120531       0.78120531       0.00000000 </v>
    <v>       0.53120531       0.03120531       0.50000000 </v>
    <v>       0.21879469       0.21879469       0.00000000 </v>
    <v>       0.96879469       0.46879469       0.50000000 </v>
   </varray>
  </structure>
  <varray name="forces" >
   <v>       0.00000000      -0.00000000      -0.00000000 </v>
   <v>       0.00000000      -0.00000000      -0.00000000 </v>
   <v>       0.00000000      -0.00000000      -0.00000000 </v>
   <v>       0.00000000      -0.00000000      -0.00000000 </v>
   <v>      -0.00000000       0.00000000      -0.03752382 </v>
   <v>       0.00000000      -0.00000000      -0.03752382 </v>
   <v>      -0.00000000       0.00000000       0.03752382 </v>
   <v>      -0.00000000       0.00000000       0.03752382 </v>
  </varray>
  <varray name="stress" >
   <v>      -0.18818241       0.00000000       0.00000000 </v>
   <v>      -0.00000000      -0.18818241       0.00000000 </v>
   <v>       0.00000000       0.00000000      -0.14111173 </v>
  </varray>
  <energy>
   <i name="e_fr_energy">    -68.22138025 </i>
   <i name="e_wo_entrp">    -68.22138025 </i>
   <i name="e_0_energy">    -68.22138025 </i>
  </energy>
  <time name="totalsc">   52.96   53.24</time>
 </calculation>
 <calculation>
  <scstep>
   <time name="total">   10.41   10.45</time>
   <energy>
    <i name="alphaZ">    223.20905537 </i>
    <i name="ewald">  -2658.52344580 </i>
    <i name="hartreedc">  -1049.41871628 </i>
    <i name="XCdc">     61.38632621 </i>
    <i name="pawpsdc">   4409.20045523 </i>
    <i name="pawaedc">  -4310.63830717 </i>
    <i name="eentropy">      0.00000000 </i>
    <i name="bandstr">   -531.33054693 </i>
    <i name="atom">   3601.51511230 </i>
    <i name="e_fr_energy">    -68.22138025 </i>
    <i name="e_wo_entrp">    -68.22138025 </i>
    <i name="e_0_energy">    -68.22138025 </i>
   </energy>
  </scstep>
  <scstep>
   <time name="total">   20.58   20.67</time>
   <energy>
    <i name="alphaZ">    223.20905537 </i>
    <i name="ewald">  -2658.52344580 </i>
    <i name="hartreedc">  -1049.41869913 </i>
    <i name="XCdc">     61.38632531 </i>
    <i name="pawpsdc">   4409.20041541 </i>
    <i name="pawaedc">  -4310.63826633 </i>
    <i name="eentropy">      0.00000000 </i>
    <i name="bandstr">   -531.33056212 </i>
    <i name="atom">   3601.51511230 </i>
    <i name="e_fr_energy">    -68.22138025 </i>
    <i name="e_wo_entrp">    -68.22138025 </i>
    <i name="e_0_energy">    -68.22138025 </i>
   </energy>
  </scstep>
  <structure>
   <crystal>
    <varray name="basis" >
     <v>      -2.32542576       2.32542576       5.39122174 </v>
     <v>       2.32542576      -2.32542576       5.39122174 </v>
     <v>       2.32542576       2.32542576      -5.39122174 </v>
    </varray>
    <i name="volume">    116.61438974 </i>
    <varray name="rec_basis" >
     <v>      -0.00000000       0.21501439       0.09274336 </v>
     <v>       0.21501439      -0.00000000       0.09274336 </v>
     <v>       0.21501439       0.21501439      -0.00000000 </v>
    </varray>
   </crystal>
   <varray name="positions" >
    <v>       0.25000000       0.75000000       0.50000000 </v>
    <v>       0.50000000       0.50000000       0.00000000 </v>
    <v>       0.00000000       0.00000000       0.00000000 </v>
    <v>       0.75000000       0.25000000       0.50000000 </v>
    <v>       0.78120531       0.78120531       0.00000000 </v>
    <v>       0.53120531       0.03120531       0.50000000 </v>
    <v>       0.21879469       0.21879469       0.00000000 </v>
    <v>       0.96879469       0.46879469       0.50000000 </v>
   </varray>
  </structure>
  <varray name="forces" >
   <v>       0.00000000      -0.00000000      -0.00000000 </v>
   <v>       0.00000000      -0.00000000      -0.00000000 </v>
   <v>       0.00000000      -0.00000000      -0.00000000 </v>
   <v>       0.00000000      -0.00000000      -0.00000000 </v>
   <v>      -0.00000000       0.00000000      -0.03752418 </v>
   <v>      -0.00000000      -0.00000000      -0.03752418 </v>
   <v>       0.00000000       0.00000000       0.03752418 </v>
   <v>       0.00000000      -0.00000000       0.03752418 </v>
  </varray>
  <varray name="stress" >
   <v>      -0.18818908      -0.00000000       0.00000000 </v>
   <v>      -0.00000000      -0.18818908       0.00000000 </v>
   <v>       0.00000000       0.00000000      -0.14112043 </v>
  </varray>
  <energy>
   <i name="e_fr_energy">    -68.22138025 </i>
   <i name="e_wo_entrp">    -68.22138025 </i>
   <i name="e_0_energy">    -68.22138025 </i>
  </energy>
  <time name="totalsc">   52.57   52.83</time>
 </calculation>
 <calculation>
  <scstep>
   <time name="total">   10.23   10.39</time>
   <energy>
    <i name="alphaZ">    211.09225997 </i>
    <i name="ewald">  -2610.95226277 </i>
    <i name="hartreedc">  -1060.50141314 </i>
    <i name="XCdc">     60.50658942 </i>
    <i name="pawpsdc">   4369.73534526 </i>
    <i name="pawaedc">  -4274.55044418 </i>
    <i name="eentropy">      0.00000000 </i>
    <i name="bandstr">   -549.16977050 </i>
    <i name="atom">   3601.51511230 </i>
    <i name="e_fr_energy">    -66.82287602 </i>
    <i name="e_wo_entrp">    -66.82287602 </i>
    <i name="e_0_energy">    -66.82287602 </i>
   </energy>
  </scstep>
  <scstep>
   <time name="total">   10.20   10.26</time>
   <energy>
    <i name="e_fr_energy">    -67.76246330 </i>
    <i name="e_wo_entrp">    -67.76246330 </i>
    <i name="e_0_energy">    -67.76246330 </i>
   </energy>
  </scstep>
  <scstep>
   <time name="total">   10.33   10.42</time>
   <energy>
    <i name="e_fr_energy">    -67.89210826 </i>
    <i name="e_wo_entrp">    -67.89210826 </i>
    <i name="e_0_energy">    -67.89210826 </i>
   </energy>
  </scstep>
  <scstep>
   <time name="total">   10.26   10.35</time>
   <energy>
    <i name="e_fr_energy">    -68.01498252 </i>
    <i name="e_wo_entrp">    -68.01498252 </i>
    <i name="e_0_energy">    -68.01498252 </i>
   </energy>
  </scstep>
  <scstep>
   <time name="total">   10.19   10.23</time>
   <energy>
    <i name="e_fr_energy">    -68.04196857 </i>
    <i name="e_wo_entrp">    -68.04196857 </i>
    <i name="e_0_energy">    -68.04196857 </i>
   </energy>
  </scstep>
  <scstep>
   <time name="total">   10.18   10.23</time>
   <energy>
    <i name="e_fr_energy">    -68.04911134 </i>
    <i name="e_wo_entrp">    -68.04911134 </i>
    <i name="e_0_energy">    -68.04911134 </i>
   </energy>
  </scstep>
  <scstep>
   <time name="total">   10.19   10.24</time>
   <energy>
    <i name="e_fr_energy">    -68.05395091 </i>
    <i name="e_wo_entrp">    -68.05395091 </i>
    <i name="e_0_energy">    -68.05395091 </i>
   </energy>
  </scstep>
  <scstep>
   <time name="total">   10.20   10.25</time>
   <energy>
    <i name="e_fr_energy">    -68.05490334 </i>
    <i name="e_wo_entrp">    -68.05490334 </i>
    <i name="e_0_energy">    -68.05490334 </i>
   </energy>
  </scstep>
  <scstep>
   <time name="total">   10.19   10.25</time>
   <energy>
    <i name="e_fr_energy">    -68.05560061 </i>
    <i name="e_wo_entrp">    -68.05560061 </i>
    <i name="e_0_energy">    -68.05560061 </i>
   </energy>
  </scstep>
  <scstep>
   <time name="total">   10.19   10.24</time>
   <energy>
    <i name="e_fr_energy">    -68.05585829 </i>
    <i name="e_wo_entrp">    -68.05585829 </i>
    <i name="e_0_energy">    -68.05585829 </i>
   </energy>
  </scstep>
  <scstep>
   <time name="total">   10.19   10.24</time>
   <energy>
    <i name="e_fr_energy">    -68.05597407 </i>
    <i name="e_wo_entrp">    -68.05597407 </i>
    <i name="e_0_energy">    -68.05597407 </i>
   </energy>
  </scstep>
  <scstep>
   <time name="total">   10.18   10.23</time>
   <energy>
    <i name="e_fr_energy">    -68.05602854 </i>
    <i name="e_wo_entrp">    -68.05602854 </i>
    <i name="e_0_energy">    -68.05602854 </i>
   </energy>
  </scstep>
  <scstep>
   <time name="total">   10.21   10.26</time>
   <energy>
    <i name="e_fr_energy">    -68.05604979 </i>
    <i name="e_wo_entrp">    -68.05604979 </i>
    <i name="e_0_energy">    -68.05604979 </i>
   </energy>
  </scstep>
  <scstep>
   <time name="total">   10.19   10.24</time>
   <energy>
    <i name="e_fr_energy">    -68.05605897 </i>
    <i name="e_wo_entrp">    -68.05605897 </i>
    <i name="e_0_energy">    -68.05605897 </i>
   </energy>
  </scstep>
  <scstep>
   <time name="total">   10.19   10.24</time>
   <energy>
    <i name="e_fr_energy">    -68.05606276 </i>
    <i name="e_wo_entrp">    -68.05606276 </i>
    <i name="e_0_energy">    -68.05606276 </i>
   </energy>
  </scstep>
  <scstep>
   <time name="total">   10.20   10.25</time>
   <energy>
    <i name="e_fr_energy">    -68.05606495 </i>
    <i name="e_wo_entrp">    -68.05606495 </i>
    <i name="e_0_energy">    -68.05606495 </i>
   </energy>
  </scstep>
  <scstep>
   <time name="total">   10.19   10.24</time>
   <energy>
    <i name="e_fr_energy">    -68.05606613 </i>
    <i name="e_wo_entrp">    -68.05606613 </i>
    <i name="e_0_energy">    -68.05606613 </i>
   </energy>
  </scstep>
  <scstep>
   <time name="total">   10.17   10.22</time>
   <energy>
    <i name="e_fr_energy">    -68.05606688 </i>
    <i name="e_wo_entrp">    -68.05606688 </i>
    <i name="e_0_energy">    -68.05606688 </i>
   </energy>
  </scstep>
  <scstep>
   <time name="total">   10.16   10.22</time>
   <energy>
    <i name="e_fr_energy">    -68.05606741 </i>
    <i name="e_wo_entrp">    -68.05606741 </i>
    <i name="e_0_energy">    -68.05606741 </i>
   </energy>
  </scstep>
  <scstep>
   <time name="total">   10.17   10.23</time>
   <energy>
    <i name="e_fr_energy">    -68.05606781 </i>
    <i name="e_wo_entrp">    -68.05606781 </i>
    <i name="e_0_energy">    -68.05606781 </i>
   </energy>
  </scstep>
  <scstep>
   <time name="total">   10.18   10.23</time>
   <energy>
    <i name="e_fr_energy">    -68.05606815 </i>
    <i name="e_wo_entrp">    -68.05606815 </i>
    <i name="e_0_energy">    -68.05606815 </i>
   </energy>
  </scstep>
  <scstep>
   <time name="total">   10.19   10.25</time>
   <energy>
    <i name="e_fr_energy">    -68.05606843 </i>
    <i name="e_wo_entrp">    -68.05606843 </i>
    <i name="e_0_energy">    -68.05606843 </i>
   </energy>
  </scstep>
  <scstep>
   <time name="total">   10.27   10.33</time>
   <energy>
    <i name="e_fr_energy">    -68.05606865 </i>
    <i name="e_wo_entrp">    -68.05606865 </i>
    <i name="e_0_energy">    -68.05606865 </i>
   </energy>
  </scstep>
  <scstep>
   <time name="total">   10.21   10.26</time>
   <energy>
    <i name="e_fr_energy">    -68.05606884 </i>
    <i name="e_wo_entrp">    -68.05606884 </i>
    <i name="e_0_energy">    -68.05606884 </i>
   </energy>
  </scstep>
  <scstep>
   <time name="total">   10.23   10.30</time>
   <energy>
    <i name="e_fr_energy">    -68.05606899 </i>
    <i name="e_wo_entrp">    -68.05606899 </i>
    <i name="e_0_energy">    -68.05606899 </i>
   </energy>
  </scstep>
  <scstep>
   <time name="total">   10.18   10.23</time>
   <energy>
    <i name="e_fr_energy">    -68.05606913 </i>
    <i name="e_wo_entrp">    -68.05606913 </i>
    <i name="e_0_energy">    -68.05606913 </i>
   </energy>
  </scstep>
  <scstep>
   <time name="total">   10.19   10.23</time>
   <energy>
    <i name="e_fr_energy">    -68.05606925 </i>
    <i name="e_wo_entrp">    -68.05606925 </i>
    <i name="e_0_energy">    -68.05606925 </i>
   </energy>
  </scstep>
  <scstep>
   <time name="total">   10.19   10.24</time>
   <energy>
    <i name="e_fr_energy">    -68.05606935 </i>
    <i name="e_wo_entrp">    -68.05606935 </i>
    <i name="e_0_energy">    -68.05606935 </i>
   </energy>
  </scstep>
  <scstep>
   <time name="total">   20.15   20.24</time>
   <energy>
    <i name="alphaZ">    211.09225997 </i>
    <i name="ewald">  -2610.95226277 </i>
    <i name="hartreedc">  -1067.25316261 </i>
    <i name="XCdc">     60.74478124 </i>
    <i name="pawpsdc">   4198.36038207 </i>
    <i name="pawaedc">  -4100.24941367 </i>
    <i name="eentropy">      0.00000000 </i>
    <i name="bandstr">   -546.68020331 </i>
    <i name="atom">   3601.51511230 </i>
    <i name="e_fr_energy">    -68.05606944 </i>
    <i name="e_wo_entrp">    -68.05606944 </i>
    <i name="e_0_energy">    -68.05606944 </i>
   </energy>
  </scstep>
  <structure>
   <crystal>
    <varray name="basis" >
     <v>      -2.37030214       2.37030214       5.48686449 </v>
     <v>       2.37030214      -2.37030214       5.48686449 </v>
     <v>       2.37030214       2.37030214      -5.48686449 </v>
    </varray>
    <i name="volume">    123.30811077 </i>
    <varray name="rec_basis" >
     <v>      -0.00000000       0.21094357       0.09112673 </v>
     <v>       0.21094357      -0.00000000       0.09112673 </v>
     <v>       0.21094357       0.21094357      -0.00000000 </v>
    </varray>
   </crystal>
   <varray name="positions" >
    <v>       0.25000000       0.75000000       0.50000000 </v>
    <v>       0.50000000       0.50000000       0.00000000 </v>
    <v>       1.00000000       1.00000000       0.00000000 </v>
    <v>       0.75000000       0.25000000       0.50000000 </v>
    <v>       0.78072516       0.78072516       0.00000000 </v>
    <v>       0.53072516       0.03072516       0.50000000 </v>
    <v>       0.21927484       0.21927484       0.00000000 </v>
    <v>       0.96927484       0.46927484       0.50000000 </v>
   </varray>
  </structure>
  <varray name="forces" >
   <v>       0.00000000      -0.00000000       0.00000000 </v>
   <v>       0.00000000      -0.00000000       0.00000000 </v>
   <v>       0.00000000      -0.00000000       0.00000000 </v>
   <v>       0.00000000      -0.00000000       0.00000000 </v>
   <v>      -0.00000000      -0.00000000       0.20361413 </v>
   <v>      -0.00000000      -0.00000000       0.20361413 </v>
   <v>       0.00000000       0.00000000      -0.20361413 </v>
   <v>       0.00000000       0.00000000      -0.20361413 </v>
  </varray>
  <varray name="stress" >
   <v>     -76.83069714      -0.00000000      -0.00000000 </v>
   <v>      -0.00000000     -76.83069714      -0.00000000 </v>
   <v>      -0.00000000      -0.00000000     -70.89256048 </v>
  </varray>
  <energy>
   <i name="e_fr_energy">    -68.05606944 </i>
   <i name="e_wo_entrp">    -68.05606944 </i>
   <i name="e_0_energy">    -68.05606944 </i>
  </energy>
