       N       E                     dE             d eps       ncg     rms          rms(c)
DAV:   1     0.113690239663E+04    0.11369E+04   -0.69781E+04   920   0.115E+03
DAV:   2    -0.230863541290E+02   -0.11600E+04   -0.11229E+04  1178   0.236E+02
DAV:   3    -0.137606863214E+03   -0.11452E+03   -0.11329E+03  1064   0.822E+01
DAV:   4    -0.141518029432E+03   -0.39112E+01   -0.38804E+01  1256   0.156E+01
DAV:   5    -0.141633483571E+03   -0.11545E+00   -0.11516E+00  1240   0.279E+00    0.632E+01
DAV:   6    -0.140788358537E+03    0.84513E+00   -0.48656E-01  1088   0.169E+00    0.379E+01
DAV:   7    -0.140452398534E+03    0.33596E+00   -0.89736E-01  1200   0.220E+00    0.776E-01
DAV:   8    -0.140453427645E+03   -0.10291E-02   -0.48119E-02  1072   0.624E-01    0.543E-01
DAV:   9    -0.140454141134E+03   -0.71349E-03   -0.45787E-03  1216   0.167E-01    0.287E-01
DAV:  10    -0.140454914491E+03   -0.77336E-03   -0.68285E-04  1088   0.735E-02    0.721E-02
DAV:  11    -0.140455104564E+03   -0.19007E-03   -0.22093E-04  1232   0.348E-02    0.362E-02
DAV:  12    -0.140455150984E+03   -0.46420E-04   -0.29252E-05  1112   0.148E-02    0.189E-02
DAV:  13    -0.140455185583E+03   -0.34599E-04   -0.26554E-05  1072   0.134E-02    0.127E-02
DAV:  14    -0.140455190669E+03   -0.50855E-05   -0.47024E-06  1184   0.512E-03    0.750E-03
DAV:  15    -0.140455191025E+03   -0.35614E-06   -0.90135E-07  1080   0.301E-03    0.304E-03
DAV:  16    -0.140455191420E+03   -0.39551E-06   -0.56797E-07  1072   0.194E-03    0.189E-03
DAV:  17    -0.140455191378E+03    0.42574E-07   -0.54486E-08   688   0.682E-04
   1 F= -.14045519E+03 E0= -.14045519E+03  d E =-.140455E+03
       N       E                     dE             d eps       ncg     rms          rms(c)
DAV:   1    -0.140454298961E+03    0.89246E-03   -0.56803E-01   944   0.179E+00    0.950E-01
DAV:   2    -0.140458381244E+03   -0.40823E-02   -0.51614E-02  1128   0.552E-01    0.430E-01
DAV:   3    -0.140458086521E+03    0.29472E-03   -0.11444E-03  1080   0.101E-01    0.276E-01
DAV:   4    -0.140458048769E+03    0.37752E-04   -0.61116E-04  1040   0.598E-02    0.496E-02
DAV:   5    -0.140458021132E+03    0.27638E-04   -0.16194E-04  1064   0.342E-02    0.722E-02
DAV:   6    -0.140458022395E+03   -0.12636E-05   -0.15984E-05  1144   0.956E-03    0.496E-02
DAV:   7    -0.140458022698E+03   -0.30283E-06   -0.17878E-06  1024   0.357E-03    0.343E-02
DAV:   8    -0.140458021901E+03    0.79711E-06   -0.69233E-07  1024   0.224E-03    0.202E-02
DAV:   9    -0.140458021504E+03    0.39753E-06   -0.14221E-07   648   0.105E-03    0.162E-02
DAV:  10    -0.140458021239E+03    0.26453E-06   -0.20968E-07   592   0.110E-03    0.120E-02
DAV:  11    -0.140458021250E+03   -0.11464E-07   -0.34209E-08   592   0.619E-04
   2 F= -.14045802E+03 E0= -.14045802E+03  d E =-.282987E-02
       N       E                     dE             d eps       ncg     rms          rms(c)
DAV:   1    -0.140458400593E+03   -0.37935E-03   -0.56951E-02   944   0.565E-01    0.302E-01
DAV:   2    -0.140458816450E+03   -0.41586E-03   -0.51080E-03  1120   0.174E-01    0.127E-01
DAV:   3    -0.140458788084E+03    0.28366E-04   -0.11365E-04  1088   0.319E-02    0.825E-02
DAV:   4    -0.140458787143E+03    0.94098E-06   -0.62547E-05  1040   0.191E-02    0.157E-02
DAV:   5    -0.140458784932E+03    0.22112E-05   -0.17229E-05  1064   0.111E-02    0.236E-02
DAV:   6    -0.140458785308E+03   -0.37578E-06   -0.16937E-06  1112   0.312E-03    0.160E-02
DAV:   7    -0.140458785661E+03   -0.35264E-06   -0.15496E-07   672   0.116E-03    0.107E-02
DAV:   8    -0.140458786002E+03   -0.34082E-06   -0.77820E-08   592   0.732E-04    0.611E-03
DAV:   9    -0.140458786044E+03   -0.42343E-07   -0.20667E-08   592   0.470E-04
   3 F= -.14045879E+03 E0= -.14045879E+03  d E =-.359467E-02
       N       E                     dE             d eps       ncg     rms          rms(c)
DAV:   1    -0.140471874967E+03   -0.13089E-01   -0.44078E-01   935   0.150E+00    0.623E-01
DAV:   2    -0.140465401726E+03    0.64732E-02   -0.26276E-02   976   0.416E-01    0.288E-01
DAV:   3    -0.140463602412E+03    0.17993E-02   -0.26753E-03  1072   0.111E-01    0.177E-01
DAV:   4    -0.140463147202E+03    0.45521E-03   -0.11498E-03  1000   0.717E-02    0.669E-02
DAV:   5    -0.140463156446E+03   -0.92444E-05   -0.61172E-05  1200   0.202E-02    0.291E-02
DAV:   6    -0.140463165954E+03   -0.95073E-05   -0.19957E-05  1064   0.103E-02    0.107E-02
DAV:   7    -0.140463169375E+03   -0.34215E-05   -0.11550E-06  1104   0.312E-03    0.389E-03
DAV:   8    -0.140463170035E+03   -0.65989E-06   -0.37867E-07   824   0.156E-03    0.184E-03
DAV:   9    -0.140463169980E+03    0.55162E-07   -0.11422E-07   640   0.908E-04
   4 F= -.14046317E+03 E0= -.14046317E+03  d E =-.438394E-02
       N       E                     dE             d eps       ncg     rms          rms(c)
DAV:   1    -0.140548595760E+03   -0.85426E-01   -0.39901E+00   920   0.453E+00    0.188E+00
DAV:   2    -0.140490225878E+03    0.58370E-01   -0.23960E-01  1000   0.125E+00    0.864E-01
DAV:   3    -0.140473889374E+03    0.16337E-01   -0.24830E-02  1080   0.339E-01    0.517E-01
DAV:   4    -0.140469796687E+03    0.40927E-02   -0.10111E-02  1016   0.214E-01    0.200E-01
DAV:   5    -0.140469769174E+03    0.27513E-04   -0.52601E-04  1200   0.596E-02    0.878E-02
DAV:   6    -0.140469786354E+03   -0.17180E-04   -0.19298E-04  1048   0.318E-02    0.308E-02
DAV:   7    -0.140469797896E+03   -0.11543E-04   -0.10582E-05  1128   0.932E-03    0.114E-02
DAV:   8    -0.140469800210E+03   -0.23137E-05   -0.34184E-06  1080   0.451E-03    0.644E-03
DAV:   9    -0.140469800173E+03    0.36801E-07   -0.11698E-06  1072   0.265E-03    0.204E-03
DAV:  10    -0.140469800424E+03   -0.25086E-06   -0.12789E-07   672   0.940E-04    0.108E-03
DAV:  11    -0.140469800294E+03    0.12969E-06   -0.14662E-08   592   0.342E-04    0.607E-04
DAV:  12    -0.140469800436E+03   -0.14217E-06   -0.15371E-08   592   0.341E-04    0.170E-04
DAV:  13    -0.140469800426E+03    0.10917E-07   -0.53831E-09   592   0.164E-04
   5 F= -.14046980E+03 E0= -.14046980E+03  d E =-.110144E-01
       N       E                     dE             d eps       ncg     rms          rms(c)
DAV:   1    -0.140477250100E+03   -0.74497E-02   -0.35843E-01   926   0.135E+00    0.636E-01
DAV:   2    -0.140474822666E+03    0.24274E-02   -0.22805E-02  1040   0.393E-01    0.242E-01
DAV:   3    -0.140473929458E+03    0.89321E-03   -0.12545E-03  1098   0.850E-02    0.167E-01
DAV:   4    -0.140473581487E+03    0.34797E-03   -0.10182E-03  1008   0.685E-02    0.635E-02
DAV:   5    -0.140473595804E+03   -0.14317E-04   -0.66643E-05  1082   0.232E-02    0.260E-02
DAV:   6    -0.140473601699E+03   -0.58949E-05   -0.17163E-05  1128   0.929E-03    0.179E-02
DAV:   7    -0.140473602483E+03   -0.78377E-06   -0.16975E-06  1072   0.351E-03    0.652E-03
DAV:   8    -0.140473603358E+03   -0.87530E-06   -0.61110E-07  1048   0.192E-03    0.402E-03
DAV:   9    -0.140473603429E+03   -0.70955E-07   -0.80399E-08   616   0.742E-04
   6 F= -.14047360E+03 E0= -.14047360E+03  d E =-.380300E-02
       N       E                     dE             d eps       ncg     rms          rms(c)
DAV:   1    -0.140514687190E+03   -0.41084E-01   -0.32352E+00   920   0.405E+00    0.186E+00
DAV:   2    -0.140492882086E+03    0.21805E-01   -0.20656E-01  1021   0.118E+00    0.721E-01
DAV:   3    -0.140484829983E+03    0.80521E-02   -0.11450E-02  1104   0.257E-01    0.488E-01
DAV:   4    -0.140481668650E+03    0.31613E-02   -0.90185E-03  1008   0.204E-01    0.187E-01
DAV:   5    -0.140481696958E+03   -0.28308E-04   -0.60604E-04  1088   0.700E-02    0.786E-02
DAV:   6    -0.140481712198E+03   -0.15240E-04   -0.14797E-04  1120   0.275E-02    0.522E-02
DAV:   7    -0.140481714516E+03   -0.23183E-05   -0.15074E-05  1096   0.104E-02    0.203E-02
DAV:   8    -0.140481717263E+03   -0.27465E-05   -0.53659E-06  1048   0.568E-03    0.121E-02
DAV:   9    -0.140481717541E+03   -0.27818E-06   -0.97009E-07  1088   0.232E-03    0.280E-03
DAV:  10    -0.140481717430E+03    0.11077E-06   -0.91930E-08   664   0.807E-04    0.126E-03
DAV:  11    -0.140481717294E+03    0.13682E-06   -0.24608E-08   616   0.403E-04    0.918E-04
DAV:  12    -0.140481717368E+03   -0.74022E-07   -0.11152E-08   592   0.296E-04
   7 F= -.14048172E+03 E0= -.14048172E+03  d E =-.119169E-01
       N       E                     dE             d eps       ncg     rms          rms(c)
DAV:   1    -0.140615623765E+03   -0.13391E+00   -0.13004E+01   920   0.813E+00    0.360E+00
DAV:   2    -0.140527514990E+03    0.88109E-01   -0.83479E-01  1037   0.237E+00    0.143E+00
DAV:   3    -0.140495099331E+03    0.32416E-01   -0.46819E-02  1104   0.519E-01    0.940E-01
DAV:   4    -0.140482690806E+03    0.12409E-01   -0.34989E-02  1008   0.404E-01    0.366E-01
DAV:   5    -0.140482682480E+03    0.83260E-05   -0.24317E-03  1088   0.140E-01    0.156E-01
DAV:   6    -0.140482704702E+03   -0.22223E-04   -0.55692E-04  1104   0.539E-02    0.981E-02
DAV:   7    -0.140482709990E+03   -0.52877E-05   -0.58218E-05  1112   0.202E-02    0.404E-02
DAV:   8    -0.140482715468E+03   -0.54784E-05   -0.20277E-05  1040   0.111E-02    0.238E-02
DAV:   9    -0.140482716080E+03   -0.61150E-06   -0.41025E-06  1120   0.472E-03    0.448E-03
DAV:  10    -0.140482715804E+03    0.27571E-06   -0.53210E-07  1016   0.177E-03    0.361E-03
DAV:  11    -0.140482715600E+03    0.20382E-06   -0.57495E-08   648   0.669E-04    0.214E-03
DAV:  12    -0.140482715669E+03   -0.69121E-07   -0.39213E-08   600   0.528E-04
   8 F= -.14048272E+03 E0= -.14048272E+03  d E =-.129152E-01
       N       E                     dE             d eps       ncg     rms          rms(c)
DAV:   1    -0.140510866906E+03   -0.28151E-01   -0.25495E+00   920   0.360E+00    0.174E+00
DAV:   2    -0.140493963963E+03    0.16903E-01   -0.16097E-01  1045   0.105E+00    0.665E-01
DAV:   3    -0.140487615357E+03    0.63486E-02   -0.86325E-03  1104   0.224E-01    0.472E-01
DAV:   4    -0.140484892915E+03    0.27224E-02   -0.74746E-03  1008   0.185E-01    0.177E-01
DAV:   5    -0.140484833984E+03    0.58931E-04   -0.46059E-04  1088   0.605E-02    0.654E-02
DAV:   6    -0.140484812547E+03    0.21437E-04   -0.12694E-04  1136   0.251E-02    0.468E-02
DAV:   7    -0.140484810263E+03    0.22842E-05   -0.12109E-05  1080   0.922E-03    0.153E-02
DAV:   8    -0.140484808200E+03    0.20626E-05   -0.38221E-06  1048   0.485E-03    0.107E-02
DAV:   9    -0.140484808161E+03    0.38569E-07   -0.60799E-07  1064   0.187E-03
   9 F= -.14048481E+03 E0= -.14048481E+03  d E =-.150077E-01
       N       E                     dE             d eps       ncg     rms          rms(c)
DAV:   1    -0.140489190279E+03   -0.43821E-02   -0.23565E-01   920   0.108E+00    0.464E-01
DAV:   2    -0.140488022840E+03    0.11674E-02   -0.14705E-02  1000   0.313E-01    0.196E-01
DAV:   3    -0.140487538500E+03    0.48434E-03   -0.65006E-04  1106   0.629E-02    0.137E-01
DAV:   4    -0.140487325850E+03    0.21265E-03   -0.64059E-04  1008   0.538E-02    0.525E-02
DAV:   5    -0.140487337917E+03   -0.12067E-04   -0.41839E-05  1080   0.180E-02    0.179E-02
DAV:   6    -0.140487342069E+03   -0.41512E-05   -0.97824E-06  1152   0.682E-03    0.156E-02
DAV:   7    -0.140487342621E+03   -0.55290E-06   -0.82750E-07  1080   0.225E-03    0.613E-03
DAV:   8    -0.140487343003E+03   -0.38136E-06   -0.33221E-07   776   0.135E-03    0.314E-03
DAV:   9    -0.140487343007E+03   -0.36721E-08   -0.58292E-08   592   0.653E-04
  10 F= -.14048734E+03 E0= -.14048734E+03  d E =-.253485E-02
       N       E                     dE             d eps       ncg     rms          rms(c)
DAV:   1    -0.140510509065E+03   -0.23166E-01   -0.21249E+00   920   0.326E+00    0.137E+00
DAV:   2    -0.140500062579E+03    0.10446E-01   -0.13291E-01  1000   0.940E-01    0.582E-01
DAV:   3    -0.140495706314E+03    0.43563E-02   -0.59051E-03  1104   0.190E-01    0.402E-01
DAV:   4    -0.140493762535E+03    0.19438E-02   -0.56732E-03  1008   0.160E-01    0.155E-01
DAV:   5    -0.140493793946E+03   -0.31411E-04   -0.38041E-04  1080   0.541E-02    0.548E-02
DAV:   6    -0.140493803886E+03   -0.99397E-05   -0.86148E-05  1168   0.202E-02    0.461E-02
DAV:   7    -0.140493805564E+03   -0.16786E-05   -0.74355E-06  1104   0.671E-03    0.177E-02
DAV:   8    -0.140493806627E+03   -0.10626E-05   -0.32184E-06  1040   0.403E-03    0.988E-03
DAV:   9    -0.140493806703E+03   -0.76504E-07   -0.35711E-07   816   0.155E-03
  11 F= -.14049381E+03 E0= -.14049381E+03  d E =-.899854E-02
       N       E                     dE             d eps       ncg     rms          rms(c)
DAV:   1    -0.140568704868E+03   -0.74898E-01   -0.85278E+00   920   0.653E+00    0.267E+00
DAV:   2    -0.140526559336E+03    0.42146E-01   -0.53572E-01  1000   0.188E+00    0.115E+00
DAV:   3    -0.140509084909E+03    0.17474E-01   -0.24039E-02  1096   0.383E-01    0.780E-01
DAV:   4    -0.140501390979E+03    0.76939E-02   -0.22228E-02  1008   0.319E-01    0.304E-01
DAV:   5    -0.140501429361E+03   -0.38382E-04   -0.15438E-03  1080   0.109E-01    0.113E-01
DAV:   6    -0.140501442665E+03   -0.13304E-04   -0.32968E-04  1120   0.399E-02    0.907E-02
DAV:   7    -0.140501446429E+03   -0.37638E-05   -0.30255E-05  1112   0.135E-02    0.350E-02
DAV:   8    -0.140501447674E+03   -0.12449E-05   -0.14068E-05  1040   0.836E-03    0.191E-02
DAV:   9    -0.140501447900E+03   -0.22670E-06   -0.17312E-06  1080   0.329E-03    0.105E-02
DAV:  10    -0.140501447896E+03    0.38422E-08   -0.11398E-07   648   0.918E-04
  12 F= -.14050145E+03 E0= -.14050145E+03  d E =-.166397E-01
       N       E                     dE             d eps       ncg     rms          rms(c)
DAV:   1    -0.140765733013E+03   -0.26429E+00   -0.34329E+01   920   0.131E+01    0.512E+00
DAV:   2    -0.140594011804E+03    0.17172E+00   -0.21792E+00  1000   0.378E+00    0.226E+00
DAV:   3    -0.140523516450E+03    0.70495E-01   -0.99789E-02  1080   0.781E-01    0.148E+00
DAV:   4    -0.140493929756E+03    0.29587E-01   -0.83011E-02  1040   0.622E-01    0.592E-01
DAV:   5    -0.140493759412E+03    0.17034E-03   -0.62127E-03  1088   0.217E-01    0.233E-01
DAV:   6    -0.140493776350E+03   -0.16939E-04   -0.12087E-03  1128   0.769E-02    0.172E-01
DAV:   7    -0.140493787679E+03   -0.11329E-04   -0.11828E-04  1104   0.269E-02    0.616E-02
DAV:   8    -0.140493786415E+03    0.12639E-05   -0.56595E-05  1048   0.167E-02    0.343E-02
DAV:   9    -0.140493787061E+03   -0.64597E-06   -0.69048E-06  1080   0.666E-03    0.173E-02
DAV:  10    -0.140493786945E+03    0.11673E-06   -0.56079E-07   928   0.176E-03    0.454E-03
DAV:  11    -0.140493786723E+03    0.22156E-06   -0.10466E-07   680   0.895E-04    0.302E-03
DAV:  12    -0.140493786699E+03    0.23747E-07   -0.61556E-08   624   0.665E-04
  13 F= -.14049379E+03 E0= -.14049379E+03  d E =-.897854E-02
       N       E                     dE             d eps       ncg     rms          rms(c)
DAV:   1    -0.140648998464E+03   -0.15521E+00   -0.18604E+01   920   0.967E+00    0.452E+00
DAV:   2    -0.140560694654E+03    0.88304E-01   -0.11550E+00  1000   0.280E+00    0.188E+00
DAV:   3    -0.140522088844E+03    0.38606E-01   -0.49097E-02  1120   0.551E-01    0.139E+00
DAV:   4    -0.140502799521E+03    0.19289E-01   -0.54251E-02  1008   0.492E-01    0.513E-01
DAV:   5    -0.140502601596E+03    0.19792E-03   -0.32474E-03  1104   0.157E-01    0.147E-01
DAV:   6    -0.140502517150E+03    0.84446E-04   -0.84300E-04  1160   0.635E-02    0.143E-01
DAV:   7    -0.140502509317E+03    0.78336E-05   -0.71289E-05  1072   0.212E-02    0.510E-02
DAV:   8    -0.140502505387E+03    0.39302E-05   -0.23614E-05  1104   0.111E-02    0.299E-02
DAV:   9    -0.140502505442E+03   -0.55546E-07   -0.29843E-06  1104   0.429E-03    0.142E-02
DAV:  10    -0.140502505423E+03    0.19278E-07   -0.32459E-07   840   0.140E-03
  14 F= -.14050251E+03 E0= -.14050251E+03  d E =-.176973E-01
       N       E                     dE             d eps       ncg     rms          rms(c)
DAV:   1    -0.140504035955E+03   -0.15305E-02   -0.65256E-02   966   0.618E-01    0.415E-01
DAV:   2    -0.140504471161E+03   -0.43521E-03   -0.58337E-03  1128   0.201E-01    0.706E-02
DAV:   3    -0.140504401793E+03    0.69368E-04   -0.21626E-04  1192   0.429E-02    0.396E-02
DAV:   4    -0.140504378223E+03    0.23569E-04   -0.90449E-05  1072   0.238E-02    0.169E-02
DAV:   5    -0.140504376481E+03    0.17423E-05   -0.94751E-06  1160   0.848E-03    0.206E-02
DAV:   6    -0.140504375792E+03    0.68951E-06   -0.21711E-06  1088   0.373E-03    0.818E-03
DAV:   7    -0.140504374927E+03    0.86457E-06   -0.17290E-06  1016   0.347E-03    0.535E-03
DAV:   8    -0.140504374736E+03    0.19143E-06   -0.29413E-07   776   0.143E-03    0.145E-03
DAV:   9    -0.140504374717E+03    0.18214E-07   -0.31995E-08   608   0.506E-04
  15 F= -.14050437E+03 E0= -.14050437E+03  d E =-.186929E-02
       N       E                     dE             d eps       ncg     rms          rms(c)
DAV:   1    -0.140504646395E+03   -0.27166E-03   -0.18567E-01   966   0.104E+00    0.703E-01
DAV:   2    -0.140505885192E+03   -0.12388E-02   -0.16644E-02  1128   0.340E-01    0.120E-01
DAV:   3    -0.140505687749E+03    0.19744E-03   -0.61582E-04  1192   0.724E-02    0.668E-02
DAV:   4    -0.140505621857E+03    0.65893E-04   -0.25830E-04  1072   0.402E-02    0.279E-02
DAV:   5    -0.140505618230E+03    0.36267E-05   -0.27180E-05  1160   0.144E-02    0.344E-02
DAV:   6    -0.140505617338E+03    0.89172E-06   -0.62678E-06  1080   0.633E-03    0.137E-02
DAV:   7    -0.140505615482E+03    0.18560E-05   -0.48774E-06  1048   0.584E-03    0.910E-03
DAV:   8    -0.140505615216E+03    0.26665E-06   -0.97615E-07  1072   0.240E-03    0.243E-03
DAV:   9    -0.140505615190E+03    0.25155E-07   -0.33291E-08   616   0.587E-04
  16 F= -.14050562E+03 E0= -.14050562E+03  d E =-.310977E-02
       N       E                     dE             d eps       ncg     rms          rms(c)
DAV:   1    -0.140506243045E+03   -0.62783E-03   -0.37549E-02   948   0.466E-01    0.215E-01
DAV:   2    -0.140506410686E+03   -0.16764E-03   -0.31281E-03  1200   0.137E-01    0.660E-02
DAV:   3    -0.140506381272E+03    0.29414E-04   -0.80974E-05  1144   0.258E-02    0.457E-02
DAV:   4    -0.140506367832E+03    0.13440E-04   -0.53952E-05  1072   0.172E-02    0.127E-02
DAV:   5    -0.140506365594E+03    0.22381E-05   -0.53182E-06  1072   0.727E-03    0.911E-03
DAV:   6    -0.140506364386E+03    0.12085E-05   -0.11959E-06  1144   0.255E-03    0.425E-03
DAV:   7    -0.140506364067E+03    0.31862E-06   -0.29361E-07   736   0.139E-03    0.276E-03
DAV:   8    -0.140506363679E+03    0.38756E-06   -0.64468E-08   600   0.674E-04    0.749E-04
DAV:   9    -0.140506363755E+03   -0.75584E-07   -0.99726E-09   592   0.332E-04
  17 F= -.14050636E+03 E0= -.14050636E+03  d E =-.748565E-03
       N       E                     dE             d eps       ncg     rms          rms(c)
DAV:   1    -0.140506554569E+03   -0.19089E-03   -0.77072E-02   948   0.668E-01    0.306E-01
DAV:   2    -0.140506896875E+03   -0.34231E-03   -0.64183E-03  1200   0.196E-01    0.947E-02
DAV:   3    -0.140506836479E+03    0.60397E-04   -0.16588E-04  1144   0.369E-02    0.655E-02
DAV:   4    -0.140506810119E+03    0.26360E-04   -0.11153E-04  1072   0.247E-02    0.182E-02
DAV:   5    -0.140506806842E+03    0.32770E-05   -0.11078E-05  1072   0.105E-02    0.130E-02
DAV:   6    -0.140506805194E+03    0.16481E-05   -0.24275E-06  1144   0.364E-03    0.606E-03
DAV:   7    -0.140506804698E+03    0.49537E-06   -0.61191E-07  1048   0.194E-03    0.412E-03
DAV:   8    -0.140506804207E+03    0.49117E-06   -0.74335E-08   640   0.739E-04    0.117E-03
DAV:   9    -0.140506804221E+03   -0.13480E-07   -0.14237E-08   592   0.372E-04
  18 F= -.14050680E+03 E0= -.14050680E+03  d E =-.118903E-02
       N       E                     dE             d eps       ncg     rms          rms(c)
DAV:   1    -0.140507255201E+03   -0.45099E-03   -0.50172E-02   929   0.548E-01    0.223E-01
DAV:   2    -0.140507442732E+03   -0.18753E-03   -0.38513E-03  1200   0.154E-01    0.745E-02
DAV:   3    -0.140507401100E+03    0.41633E-04   -0.90349E-05  1176   0.298E-02    0.569E-02
DAV:   4    -0.140507390188E+03    0.10912E-04   -0.75408E-05  1104   0.205E-02    0.154E-02
DAV:   5    -0.140507391607E+03   -0.14190E-05   -0.76599E-06  1096   0.942E-03    0.109E-02
DAV:   6    -0.140507392965E+03   -0.13578E-05   -0.20894E-06  1072   0.358E-03    0.439E-03
DAV:   7    -0.140507393366E+03   -0.40126E-06   -0.12252E-07   680   0.118E-03    0.247E-03
DAV:   8    -0.140507393935E+03   -0.56942E-06   -0.78700E-08   616   0.749E-04    0.643E-04
DAV:   9    -0.140507393975E+03   -0.39624E-07   -0.15507E-08   592   0.439E-04
  19 F= -.14050739E+03 E0= -.14050739E+03  d E =-.589754E-03
       N       E                     dE             d eps       ncg     rms          rms(c)
DAV:   1    -0.140507449230E+03   -0.55295E-04   -0.28935E-02   937   0.416E-01    0.169E-01
DAV:   2    -0.140507556900E+03   -0.10767E-03   -0.22208E-03  1200   0.117E-01    0.566E-02
DAV:   3    -0.140507532922E+03    0.23978E-04   -0.52045E-05  1168   0.226E-02    0.433E-02
DAV:   4    -0.140507527067E+03    0.58549E-05   -0.43736E-05  1104   0.156E-02    0.118E-02
DAV:   5    -0.140507528255E+03   -0.11880E-05   -0.44836E-06  1096   0.721E-03    0.830E-03
DAV:   6    -0.140507529279E+03   -0.10244E-05   -0.12174E-06  1072   0.274E-03    0.334E-03
DAV:   7    -0.140507529583E+03   -0.30393E-06   -0.70556E-08   648   0.899E-04    0.190E-03
DAV:   8    -0.140507530020E+03   -0.43684E-06   -0.45356E-08   616   0.570E-04    0.500E-04
DAV:   9    -0.140507530051E+03   -0.31199E-07   -0.88709E-09   592   0.335E-04
  20 F= -.14050753E+03 E0= -.14050753E+03  d E =-.725831E-03
       N       E                     dE             d eps       ncg     rms          rms(c)
DAV:   1    -0.140507648893E+03   -0.11887E-03   -0.52324E-02   926   0.558E-01    0.233E-01
DAV:   2    -0.140508000629E+03   -0.35174E-03   -0.42928E-03  1200   0.162E-01    0.610E-02
DAV:   3    -0.140507972269E+03    0.28360E-04   -0.10820E-04  1200   0.332E-02    0.459E-02
DAV:   4    -0.140507966725E+03    0.55434E-05   -0.42640E-05  1144   0.158E-02    0.229E-02
DAV:   5    -0.140507965199E+03    0.15262E-05   -0.38621E-06  1224   0.572E-03    0.879E-03
DAV:   6    -0.140507965242E+03   -0.43152E-07   -0.10050E-06  1088   0.279E-03    0.405E-03
DAV:   7    -0.140507965094E+03    0.14874E-06   -0.32802E-07   800   0.181E-03    0.295E-03
DAV:   8    -0.140507965067E+03    0.26761E-07   -0.10561E-07   592   0.813E-04
  21 F= -.14050797E+03 E0= -.14050797E+03  d E =-.435016E-03
       N       E                     dE             d eps       ncg     rms          rms(c)
DAV:   1    -0.140507831529E+03    0.13356E-03   -0.41043E-02   926   0.494E-01    0.207E-01
DAV:   2    -0.140508107423E+03   -0.27589E-03   -0.33700E-03  1200   0.144E-01    0.538E-02
DAV:   3    -0.140508085197E+03    0.22226E-04   -0.84953E-05  1200   0.294E-02    0.404E-02
DAV:   4    -0.140508080859E+03    0.43375E-05   -0.33520E-05  1144   0.140E-02    0.201E-02
DAV:   5    -0.140508079657E+03    0.12024E-05   -0.30076E-06  1224   0.506E-03    0.781E-03
DAV:   6    -0.140508079679E+03   -0.21940E-07   -0.78675E-07  1072   0.247E-03
  22 F= -.14050808E+03 E0= -.14050808E+03  d E =-.549628E-03
       N       E                     dE             d eps       ncg     rms          rms(c)
DAV:   1    -0.140508436131E+03   -0.35647E-03   -0.24453E-02   926   0.371E-01    0.176E-01
DAV:   2    -0.140508378512E+03    0.57619E-04   -0.17470E-03  1184   0.108E-01    0.675E-02
DAV:   3    -0.140508341111E+03    0.37401E-04   -0.86315E-05  1128   0.246E-02    0.370E-02
DAV:   4    -0.140508325003E+03    0.16108E-04   -0.33521E-05  1056   0.140E-02    0.191E-02
DAV:   5    -0.140508325541E+03   -0.53811E-06   -0.78051E-06  1192   0.678E-03    0.852E-03
DAV:   6    -0.140508327133E+03   -0.15922E-05   -0.12113E-06  1080   0.280E-03    0.412E-03
DAV:   7    -0.140508328074E+03   -0.94043E-06   -0.25661E-07   672   0.134E-03    0.143E-03
DAV:   8    -0.140508328336E+03   -0.26193E-06   -0.44194E-08   592   0.615E-04    0.923E-04
DAV:   9    -0.140508328289E+03    0.46453E-07   -0.87783E-09   592   0.308E-04
  23 F= -.14050833E+03 E0= -.14050833E+03  d E =-.248610E-03
       N       E                     dE             d eps       ncg     rms          rms(c)
DAV:   1    -0.140509687549E+03   -0.13592E-02   -0.21978E-01   920   0.111E+00    0.528E-01
DAV:   2    -0.140509207427E+03    0.48012E-03   -0.15621E-02  1184   0.323E-01    0.201E-01
DAV:   3    -0.140508870671E+03    0.33676E-03   -0.77090E-04  1128   0.734E-02    0.111E-01
DAV:   4    -0.140508717455E+03    0.15322E-03   -0.30135E-04  1056   0.420E-02    0.568E-02
DAV:   5    -0.140508705565E+03    0.11889E-04   -0.69154E-05  1192   0.202E-02    0.251E-02
DAV:   6    -0.140508709883E+03   -0.43173E-05   -0.10678E-05  1120   0.833E-03    0.121E-02
DAV:   7    -0.140508712821E+03   -0.29385E-05   -0.24057E-06  1064   0.386E-03    0.517E-03
DAV:   8    -0.140508713516E+03   -0.69523E-06   -0.23783E-07   704   0.144E-03    0.270E-03
DAV:   9    -0.140508713473E+03    0.43529E-07   -0.63179E-08   608   0.701E-04
  24 F= -.14050871E+03 E0= -.14050871E+03  d E =-.633794E-03
       N       E                     dE             d eps       ncg     rms          rms(c)
DAV:   1    -0.140509066909E+03   -0.35339E-03   -0.14098E-02   929   0.277E-01    0.104E-01
DAV:   2    -0.140508967862E+03    0.99047E-04   -0.94789E-04  1088   0.791E-02    0.573E-02
DAV:   3    -0.140508941265E+03    0.26597E-04   -0.55592E-05  1176   0.185E-02    0.308E-02
DAV:   4    -0.140508928717E+03    0.12548E-04   -0.24427E-05  1016   0.116E-02    0.161E-02
DAV:   5    -0.140508929786E+03   -0.10689E-05   -0.59520E-06  1128   0.586E-03    0.763E-03
DAV:   6    -0.140508930956E+03   -0.11695E-05   -0.64179E-07  1072   0.206E-03    0.421E-03
DAV:   7    -0.140508932083E+03   -0.11276E-05   -0.10059E-07   608   0.930E-04    0.962E-04
DAV:   8    -0.140508932511E+03   -0.42791E-06   -0.35060E-08   592   0.499E-04    0.564E-04
DAV:   9    -0.140508932522E+03   -0.10717E-07   -0.74638E-09   592   0.285E-04
  25 F= -.14050893E+03 E0= -.14050893E+03  d E =-.219049E-03
       N       E                     dE             d eps       ncg     rms          rms(c)
DAV:   1    -0.140510669433E+03   -0.17369E-02   -0.12697E-01   920   0.831E-01    0.310E-01
DAV:   2    -0.140509815100E+03    0.85433E-03   -0.85522E-03  1088   0.237E-01    0.172E-01
DAV:   3    -0.140509575095E+03    0.24000E-03   -0.50027E-04  1176   0.556E-02    0.921E-02
DAV:   4    -0.140509452321E+03    0.12277E-03   -0.22099E-04  1016   0.350E-02    0.482E-02
DAV:   5    -0.140509445582E+03    0.67392E-05   -0.53260E-05  1128   0.176E-02    0.228E-02
DAV:   6    -0.140509448671E+03   -0.30891E-05   -0.58618E-06  1232   0.618E-03    0.126E-02
DAV:   7    -0.140509452210E+03   -0.35392E-05   -0.10537E-06  1080   0.275E-03    0.315E-03
DAV:   8    -0.140509453482E+03   -0.12717E-05   -0.15720E-07   640   0.114E-03    0.155E-03
DAV:   9    -0.140509453540E+03   -0.58602E-07   -0.41564E-08   592   0.611E-04
  26 F= -.14050945E+03 E0= -.14050945E+03  d E =-.740067E-03
       N       E                     dE             d eps       ncg     rms          rms(c)
DAV:   1    -0.140514769074E+03   -0.53156E-02   -0.50857E-01   920   0.166E+00    0.619E-01
DAV:   2    -0.140511375350E+03    0.33937E-02   -0.34276E-02  1080   0.475E-01    0.345E-01
DAV:   3    -0.140510418681E+03    0.95667E-03   -0.20194E-03  1184   0.111E-01    0.183E-01
DAV:   4    -0.140509914737E+03    0.50394E-03   -0.88896E-04  1016   0.704E-02    0.961E-02
DAV:   5    -0.140509872123E+03    0.42614E-04   -0.21553E-04  1152   0.354E-02    0.457E-02
DAV:   6    -0.140509876732E+03   -0.46092E-05   -0.22658E-05  1232   0.123E-02    0.258E-02
DAV:   7    -0.140509884437E+03   -0.77050E-05   -0.44590E-06  1192   0.562E-03    0.638E-03
DAV:   8    -0.140509887082E+03   -0.26452E-05   -0.65691E-07  1072   0.225E-03    0.342E-03
DAV:   9    -0.140509887224E+03   -0.14169E-06   -0.98632E-08   616   0.987E-04    0.238E-03
DAV:  10    -0.140509887333E+03   -0.10983E-06   -0.12539E-07   616   0.910E-04    0.657E-04
DAV:  11    -0.140509887380E+03   -0.47024E-07   -0.21930E-08   592   0.558E-04
  27 F= -.14050989E+03 E0= -.14050989E+03  d E =-.117391E-02
       N       E                     dE             d eps       ncg     rms          rms(c)
DAV:   1    -0.140510229155E+03   -0.34182E-03   -0.43637E-02   923   0.485E-01    0.218E-01
DAV:   2    -0.140510184946E+03    0.44210E-04   -0.30244E-03  1136   0.144E-01    0.913E-02
DAV:   3    -0.140510136955E+03    0.47990E-04   -0.16690E-04  1168   0.337E-02    0.441E-02
DAV:   4    -0.140510109629E+03    0.27326E-04   -0.47634E-05  1016   0.173E-02    0.235E-02
DAV:   5    -0.140510108554E+03    0.10758E-05   -0.16114E-05  1192   0.963E-03    0.111E-02
DAV:   6    -0.140510110063E+03   -0.15092E-05   -0.19056E-06  1224   0.355E-03    0.558E-03
DAV:   7    -0.140510111011E+03   -0.94831E-06   -0.52191E-07  1016   0.184E-03    0.179E-03
DAV:   8    -0.140510111358E+03   -0.34682E-06   -0.89463E-08   592   0.828E-04    0.907E-04
DAV:   9    -0.140510111396E+03   -0.38009E-07   -0.95714E-09   592   0.319E-04
  28 F= -.14051011E+03 E0= -.14051011E+03  d E =-.224015E-03
       N       E                     dE             d eps       ncg     rms          rms(c)
DAV:   1    -0.140510652207E+03   -0.54085E-03   -0.14656E-01   920   0.889E-01    0.398E-01
DAV:   2    -0.140510517732E+03    0.13447E-03   -0.10162E-02  1130   0.264E-01    0.167E-01
DAV:   3    -0.140510357276E+03    0.16046E-03   -0.56073E-04  1168   0.617E-02    0.807E-02
DAV:   4    -0.140510263552E+03    0.93725E-04   -0.15954E-04  1016   0.316E-02    0.431E-02
DAV:   5    -0.140510255335E+03    0.82166E-05   -0.54308E-05  1192   0.177E-02    0.204E-02
DAV:   6    -0.140510258027E+03   -0.26921E-05   -0.63834E-06  1224   0.651E-03    0.102E-02
DAV:   7    -0.140510259804E+03   -0.17769E-05   -0.17500E-06  1104   0.335E-03    0.327E-03
DAV:   8    -0.140510260479E+03   -0.67485E-06   -0.28624E-07   704   0.147E-03    0.188E-03
DAV:   9    -0.140510260536E+03   -0.57719E-07   -0.24596E-08   592   0.486E-04
  29 F= -.14051026E+03 E0= -.14051026E+03  d E =-.373156E-03
       N       E                     dE             d eps       ncg     rms          rms(c)
DAV:   1    -0.140510612157E+03   -0.35168E-03   -0.23393E-02   923   0.361E-01    0.182E-01
DAV:   2    -0.140510469068E+03    0.14309E-03   -0.15489E-03  1096   0.105E-01    0.787E-02
DAV:   3    -0.140510426886E+03    0.42182E-04   -0.12699E-04  1200   0.276E-02    0.440E-02
DAV:   4    -0.140510403440E+03    0.23446E-04   -0.39332E-05  1072   0.160E-02    0.215E-02
DAV:   5    -0.140510403387E+03    0.53658E-07   -0.13363E-05  1200   0.891E-03    0.975E-03
DAV:   6    -0.140510404354E+03   -0.96714E-06   -0.12391E-06  1104   0.297E-03    0.612E-03
DAV:   7    -0.140510405520E+03   -0.11660E-05   -0.25897E-07   688   0.153E-03    0.178E-03
DAV:   8    -0.140510406086E+03   -0.56621E-06   -0.17097E-07   616   0.101E-03    0.947E-04
DAV:   9    -0.140510406135E+03   -0.48907E-07   -0.37093E-08   592   0.620E-04
  30 F= -.14051041E+03 E0= -.14051041E+03  d E =-.145599E-03
       N       E                     dE             d eps       ncg     rms          rms(c)
DAV:   1    -0.140511608339E+03   -0.12023E-02   -0.12171E-01   920   0.824E-01    0.415E-01
DAV:   2    -0.140510886288E+03    0.72205E-03   -0.80665E-03  1096   0.241E-01    0.180E-01
DAV:   3    -0.140510667569E+03    0.21872E-03   -0.66003E-04  1200   0.631E-02    0.100E-01
DAV:   4    -0.140510540257E+03    0.12731E-03   -0.20421E-04  1072   0.366E-02    0.490E-02
DAV:   5    -0.140510531388E+03    0.88691E-05   -0.69778E-05  1200   0.204E-02    0.222E-02
DAV:   6    -0.140510533302E+03   -0.19138E-05   -0.64875E-06  1232   0.677E-03    0.140E-02
DAV:   7    -0.140510536065E+03   -0.27629E-05   -0.16468E-06  1224   0.336E-03    0.440E-03
DAV:   8    -0.140510537410E+03   -0.13453E-05   -0.29521E-07   688   0.151E-03    0.255E-03
DAV:   9    -0.140510537600E+03   -0.18967E-06   -0.58668E-08   616   0.689E-04    0.173E-03
DAV:  10    -0.140510537591E+03    0.86620E-08   -0.41444E-08   592   0.802E-04
  31 F= -.14051054E+03 E0= -.14051054E+03  d E =-.277055E-03
       N       E                     dE             d eps       ncg     rms          rms(c)
DAV:   1    -0.140510654592E+03   -0.11699E-03   -0.82795E-03   920   0.215E-01    0.875E-02
DAV:   2    -0.140510624474E+03    0.30118E-04   -0.61284E-04  1088   0.638E-02    0.442E-02
DAV:   3    -0.140510610316E+03    0.14158E-04   -0.28198E-05  1184   0.140E-02    0.260E-02
DAV:   4    -0.140510605351E+03    0.49650E-05   -0.13208E-05  1080   0.883E-03    0.115E-02
DAV:   5    -0.140510606642E+03   -0.12913E-05   -0.23927E-06  1112   0.406E-03    0.576E-03
DAV:   6    -0.140510607447E+03   -0.80443E-06   -0.50470E-07  1000   0.169E-03    0.305E-03
DAV:   7    -0.140510607960E+03   -0.51364E-06   -0.16671E-07   624   0.108E-03    0.103E-03
DAV:   8    -0.140510608436E+03   -0.47588E-06   -0.64656E-08   592   0.672E-04    0.849E-04
DAV:   9    -0.140510608404E+03    0.32084E-07   -0.10393E-08   592   0.327E-04
  32 F= -.14051061E+03 E0= -.14051061E+03  d E =-.708129E-04
       N       E                     dE             d eps       ncg     rms          rms(c)
DAV:   1    -0.140510687073E+03   -0.78637E-04   -0.95952E-03   920   0.231E-01    0.941E-02
DAV:   2    -0.140510652644E+03    0.34429E-04   -0.70909E-04  1088   0.686E-02    0.474E-02
DAV:   3    -0.140510636183E+03    0.16461E-04   -0.32420E-05  1184   0.150E-02    0.280E-02
DAV:   4    -0.140510630348E+03    0.58354E-05   -0.15486E-05  1088   0.954E-03    0.123E-02
DAV:   5    -0.140510631707E+03   -0.13587E-05   -0.27165E-06  1104   0.436E-03    0.620E-03
DAV:   6    -0.140510632571E+03   -0.86477E-06   -0.60157E-07  1072   0.182E-03    0.330E-03
DAV:   7    -0.140510633144E+03   -0.57276E-06   -0.19836E-07   640   0.117E-03    0.106E-03
DAV:   8    -0.140510633608E+03   -0.46424E-06   -0.65694E-08   592   0.682E-04    0.833E-04
DAV:   9    -0.140510633594E+03    0.14607E-07   -0.99194E-09   592   0.332E-04
  33 F= -.14051063E+03 E0= -.14051063E+03  d E =-.960025E-04
       N       E                     dE             d eps       ncg     rms          rms(c)
DAV:   1    -0.140510668947E+03   -0.35339E-04   -0.78389E-03   920   0.206E-01    0.738E-02
DAV:   2    -0.140510705981E+03   -0.37034E-04   -0.58867E-04  1136   0.618E-02    0.287E-02
DAV:   3    -0.140510702483E+03    0.34984E-05   -0.18029E-05  1136   0.123E-02    0.156E-02
DAV:   4    -0.140510701048E+03    0.14345E-05   -0.41244E-06  1112   0.525E-03    0.917E-03
DAV:   5    -0.140510701254E+03   -0.20537E-06   -0.13042E-06  1168   0.292E-03    0.376E-03
DAV:   6    -0.140510701545E+03   -0.29132E-06   -0.17498E-07   600   0.116E-03    0.169E-03
DAV:   7    -0.140510701598E+03   -0.53115E-07   -0.54096E-08   592   0.759E-04
  34 F= -.14051070E+03 E0= -.14051070E+03  d E =-.680042E-04
       N       E                     dE             d eps       ncg     rms          rms(c)
DAV:   1    -0.140510582737E+03    0.11881E-03   -0.43107E-02   920   0.483E-01    0.173E-01
DAV:   2    -0.140510793827E+03   -0.21109E-03   -0.32440E-03  1136   0.145E-01    0.673E-02
DAV:   3    -0.140510774962E+03    0.18865E-04   -0.99266E-05  1136   0.289E-02    0.367E-02
DAV:   4    -0.140510766636E+03    0.83263E-05   -0.22694E-05  1112   0.123E-02    0.216E-02
DAV:   5    -0.140510766126E+03    0.51031E-06   -0.71648E-06  1176   0.685E-03    0.881E-03
DAV:   6    -0.140510766895E+03   -0.76903E-06   -0.11506E-06  1080   0.272E-03    0.425E-03
DAV:   7    -0.140510766919E+03   -0.24096E-07   -0.32225E-07   792   0.164E-03
  35 F= -.14051077E+03 E0= -.14051077E+03  d E =-.133325E-03
       N       E                     dE             d eps       ncg     rms          rms(c)
DAV:   1    -0.140510824863E+03   -0.57968E-04   -0.65276E-03   923   0.189E-01    0.687E-02
DAV:   2    -0.140510837734E+03   -0.12871E-04   -0.46637E-04  1120   0.556E-02    0.308E-02
DAV:   3    -0.140510833028E+03    0.47053E-05   -0.17109E-05  1152   0.114E-02    0.183E-02
DAV:   4    -0.140510830674E+03    0.23539E-05   -0.38463E-06  1040   0.507E-03    0.113E-02
DAV:   5    -0.140510830863E+03   -0.18882E-06   -0.24200E-06  1168   0.362E-03    0.457E-03
DAV:   6    -0.140510831384E+03   -0.52106E-06   -0.20463E-07   688   0.129E-03    0.193E-03
DAV:   7    -0.140510831631E+03   -0.24631E-06   -0.50346E-08   592   0.656E-04    0.807E-04
DAV:   8    -0.140510831816E+03   -0.18552E-06   -0.21079E-08   592   0.449E-04    0.303E-04
DAV:   9    -0.140510831838E+03   -0.21977E-07   -0.74337E-09   592   0.253E-04
  36 F= -.14051083E+03 E0= -.14051083E+03  d E =-.649192E-04
       N       E                     dE             d eps       ncg     rms          rms(c)
DAV:   1    -0.140510933224E+03   -0.10141E-03   -0.58658E-02   920   0.566E-01    0.204E-01
DAV:   2    -0.140511058057E+03   -0.12483E-03   -0.41718E-03  1120   0.166E-01    0.928E-02
DAV:   3    -0.140511016153E+03    0.41904E-04   -0.15519E-04  1152   0.343E-02    0.549E-02
DAV:   4    -0.140510992607E+03    0.23546E-04   -0.34698E-05  1048   0.152E-02    0.337E-02
DAV:   5    -0.140510988129E+03    0.44786E-05   -0.21908E-05  1168   0.109E-02    0.137E-02
DAV:   6    -0.140510989570E+03   -0.14413E-05   -0.20919E-06  1112   0.383E-03    0.584E-03
DAV:   7    -0.140510990198E+03   -0.62753E-06   -0.23726E-07   672   0.145E-03    0.274E-03
DAV:   8    -0.140510990852E+03   -0.65416E-06   -0.18231E-07   640   0.116E-03    0.662E-04
DAV:   9    -0.140510990942E+03   -0.89893E-07   -0.46612E-08   592   0.708E-04
  37 F= -.14051099E+03 E0= -.14051099E+03  d E =-.224023E-03
       N       E                     dE             d eps       ncg     rms          rms(c)
DAV:   1    -0.140510915140E+03    0.75712E-04   -0.23469E-01   920   0.113E+00    0.407E-01
DAV:   2    -0.140511427829E+03   -0.51269E-03   -0.16697E-02  1112   0.333E-01    0.185E-01
DAV:   3    -0.140511260726E+03    0.16710E-03   -0.62095E-04  1152   0.686E-02    0.109E-01
DAV:   4    -0.140511164469E+03    0.96256E-04   -0.13906E-04  1032   0.305E-02    0.672E-02
DAV:   5    -0.140511140449E+03    0.24020E-04   -0.87585E-05  1176   0.218E-02    0.272E-02
DAV:   6    -0.140511142992E+03   -0.25433E-05   -0.83703E-06  1112   0.767E-03    0.116E-02
DAV:   7    -0.140511144247E+03   -0.12553E-05   -0.12352E-06  1184   0.288E-03    0.543E-03
DAV:   8    -0.140511145511E+03   -0.12636E-05   -0.32794E-07   776   0.162E-03    0.133E-03
DAV:   9    -0.140511145724E+03   -0.21243E-06   -0.84461E-08   616   0.876E-04    0.116E-03
DAV:  10    -0.140511145728E+03   -0.40068E-08   -0.14932E-08   592   0.417E-04
  38 F= -.14051115E+03 E0= -.14051115E+03  d E =-.378809E-03
       N       E                     dE             d eps       ncg     rms          rms(c)
DAV:   1    -0.140511325612E+03   -0.17989E-03   -0.46270E-02   920   0.507E-01    0.158E-01
DAV:   2    -0.140511368123E+03   -0.42511E-04   -0.33872E-03  1085   0.148E-01    0.842E-02
DAV:   3    -0.140511318187E+03    0.49935E-04   -0.92875E-05  1152   0.280E-02    0.555E-02
DAV:   4    -0.140511295151E+03    0.23036E-04   -0.56641E-05  1056   0.185E-02    0.257E-02
DAV:   5    -0.140511296326E+03   -0.11751E-05   -0.10602E-05  1184   0.816E-03    0.125E-02
DAV:   6    -0.140511297742E+03   -0.14155E-05   -0.19279E-06  1040   0.336E-03    0.631E-03
DAV:   7    -0.140511298736E+03   -0.99449E-06   -0.63218E-07   952   0.217E-03    0.200E-03
DAV:   8    -0.140511299452E+03   -0.71545E-06   -0.18209E-07   592   0.117E-03    0.184E-03
DAV:   9    -0.140511299438E+03    0.13976E-07   -0.27527E-08   592   0.544E-04
  39 F= -.14051130E+03 E0= -.14051130E+03  d E =-.153710E-03
       N       E                     dE             d eps       ncg     rms          rms(c)
DAV:   1    -0.140511392663E+03   -0.93211E-04   -0.60850E-02   920   0.582E-01    0.181E-01
DAV:   2    -0.140511449270E+03   -0.56607E-04   -0.44525E-03  1082   0.169E-01    0.966E-02
DAV:   3    -0.140511383590E+03    0.65680E-04   -0.12208E-04  1152   0.321E-02    0.637E-02
DAV:   4    -0.140511352927E+03    0.30664E-04   -0.74621E-05  1056   0.213E-02    0.295E-02
DAV:   5    -0.140511353960E+03   -0.10333E-05   -0.13926E-05  1184   0.936E-03    0.144E-02
DAV:   6    -0.140511355564E+03   -0.16040E-05   -0.25374E-06  1048   0.385E-03    0.726E-03
DAV:   7    -0.140511356699E+03   -0.11351E-05   -0.84959E-07  1040   0.251E-03    0.228E-03
DAV:   8    -0.140511357520E+03   -0.82089E-06   -0.24073E-07   656   0.133E-03    0.248E-03
DAV:   9    -0.140511357487E+03    0.32632E-07   -0.31808E-08   592   0.554E-04
  40 F= -.14051136E+03 E0= -.14051136E+03  d E =-.211760E-03
       N       E                     dE             d eps       ncg     rms          rms(c)
DAV:   1    -0.140511346765E+03    0.10755E-04   -0.27605E-02   920   0.389E-01    0.114E-01
DAV:   2    -0.140511475206E+03   -0.12844E-03   -0.20395E-03  1104   0.114E-01    0.520E-02
DAV:   3    -0.140511462530E+03    0.12677E-04   -0.49102E-05  1160   0.209E-02    0.311E-02
DAV:   4    -0.140511456597E+03    0.59322E-05   -0.13300E-05  1064   0.963E-03    0.188E-02
DAV:   5    -0.140511456347E+03    0.25072E-06   -0.50838E-06  1184   0.549E-03    0.907E-03
DAV:   6    -0.140511457038E+03   -0.69118E-06   -0.94902E-07  1072   0.240E-03    0.408E-03
DAV:   7    -0.140511457198E+03   -0.16061E-06   -0.19658E-07   656   0.144E-03    0.224E-03
DAV:   8    -0.140511457490E+03   -0.29146E-06   -0.18585E-07   616   0.110E-03    0.750E-04
DAV:   9    -0.140511457495E+03   -0.53269E-08   -0.33243E-08   592   0.621E-04
  41 F= -.14051146E+03 E0= -.14051146E+03  d E =-.100008E-03
       N       E                     dE             d eps       ncg     rms          rms(c)
DAV:   1    -0.140510723982E+03    0.73351E-03   -0.20910E-01   920   0.107E+00    0.310E-01
DAV:   2    -0.140511718727E+03   -0.99474E-03   -0.15473E-02  1101   0.314E-01    0.142E-01
DAV:   3    -0.140511623255E+03    0.95472E-04   -0.37053E-04  1160   0.575E-02    0.855E-02
DAV:   4    -0.140511576724E+03    0.46531E-04   -0.99883E-05  1056   0.264E-02    0.520E-02
DAV:   5    -0.140511568456E+03    0.82681E-05   -0.38707E-05  1184   0.151E-02    0.250E-02
DAV:   6    -0.140511570334E+03   -0.18783E-05   -0.74576E-06  1176   0.667E-03    0.112E-02
DAV:   7    -0.140511570447E+03   -0.11302E-06   -0.17568E-06  1096   0.398E-03    0.633E-03
DAV:   8    -0.140511571160E+03   -0.71353E-06   -0.10339E-06  1144   0.239E-03    0.254E-03
DAV:   9    -0.140511571242E+03   -0.81525E-07   -0.57990E-08   592   0.811E-04
  42 F= -.14051157E+03 E0= -.14051157E+03  d E =-.213754E-03
       N       E                     dE             d eps       ncg     rms          rms(c)
DAV:   1    -0.140511565825E+03    0.53355E-05   -0.42299E-02   923   0.482E-01    0.180E-01
DAV:   2    -0.140511746923E+03   -0.18110E-03   -0.30729E-03  1120   0.143E-01    0.695E-02
DAV:   3    -0.140511728178E+03    0.18746E-04   -0.10724E-04  1192   0.287E-02    0.406E-02
DAV:   4    -0.140511717630E+03    0.10548E-04   -0.14147E-05  1072   0.102E-02    0.267E-02
DAV:   5    -0.140511713993E+03    0.36373E-05   -0.14786E-05  1192   0.933E-03    0.102E-02
DAV:   6    -0.140511714841E+03   -0.84842E-06   -0.20360E-06  1072   0.375E-03    0.368E-03
DAV:   7    -0.140511714997E+03   -0.15583E-06   -0.12323E-07   680   0.111E-03    0.226E-03
DAV:   8    -0.140511715304E+03   -0.30679E-06   -0.15147E-07   648   0.113E-03    0.507E-04
DAV:   9    -0.140511715390E+03   -0.85849E-07   -0.51232E-08   592   0.692E-04
  43 F= -.14051172E+03 E0= -.14051172E+03  d E =-.144148E-03
       N       E                     dE             d eps       ncg     rms          rms(c)
DAV:   1    -0.140511338073E+03    0.37723E-03   -0.13556E-01   920   0.863E-01    0.321E-01
DAV:   2    -0.140511923843E+03   -0.58577E-03   -0.98507E-03  1120   0.256E-01    0.125E-01
DAV:   3    -0.140511864048E+03    0.59795E-04   -0.34316E-04  1192   0.514E-02    0.728E-02
DAV:   4    -0.140511829660E+03    0.34388E-04   -0.45288E-05  1072   0.182E-02    0.479E-02
DAV:   5    -0.140511815880E+03    0.13780E-04   -0.47629E-05  1192   0.167E-02    0.183E-02
DAV:   6    -0.140511817540E+03   -0.16598E-05   -0.65787E-06  1072   0.673E-03    0.660E-03
DAV:   7    -0.140511817794E+03   -0.25401E-06   -0.49967E-07   952   0.198E-03    0.411E-03
DAV:   8    -0.140511818244E+03   -0.45040E-06   -0.22820E-07   696   0.146E-03    0.109E-03
DAV:   9    -0.140511818507E+03   -0.26290E-06   -0.11936E-07   592   0.934E-04    0.885E-04
DAV:  10    -0.140511818527E+03   -0.19974E-07   -0.17150E-08   592   0.482E-04
  44 F= -.14051182E+03 E0= -.14051182E+03  d E =-.247285E-03
       N       E                     dE             d eps       ncg     rms          rms(c)
DAV:   1    -0.140511859588E+03   -0.41081E-04   -0.40175E-02   920   0.473E-01    0.151E-01
DAV:   2    -0.140511954811E+03   -0.95222E-04   -0.29709E-03  1080   0.139E-01    0.865E-02
DAV:   3    -0.140511928400E+03    0.26411E-04   -0.98551E-05  1200   0.276E-02    0.572E-02
DAV:   4    -0.140511910189E+03    0.18211E-04   -0.29324E-05  1000   0.139E-02    0.312E-02
DAV:   5    -0.140511909735E+03    0.45425E-06   -0.16129E-05  1184   0.919E-03    0.996E-03
DAV:   6    -0.140511910846E+03   -0.11107E-05   -0.95325E-07  1072   0.309E-03    0.507E-03
DAV:   7    -0.140511911631E+03   -0.78530E-06   -0.53526E-07  1056   0.184E-03    0.174E-03
DAV:   8    -0.140511911827E+03   -0.19597E-06   -0.97934E-08   592   0.819E-04    0.927E-04
DAV:   9    -0.140511911977E+03   -0.15026E-06   -0.20046E-08   584   0.416E-04    0.596E-04
DAV:  10    -0.140511911969E+03    0.77489E-08   -0.48421E-09   592   0.248E-04
  45 F= -.14051191E+03 E0= -.14051191E+03  d E =-.934424E-04
       N       E                     dE             d eps       ncg     rms          rms(c)
DAV:   1    -0.140511912164E+03   -0.18663E-06   -0.16612E-03   920   0.961E-02    0.307E-02
DAV:   2    -0.140511915568E+03   -0.34041E-05   -0.12278E-04  1088   0.282E-02    0.177E-02
DAV:   3    -0.140511914517E+03    0.10510E-05   -0.40972E-06  1200   0.561E-03    0.117E-02
DAV:   4    -0.140511913948E+03    0.56875E-06   -0.12019E-06  1008   0.282E-03    0.642E-03
DAV:   5    -0.140511914379E+03   -0.43077E-06   -0.66738E-07  1045   0.188E-03    0.206E-03
DAV:   6    -0.140511914625E+03   -0.24567E-06   -0.37029E-08   592   0.638E-04    0.991E-04
DAV:   7    -0.140511914805E+03   -0.18018E-06   -0.24323E-08   586   0.459E-04    0.300E-04
DAV:   8    -0.140511914832E+03   -0.27228E-07   -0.70825E-09   568   0.259E-04
  46 F= -.14051191E+03 E0= -.14051191E+03  d E =-.963050E-04
       N       E                     dE             d eps       ncg     rms          rms(c)
DAV:   1    -0.140511889944E+03    0.24861E-04   -0.25974E-02   920   0.378E-01    0.105E-01
DAV:   2    -0.140512029134E+03   -0.13919E-03   -0.19565E-03  1128   0.112E-01    0.567E-02
DAV:   3    -0.140512020281E+03    0.88530E-05   -0.52801E-05  1176   0.212E-02    0.311E-02
DAV:   4    -0.140512014659E+03    0.56221E-05   -0.11031E-05  1160   0.906E-03    0.184E-02
DAV:   5    -0.140512013020E+03    0.16389E-05   -0.40332E-06  1200   0.504E-03    0.107E-02
DAV:   6    -0.140512012771E+03    0.24949E-06   -0.80452E-07  1072   0.223E-03    0.557E-03
DAV:   7    -0.140512012625E+03    0.14577E-06   -0.11429E-07   624   0.127E-03    0.253E-03
DAV:   8    -0.140512012555E+03    0.69776E-07   -0.18519E-07   632   0.108E-03
  47 F= -.14051201E+03 E0= -.14051201E+03  d E =-.977233E-04
       N       E                     dE             d eps       ncg     rms          rms(c)
DAV:   1    -0.140511711080E+03    0.30155E-03   -0.78750E-02   920   0.658E-01    0.182E-01
DAV:   2    -0.140512132803E+03   -0.42172E-03   -0.59316E-03  1128   0.195E-01    0.985E-02
DAV:   3    -0.140512105887E+03    0.26916E-04   -0.15993E-04  1176   0.369E-02    0.542E-02
DAV:   4    -0.140512089005E+03    0.16882E-04   -0.33466E-05  1160   0.158E-02    0.320E-02
DAV:   5    -0.140512084450E+03    0.45556E-05   -0.12234E-05  1200   0.877E-03    0.186E-02
DAV:   6    -0.140512083928E+03    0.52182E-06   -0.24748E-06  1232   0.387E-03    0.964E-03
DAV:   7    -0.140512083627E+03    0.30122E-06   -0.45361E-07   904   0.226E-03    0.431E-03
DAV:   8    -0.140512083528E+03    0.98540E-07   -0.36431E-07   760   0.153E-03
  48 F= -.14051208E+03 E0= -.14051208E+03  d E =-.168696E-03
       N       E                     dE             d eps       ncg     rms          rms(c)
DAV:   1    -0.140512083427E+03    0.19993E-06   -0.45888E-02   920   0.508E-01    0.190E-01
DAV:   2    -0.140512236549E+03   -0.15312E-03   -0.32968E-03  1080   0.150E-01    0.854E-02
DAV:   3    -0.140512206934E+03    0.29615E-04   -0.13226E-04  1192   0.315E-02    0.542E-02
DAV:   4    -0.140512187274E+03    0.19659E-04   -0.23765E-05  1080   0.132E-02    0.310E-02
DAV:   5    -0.140512178972E+03    0.83023E-05   -0.17528E-05  1176   0.101E-02    0.111E-02
DAV:   6    -0.140512177891E+03    0.10806E-05   -0.18666E-06  1088   0.371E-03    0.505E-03
DAV:   7    -0.140512177481E+03    0.41042E-06   -0.23952E-07   688   0.147E-03    0.224E-03
DAV:   8    -0.140512177087E+03    0.39440E-06   -0.18099E-07   632   0.118E-03    0.803E-04
DAV:   9    -0.140512177035E+03    0.51352E-07   -0.53544E-08   592   0.723E-04
  49 F= -.14051218E+03 E0= -.14051218E+03  d E =-.935071E-04
       N       E                     dE             d eps       ncg     rms          rms(c)
DAV:   1    -0.140512178645E+03   -0.15583E-05   -0.35361E-03   926   0.141E-01    0.530E-02
DAV:   2    -0.140512190819E+03   -0.12174E-04   -0.25365E-04  1088   0.416E-02    0.236E-02
DAV:   3    -0.140512188528E+03    0.22909E-05   -0.10216E-05  1192   0.876E-03    0.150E-02
DAV:   4    -0.140512186874E+03    0.16539E-05   -0.18403E-06  1072   0.367E-03    0.853E-03
DAV:   5    -0.140512185864E+03    0.10097E-05   -0.13277E-06  1168   0.279E-03    0.306E-03
DAV:   6    -0.140512185572E+03    0.29227E-06   -0.11911E-07   608   0.102E-03    0.131E-03
DAV:   7    -0.140512185435E+03    0.13754E-06   -0.33771E-08   592   0.561E-04    0.574E-04
DAV:   8    -0.140512185345E+03    0.89436E-07   -0.15782E-08   584   0.377E-04
  50 F= -.14051219E+03 E0= -.14051219E+03  d E =-.101817E-03
       N       E                     dE             d eps       ncg     rms          rms(c)
DAV:   1    -0.140512057347E+03    0.12809E-03   -0.47036E-02   920   0.511E-01    0.181E-01
DAV:   2    -0.140512305416E+03   -0.24807E-03   -0.35530E-03  1112   0.152E-01    0.740E-02
DAV:   3    -0.140512286679E+03    0.18737E-04   -0.11703E-04  1192   0.305E-02    0.485E-02
DAV:   4    -0.140512274840E+03    0.11840E-04   -0.18347E-05  1112   0.119E-02    0.302E-02
DAV:   5    -0.140512271363E+03    0.34762E-05   -0.15832E-05  1192   0.100E-02    0.830E-03
DAV:   6    -0.140512271670E+03   -0.30695E-06   -0.19717E-06  1072   0.399E-03    0.473E-03
DAV:   7    -0.140512271743E+03   -0.72609E-07   -0.19173E-07   688   0.128E-03
  51 F= -.14051227E+03 E0= -.14051227E+03  d E =-.863979E-04
       N       E                     dE             d eps       ncg     rms          rms(c)
DAV:   1    -0.140512271204E+03    0.46674E-06   -0.28929E-04   944   0.401E-02    0.145E-02
DAV:   2    -0.140512272959E+03   -0.17555E-05   -0.22698E-05  1112   0.121E-02    0.575E-03
DAV:   3    -0.140512272860E+03    0.99603E-07   -0.67195E-07  1040   0.240E-03
  52 F= -.14051227E+03 E0= -.14051227E+03  d E =-.875145E-04
       N       E                     dE             d eps       ncg     rms          rms(c)
DAV:   1    -0.140512236270E+03    0.36689E-04   -0.20315E-02   920   0.334E-01    0.102E-01
DAV:   2    -0.140512349728E+03   -0.11346E-03   -0.15494E-03  1120   0.979E-02    0.416E-02
DAV:   3    -0.140512341682E+03    0.80454E-05   -0.34003E-05  1192   0.175E-02    0.284E-02
DAV:   4    -0.140512337278E+03    0.44041E-05   -0.10495E-05  1056   0.854E-03    0.154E-02
DAV:   5    -0.140512335976E+03    0.13025E-05   -0.29282E-06  1184   0.423E-03    0.596E-03
DAV:   6    -0.140512335644E+03    0.33129E-06   -0.27370E-07   680   0.149E-03    0.283E-03
DAV:   7    -0.140512335367E+03    0.27765E-06   -0.10052E-07   616   0.117E-03    0.119E-03
DAV:   8    -0.140512335194E+03    0.17280E-06   -0.11455E-07   592   0.885E-04    0.810E-04
DAV:   9    -0.140512335199E+03   -0.53396E-08   -0.21607E-08   592   0.495E-04
  53 F= -.14051234E+03 E0= -.14051234E+03  d E =-.623396E-04
       N       E                     dE             d eps       ncg     rms          rms(c)
DAV:   1    -0.140512305726E+03    0.29468E-04   -0.10936E-02   920   0.245E-01    0.756E-02
DAV:   2    -0.140512367505E+03   -0.61780E-04   -0.83930E-04  1120   0.720E-02    0.300E-02
DAV:   3    -0.140512363243E+03    0.42622E-05   -0.18365E-05  1192   0.128E-02    0.204E-02
DAV:   4    -0.140512360855E+03    0.23883E-05   -0.55623E-06  1056   0.622E-03    0.111E-02
DAV:   5    -0.140512359981E+03    0.87346E-06   -0.14853E-06  1168   0.303E-03    0.437E-03
DAV:   6    -0.140512359723E+03    0.25831E-06   -0.15938E-07   640   0.112E-03    0.203E-03
DAV:   7    -0.140512359523E+03    0.20004E-06   -0.49929E-08   592   0.838E-04    0.887E-04
DAV:   8    -0.140512359389E+03    0.13403E-06   -0.58766E-08   592   0.642E-04    0.588E-04
DAV:   9    -0.140512359393E+03   -0.41273E-08   -0.11797E-08   592   0.367E-04
  54 F= -.14051236E+03 E0= -.14051236E+03  d E =-.865337E-04
       N       E                     dE             d eps       ncg     rms          rms(c)
DAV:   1    -0.140512139596E+03    0.21979E-03   -0.43746E-02   920   0.490E-01    0.151E-01
DAV:   2    -0.140512383447E+03   -0.24385E-03   -0.33570E-03  1120   0.144E-01    0.602E-02
DAV:   3    -0.140512366128E+03    0.17320E-04   -0.73400E-05  1192   0.257E-02    0.410E-02
DAV:   4    -0.140512357031E+03    0.90966E-05   -0.22341E-05  1056   0.125E-02    0.222E-02
DAV:   5    -0.140512354824E+03    0.22075E-05   -0.59866E-06  1184   0.607E-03    0.875E-03
DAV:   6    -0.140512354311E+03    0.51283E-06   -0.75365E-07  1056   0.223E-03    0.409E-03
DAV:   7    -0.140512353875E+03    0.43545E-06   -0.23531E-07   696   0.165E-03    0.197E-03
DAV:   8    -0.140512353604E+03    0.27128E-06   -0.27188E-07   664   0.124E-03    0.109E-03
DAV:   9    -0.140512353607E+03   -0.33742E-08   -0.33775E-08   592   0.640E-04
  55 F= -.14051235E+03 E0= -.14051235E+03  d E =-.807479E-04
       N       E                     dE             d eps       ncg     rms          rms(c)
DAV:   1    -0.140512279709E+03    0.73895E-04   -0.17660E-02   920   0.311E-01    0.951E-02
DAV:   2    -0.140512374673E+03   -0.94965E-04   -0.13561E-03  1120   0.915E-02    0.384E-02
DAV:   3    -0.140512367396E+03    0.72775E-05   -0.29577E-05  1184   0.163E-02    0.261E-02
DAV:   4    -0.140512364224E+03    0.31718E-05   -0.89994E-06  1056   0.792E-03    0.142E-02
DAV:   5    -0.140512364639E+03   -0.41488E-06   -0.24297E-06  1184   0.386E-03    0.563E-03
DAV:   6    -0.140512364949E+03   -0.31039E-06   -0.26634E-07   656   0.144E-03    0.261E-03
DAV:   7    -0.140512365163E+03   -0.21377E-06   -0.83479E-08   600   0.107E-03    0.115E-03
DAV:   8    -0.140512365338E+03   -0.17525E-06   -0.96241E-08   592   0.815E-04    0.746E-04
DAV:   9    -0.140512365334E+03    0.44074E-08   -0.18932E-08   592   0.469E-04
  56 F= -.14051237E+03 E0= -.14051237E+03  d E =-.924743E-04
       N       E                     dE             d eps       ncg     rms          rms(c)
DAV:   1    -0.140512454653E+03   -0.89314E-04   -0.28136E-02   920   0.395E-01    0.131E-01
DAV:   2    -0.140512468780E+03   -0.14127E-04   -0.20351E-03  1072   0.114E-01    0.691E-02
DAV:   3    -0.140512435281E+03    0.33499E-04   -0.59692E-05  1152   0.217E-02    0.491E-02
DAV:   4    -0.140512414998E+03    0.20283E-04   -0.39474E-05  1032   0.151E-02    0.209E-02
DAV:   5    -0.140512411195E+03    0.38029E-05   -0.65988E-06  1168   0.643E-03    0.826E-03
DAV:   6    -0.140512409743E+03    0.14524E-05   -0.96391E-07  1072   0.251E-03    0.477E-03
DAV:   7    -0.140512408706E+03    0.10367E-05   -0.27286E-07   704   0.146E-03    0.123E-03
DAV:   8    -0.140512408329E+03    0.37714E-06   -0.72615E-08   592   0.770E-04    0.936E-04
DAV:   9    -0.140512408328E+03    0.89449E-09   -0.11874E-08   592   0.378E-04
  57 F= -.14051241E+03 E0= -.14051241E+03  d E =-.429941E-04
       N       E                     dE             d eps       ncg     rms          rms(c)
DAV:   1    -0.140512408855E+03   -0.52650E-06   -0.19248E-05   960   0.103E-02    0.350E-03
DAV:   2    -0.140512408987E+03   -0.13203E-06   -0.13742E-06  1112   0.297E-03    0.181E-03
DAV:   3    -0.140512408960E+03    0.26916E-07   -0.36945E-08   576   0.583E-04
  58 F= -.14051241E+03 E0= -.14051241E+03  d E =-.436266E-04
       N       E                     dE             d eps       ncg     rms          rms(c)
DAV:   1    -0.140512419765E+03   -0.10778E-04   -0.25694E-02   920   0.374E-01    0.148E-01
DAV:   2    -0.140512498395E+03   -0.78630E-04   -0.18936E-03  1120   0.111E-01    0.513E-02
DAV:   3    -0.140512475378E+03    0.23017E-04   -0.57007E-05  1184   0.218E-02    0.314E-02
DAV:   4    -0.140512463733E+03    0.11645E-04   -0.21519E-05  1040   0.117E-02    0.165E-02
DAV:   5    -0.140512460363E+03    0.33698E-05   -0.57280E-06  1184   0.575E-03    0.685E-03
DAV:   6    -0.140512459178E+03    0.11856E-05   -0.65992E-07  1072   0.219E-03    0.332E-03
DAV:   7    -0.140512458584E+03    0.59338E-06   -0.23909E-07   640   0.134E-03    0.139E-03
DAV:   8    -0.140512458328E+03    0.25604E-06   -0.68186E-08   592   0.725E-04    0.955E-04
DAV:   9    -0.140512458370E+03   -0.42054E-07   -0.10204E-08   592   0.354E-04
  59 F= -.14051246E+03 E0= -.14051246E+03  d E =-.494098E-04
       N       E                     dE             d eps       ncg     rms          rms(c)
DAV:   1    -0.140512459947E+03   -0.16189E-05   -0.88940E-04   929   0.696E-02    0.277E-02
DAV:   2    -0.140512463504E+03   -0.35567E-05   -0.65371E-05  1120   0.207E-02    0.945E-03
DAV:   3    -0.140512462767E+03    0.73697E-06   -0.19817E-06  1178   0.405E-03    0.577E-03
DAV:   4    -0.140512462234E+03    0.53300E-06   -0.73590E-07  1040   0.216E-03    0.304E-03
DAV:   5    -0.140512461825E+03    0.40896E-06   -0.16016E-07   613   0.106E-03    0.109E-03
DAV:   6    -0.140512461610E+03    0.21475E-06   -0.57916E-08   592   0.648E-04    0.621E-04
DAV:   7    -0.140512461510E+03    0.10046E-06   -0.10639E-08   586   0.355E-04    0.283E-04
DAV:   8    -0.140512461452E+03    0.57827E-07   -0.53264E-09   592   0.197E-04
  60 F= -.14051246E+03 E0= -.14051246E+03  d E =-.524915E-04
       N       E                     dE             d eps       ncg     rms          rms(c)
DAV:   1    -0.140512517889E+03   -0.56380E-04   -0.11854E-02   920   0.252E-01    0.104E-01
DAV:   2    -0.140512525295E+03   -0.74052E-05   -0.85370E-04  1096   0.743E-02    0.374E-02
DAV:   3    -0.140512510483E+03    0.14812E-04   -0.27687E-05  1168   0.145E-02    0.226E-02
DAV:   4    -0.140512502377E+03    0.81060E-05   -0.17254E-05  1040   0.971E-03    0.107E-02
DAV:   5    -0.140512500530E+03    0.18468E-05   -0.20643E-06  1128   0.385E-03    0.531E-03
DAV:   6    -0.140512499577E+03    0.95264E-06   -0.47529E-07  1016   0.166E-03    0.279E-03
DAV:   7    -0.140512498951E+03    0.62684E-06   -0.13682E-07   616   0.958E-04    0.949E-04
DAV:   8    -0.140512498586E+03    0.36501E-06   -0.35202E-08   592   0.532E-04    0.670E-04
DAV:   9    -0.140512498614E+03   -0.27927E-07   -0.53300E-09   592   0.258E-04
  61 F= -.14051250E+03 E0= -.14051250E+03  d E =-.371617E-04
