 vasp.6.5.1 10Mar25 (build May 13 2025 11:33:44) complex                         
 executed on              LinuxNV date 2026.05.16  18:39:53
 running    2 mpi-ranks, on    1 nodes
 distrk:  each k-point on    1 cores,    2 groups
 distr:  one band on NCORE=   1 cores,    1 groups
 Offloading initialized ...    2 GPUs detected


--------------------------------------------------------------------------------------------------------


 INCAR:
   ALGO = Normal
   PREC = Normal
   LREAL = False
   EDIFF = 1e-07
   ENCUT = 400.0
   LASPH = True
   NELM = 100
   ISIF = 3
   IBRION = 2
   EDIFFG = -0.005
   NSW = 300
   ISMEAR = -5
   SIGMA = 0.1
   LWAVE = False
   LCHARG = False
   LORBIT = 10
   GGA = Ps
   KPAR = 4

 POTCAR:    PAW_PBE S 06Sep2000                   
 POTCAR:    PAW_PBE S 06Sep2000                   
   SHA256 =  0fc7481fb0695f01bdc6462160264c5c84044ae9ec85a907d398b887a2bc3132 S/POTCAR              
   COPYR  = (c) Copyright 06Sep2000 Georg Kresse                                                    
   COPYR  = This file is part of the software VASP. Any use, copying, and all other rights are regul
   COPYR  = If you do not have a valid VASP license, you may not use, copy or distribute this file. 
   VRHFIN =S : s2p4                                                                                 
   LEXCH  = PE                                                                                      
   EATOM  =   276.8230 eV,   20.3459 Ry                                                             
                                                                                                    
   TITEL  = PAW_PBE S 06Sep2000                                                                     
   LULTRA =        F    use ultrasoft PP ?                                                          
   IUNSCR =        1    unscreen: 0-lin 1-nonlin 2-no                                               
   RPACOR =    1.500    partial core radius                                                         
   POMASS =   32.066; ZVAL   =    6.000    mass and valenz                                          
   RCORE  =    1.900    outmost cutoff radius                                                       
   RWIGS  =    2.200; RWIGS  =    1.164    wigner-seitz radius (au A)                               
   ENMAX  =  258.689; ENMIN  =  194.016 eV                                                          
   ICORE  =        2    local potential                                                             
   LCOR   =        T    correct aug charges                                                         
   LPAW   =        T    paw PP                                                                      
   EAUG   =  335.092                                                                                
   DEXC   =    0.000                                                                                
   RMAX   =    1.942    core radius for proj-oper                                                   
   RAUG   =    1.300    factor for augmentation sphere                                              
   RDEP   =    1.954    radius for radial grids                                                     
   RDEPT  =    1.744    core radius for aug-charge                                                  
                                                                                                    
   Atomic configuration                                                                             
    6 entries                                                                                       
     n  l   j            E        occ.                                                              
     1  0  0.50     -2405.8406   2.0000                                                             
     2  0  0.50      -211.7007   2.0000                                                             
     2  1  1.50      -156.4958   6.0000                                                             
     3  0  0.50       -17.2562   2.0000                                                             
     3  1  0.50        -7.0085   4.0000                                                             
     3  2  1.50        -6.8029   0.0000                                                             
   Description                                                                                      
     l       E           TYP  RCUT    TYP  RCUT                                                     
     0    -17.2561641     23  1.900                                                                 
     0    -15.8743224     23  1.900                                                                 
     1     -7.0085400     23  1.900                                                                 
     1     -2.7779785     23  1.900                                                                 
     2     -6.8029130     23  1.900                                                                 
  local pseudopotential read in
  partial core-charges read in
  partial kinetic energy density read in
  atomic valenz-charges read in
  non local Contribution for L=            0  read in
    real space projection operators read in
  non local Contribution for L=            0  read in
    real space projection operators read in
  non local Contribution for L=            1  read in
    real space projection operators read in
  non local Contribution for L=            1  read in
    real space projection operators read in
    PAW grid and wavefunctions read in
 
   number of l-projection  operators is LMAX  =            4
   number of lm-projection operators is LMMAX =            8
 
 -----------------------------------------------------------------------------
|                                                                             |
|               ----> ADVICE to this user running VASP <----                  |
|                                                                             |
|     You have a (more or less) 'large supercell' and for larger cells it     |
|     might be more efficient to use real-space projection operators.         |
|     Therefore, try LREAL= Auto in the INCAR file.                           |
|     Mind: For very accurate calculation, you might also keep the            |
|     reciprocal projection scheme (i.e. LREAL=.FALSE.).                      |
|                                                                             |
 -----------------------------------------------------------------------------

 -----------------------------------------------------------------------------
|                                                                             |
|               ----> ADVICE to this user running VASP <----                  |
|                                                                             |
|     You enforced a specific xc type in the INCAR file but a different       |
|     type was found in the POTCAR file.                                      |
|     I HOPE YOU KNOW WHAT YOU ARE DOING!                                     |
|                                                                             |
 -----------------------------------------------------------------------------

  PAW_PBE S 06Sep2000                   :
 energy of atom  1       EATOM= -276.8230
 kinetic energy error for atom=    0.0046 (will be added to EATOM!!)
 
 
 POSCAR: S32
 -----------------------------------------------------------------------------
|                                                                             |
|           W    W    AA    RRRRR   N    N  II  N    N   GGGG   !!!           |
|           W    W   A  A   R    R  NN   N  II  NN   N  G    G  !!!           |
|           W    W  A    A  R    R  N N  N  II  N N  N  G       !!!           |
|           W WW W  AAAAAA  RRRRR   N  N N  II  N  N N  G  GGG   !            |
|           WW  WW  A    A  R   R   N   NN  II  N   NN  G    G                |
|           W    W  A    A  R    R  N    N  II  N    N   GGGG   !!!           |
|                                                                             |
|     Inconsistent Bravais lattice types found for crystalline and            |
|     reciprocal lattice:                                                     |
|                                                                             |
|        Crystalline: triclinic                                               |
|        Reciprocal : base-centered monoclinic                                |
|                    (instead of triclinic)                                   |
|                                                                             |
|     In most cases this is due to inaccuracies in the specification of       |
|     the crytalline lattice vectors.                                         |
|                                                                             |
|     Suggested SOLUTIONS:                                                    |
|      ) Refine the lattice parameters of your structure,                     |
|      ) and/or try changing SYMPREC.                                         |
|                                                                             |
 -----------------------------------------------------------------------------

  positions in direct lattice
  No initial velocities read in


 exchange-correlation table for PS
   RHO(1)=    0.500       N(1)  =     2000
   RHO(2)=  100.500       N(2)  =     4000
 


--------------------------------------------------------------------------------------------------------


 ion  position               nearest neighbor table
   1  0.046  0.647  0.903-   4 2.05   9 2.05
   2  0.741  0.642  0.596-   3 2.05  10 2.05
   3  0.852  0.453  0.596-   2 2.05  11 2.05
   4  0.857  0.758  0.903-   1 2.05  12 2.05
   5  0.953  0.353  0.095-   8 2.05  13 2.05
   6  0.256  0.357  0.403-   7 2.05  14 2.05
   7  0.144  0.546  0.403-   6 2.05  15 2.05
   8  0.143  0.243  0.096-   5 2.05  16 2.05
   9  0.269  0.814  0.009-  17 2.05   1 2.05
  10  0.805  0.759  0.490-  18 2.05   2 2.05
  11  0.683  0.230  0.491-  19 2.05   3 2.05
  12  0.739  0.696  0.008-  20 2.05   4 2.05
  13  0.730  0.184  0.990-  21 2.05   5 2.05
  14  0.195  0.240  0.509-  22 2.05   6 2.05
  15  0.312  0.769  0.509-  23 2.05   7 2.05
  16  0.259  0.306  0.990-  24 2.05   8 2.05
  17  0.314  0.766  0.154-  25 2.05   9 2.05
  18  0.612  0.661  0.345-  26 2.05  10 2.05
  19  0.732  0.182  0.346-  27 2.05  11 2.05
  20  0.836  0.888  0.153-  28 2.05  12 2.05
  21  0.682  0.231  0.845-  29 2.05  13 2.05
  22  0.388  0.338  0.653-  30 2.05  14 2.05
  23  0.264  0.816  0.654-  31 2.05  15 2.05
  24  0.162  0.113  0.845-  32 2.05  16 2.05
  25  0.246  0.934  0.260-  17 2.05  28 2.05
  26  0.673  0.486  0.239-  18 2.05  27 2.05
  27  0.564  0.250  0.239-  19 2.05  26 2.05
  28  0.009  0.827  0.260-  20 2.05  25 2.05
  29  0.750  0.064  0.738-  21 2.05  32 2.05
  30  0.326  0.512  0.760-  22 2.05  31 2.05
  31  0.433  0.749  0.760-  23 2.05  30 2.05
  32  0.987  0.174  0.738-  24 2.05  29 2.05
 
  LATTYP: Found a triclinic cell.
 ALAT       =     8.5799528831
 B/A-ratio  =     1.2590578361
 C/A-ratio  =     1.6327638449
 COS(alpha) =     0.0000194804
 COS(beta)  =     0.3693487320
 COS(gamma) =     0.6295272408
  
  Lattice vectors:
  
 A1 = (   8.5799528831,   0.0000000000,   0.0000000000)
 A2 = (   6.8005667981,   8.3934312143,   0.0000000000)
 A3 = (   5.1742199998,  -4.1919305429,  12.3251076835)


Analysis of symmetry for initial positions (statically):
=====================================================================
 Subroutine PRICEL returns:
 Original cell was already a primitive cell.
 

 Routine SETGRP: Setting up the symmetry group for a 
 triclinic supercell.


 Subroutine GETGRP returns: Found  1 space group operations
 (whereof  1 operations were pure point group operations)
 out of a pool of  2 trial point group operations.


The static configuration has the point symmetry C_1 .


Analysis of symmetry for dynamics (positions and initial velocities):
=====================================================================
 Subroutine PRICEL returns:
 Original cell was already a primitive cell.
 

 Routine SETGRP: Setting up the symmetry group for a 
 triclinic supercell.


 Subroutine GETGRP returns: Found  1 space group operations
 (whereof  1 operations were pure point group operations)
 out of a pool of  2 trial point group operations.


The dynamic configuration has the point symmetry C_1 .


 Subroutine INISYM returns: Found  1 space group operations
 (whereof  1 operations are pure point group operations),
 and found     1 'primitive' translations


----------------------------------------------------------------------------------------

                                     Primitive cell                                     

  volume of cell :     887.5956

  direct lattice vectors                    reciprocal lattice vectors
     8.579952883  0.000000000  0.000000000     0.116550757  0.024708464  0.040609536
    -1.779386085  8.393431214  0.000000000    -0.000000000  0.119140787  0.040521342
    -3.405732883 -4.191930543 12.325107684     0.000000000 -0.000000000  0.081135194

  length of vectors
     8.579952883  8.579971002 13.456581199     0.125871846  0.125843181  0.081135194

  position of ions in fractional coordinates (direct lattice)
     0.045690552  0.646580257  0.903082835
     0.741484660  0.642346860  0.595592395
     0.851780333  0.452657354  0.596329797
     0.856745681  0.758161788  0.902696216
     0.952673436  0.353110910  0.095371194
     0.256227866  0.357497023  0.402874737
     0.144247303  0.546106600  0.402861179
     0.142735035  0.243156001  0.095648911
     0.268556474  0.814169002  0.009332419
     0.804725849  0.758719049  0.489670601
     0.683337280  0.229937912  0.490541717
     0.738710010  0.695894567  0.008094899
     0.730176605  0.183979254  0.989753379
     0.194691263  0.240263996  0.508826226
     0.311628230  0.769259402  0.508813925
     0.259499290  0.306035667  0.989837209
     0.314403085  0.765941458  0.154022551
     0.612213349  0.661234085  0.344778661
     0.731754764  0.181830224  0.345959591
     0.835699289  0.888487336  0.152858966
     0.681876374  0.231351367  0.844765481
     0.387792905  0.338200844  0.653416942
     0.263676489  0.815509502  0.653553130
     0.162241686  0.113470486  0.845057861
     0.246390976  0.934172688  0.260246945
     0.673349502  0.486095794  0.238596636
     0.564441799  0.249665911  0.238876089
     0.009171983  0.826726921  0.259897113
     0.750487870  0.064142102  0.738312594
     0.326027869  0.511634146  0.760307535
     0.432722792  0.748825746  0.760262710
     0.986905402  0.173902749  0.738399554

  ion indices of the primitive-cell ions
   primitive index   ion index
                 1           1
                 2           2
                 3           3
                 4           4
                 5           5
                 6           6
                 7           7
                 8           8
                 9           9
                10          10
                11          11
                12          12
                13          13
                14          14
                15          15
                16          16
                17          17
                18          18
                19          19
                20          20
                21          21
                22          22
                23          23
                24          24
                25          25
                26          26
                27          27
                28          28
                29          29
                30          30
                31          31
                32          32

----------------------------------------------------------------------------------------

 
 
 KPOINTS: Num irrep kpoints: 4                    

Automatic generation of k-mesh.
 Grid dimensions read from file:
 generate k-points for:    2    2    2

 Generating k-lattice:

  Cartesian coordinates                     Fractional coordinates (reciprocal lattice)
     0.058275378  0.012354232  0.020304768     0.500000000  0.000000000  0.000000000
    -0.000000000  0.059570393  0.020260671     0.000000000  0.500000000 -0.000000000
     0.000000000 -0.000000000  0.040567597     0.000000000  0.000000000  0.500000000

  Length of vectors
     0.062935923  0.062921591  0.040567597

  Shift w.r.t. Gamma in fractional coordinates (k-lattice)
     0.500000000  0.500000000  0.500000000

 TETIRR: Found     12 inequivalent tetrahedra from       48
 
 Subroutine IBZKPT returns following result:
 ===========================================
 
 Found      4 irreducible k-points:
 
 Following reciprocal coordinates:
            Coordinates               Weight
  0.250000  0.250000  0.250000      2.000000
 -0.250000  0.250000  0.250000      2.000000
  0.250000 -0.250000  0.250000      2.000000
 -0.250000 -0.250000  0.250000      2.000000
 
 Following cartesian coordinates:
            Coordinates               Weight
  0.029138  0.035962  0.040567      2.000000
 -0.029138  0.023608  0.020262      2.000000
  0.029138 -0.023608  0.020306      2.000000
 -0.029138 -0.035962  0.000001      2.000000
 


--------------------------------------------------------------------------------------------------------




 Dimension of arrays:
   k-points           NKPTS =      4   k-points in BZ     NKDIM =      4   number of bands    NBANDS=    115
   number of dos      NEDOS =    301   number of ions     NIONS =     32
   non local maximal  LDIM  =      4   non local SUM 2l+1 LMDIM =      8
   total plane-waves  NPLWV = 123480
   max r-space proj   IRMAX =      1   max aug-charges    IRDMAX=   4582
   dimension x,y,z NGX =    42 NGY =   42 NGZ =   70
   dimension x,y,z NGXF=    84 NGYF=   84 NGZF=  140
   support grid    NGXF=    84 NGYF=   84 NGZF=  140
   ions per type =              32
   NGX,Y,Z   is equivalent  to a cutoff of   8.14,  8.14,  8.65 a.u.
   NGXF,Y,Z  is equivalent  to a cutoff of  16.28, 16.28, 17.30 a.u.

 SYSTEM =  unknown system                          
 POSCAR =  S32                                     

 Startparameter for this run:
   NWRITE =      2    write-flag & timer
   PREC   = normal    normal or accurate (medium, high low for compatibility)
   ISTART =      0    job   : 0-new  1-cont  2-samecut
   ICHARG =      2    charge: 1-file 2-atom 10-const
   ISPIN  =      1    spin polarized calculation?
   LNONCOLLINEAR =      F non collinear calculations
   LSORBIT =      F    spin-orbit coupling
   INIWAV =      1    electr: 0-lowe 1-rand  2-diag
   LASPH  =      T    aspherical Exc in radial PAW
 Electronic Relaxation 1
   ENCUT  =  400.0 eV  29.40 Ry    5.42 a.u.  13.99 13.99 21.94*2*pi/ulx,y,z
   ENINI  =  400.0     initial cutoff
   ENAUG  =  335.1 eV  augmentation charge cutoff
   NELM   =    100;   NELMIN=  2; NELMDL= -5     # of ELM steps 
   EDIFF  = 0.1E-06   stopping-criterion for ELM
   LREAL  =      F    real-space projection
   NLSPLINE    = F    spline interpolate recip. space projectors
   LCOMPAT=      F    compatible to vasp.4.4
   GGA_COMPAT  = T    GGA compatible to vasp.4.4-vasp.4.6
   LMAXPAW     = -100 max onsite density
   LMAXMIX     =    2 max onsite mixed and CHGCAR
   VOSKOWN=      0    Vosko Wilk Nusair interpolation
   ROPT   =    0.00000
 Ionic relaxation
   EDIFFG = -.5E-02   stopping-criterion for IOM
   NSW    =    300    number of steps for IOM
   NBLOCK =      1;   KBLOCK =    300    inner block; outer block 
   IBRION =      2    ionic relax: 0-MD 1-quasi-New 2-CG
   NFREE  =      1    steps in history (QN), initial steepest desc. (CG)
   ISIF   =      3    stress and relaxation
   IWAVPR =     11    prediction:  0-non 1-charg 2-wave 3-comb
   ISYM   =      2    0-nonsym 1-usesym 2-fastsym
   LCORR  =      T    Harris-Foulkes like correction to forces

   POTIM  = 0.5000    time-step for ionic-motion
   TEIN   =    0.0    initial temperature
   TEBEG  =    0.0;   TEEND  =   0.0 temperature during run
   SMASS  =  -3.00    Nose mass-parameter (am)
   estimated Nose-frequenzy (Omega)   =  0.10E-29 period in steps = 0.13E+47 mass=  -0.168E-26a.u.
   SCALEE = 1.0000    scale energy and forces
   NPACO  =    256;   APACO  = 10.0  distance and # of slots for P.C.
   PSTRESS=    0.0 pullay stress

  Mass of Ions in am
   POMASS =  32.07
  Ionic Valenz
   ZVAL   =   6.00
  Atomic Wigner-Seitz radii
   RWIGS  =  -1.00
  virtual crystal weights 
   VCA    =   1.00
   NELECT =     192.0000    total number of electrons
   NUPDOWN=      -1.0000    fix difference up-down

 DOS related values:
   EMIN   =  10.00;   EMAX   =-10.00  energy-range for DOS
   EFERMI =   0.00;   METHOD = LEGACY      
   ISMEAR =    -5;   SIGMA  =   0.10  broadening in eV -4-tet -1-fermi 0-gaus
   EFERMI_NEDOS =   21; number of points for ismear=-14 and -15

 Electronic relaxation 2 (details)
   IALGO  =     38    algorithm
   LDIAG  =      T    sub-space diagonalisation (order eigenvalues)
   LSUBROT=      F    optimize rotation matrix (better conditioning)
   LROBUST=      F    robust break criterion during scf (extrapolated energy error)
   ISEARCH=      0    line search for conjugate gradient (0, 1=use gradient)
   TURBO    =      0    0=normal 1=particle mesh
   IRESTART =      0    0=no restart 2=restart with 2 vectors
   NREBOOT  =      0    no. of reboots
   NMIN     =      0    reboot dimension
   EREF     =   0.00    reference energy to select bands
   IMIX   =      4    mixing-type and parameters
     AMIX     =   0.40;   BMIX     =  1.00
     AMIX_MAG =   1.60;   BMIX_MAG =  1.00
     AMIN     =   0.10
     WC   =   100.;   INIMIX=   1;  MIXPRE=   1;  MAXMIX= -45

 Intra band minimization:
   WEIMIN = 0.0010     energy-eigenvalue tresh-hold
   EBREAK =  0.22E-09  absolut break condition
   DEPER  =   0.30     relativ break condition  

   TIME   =   0.40     timestep for ELM

  volume/ion in A,a.u.               =      27.74       187.18
  Fermi-wavevector in a.u.,A,eV,Ry     =   0.982736  1.857102 13.140098  0.965770
  Thomas-Fermi vector in A             =   2.113841
 
 Write flags
   LWAVE        =      F    write WAVECAR
   LDOWNSAMPLE  =      F    k-point downsampling of WAVECAR
   LCHARG       =      F    write CHGCAR
   LVTOT        =      F    write LOCPOT, total local potential
   LVHAR        =      F    write LOCPOT, Hartree potential only
   WRT_POTENTIAL= false  ! write potential to hdf5 file
   LELF         =      F    write electronic localiz. function (ELF)
   LORBIT       =     10    0 simple, 1 ext, 2 COOP (PROOUT), +10 PAW based schemes


 Python interface
   PLUGINS active      =      F    recompile with -DPLUGINS to activate
 
 Dipole corrections
   LMONO      =      F    monopole corrections only (constant potential shift)
   LDIPOL     =      F    correct potential (dipole corrections)
   IDIPOL     =      0    1-x, 2-y, 3-z, 4-all directions 
   EPSILON    =  1.0000000 bulk dielectric constant
   LVACPOTAV  =      F  vacuum potentials using an averaging scheme for the charge density
   VACPOTFLAT =  0.1000000 required flatness to determine vacuum potential
 
Coulomb truncation method
  LTRUNCATE          =      F  Coulomb kernel truncation to be used

 
 Exchange correlation treatment:
   GGA     = PS    functional components
   XC_C    = 1    coefficients multiplying the functional components
   LIBXC   =     F    Libxc                    
   VOSKOWN =     0    Vosko Wilk Nusair interpolation
   LHFCALC =     F    Hartree Fock is set to
   LHFONE  =     F    Hartree Fock one center treatment
   AEXX    =    0.0000 exact exchange contribution

 Parameters of functionals:
   PS:
     No parameter
 
 Van der Waals corrections
   IVDW    =     0    specifies the selected vdW correction

 Linear response parameters
   LEPSILON=     F    determine dielectric tensor
   LRPA    =     F    only Hartree local field effects (RPA)
   LNABLA  =     F    use nabla operator in PAW spheres
   LVEL    =     F    velocity operator in full k-point grid
   CSHIFT  =0.1000    complex shift for real part using Kramers Kronig
   OMEGAMAX=  -1.0    maximum frequency
   DEG_THRESHOLD= 0.2000000E-02 threshold for treating states as degnerate
   RTIME   =   -0.100 relaxation time in fs
  (WPLASMAI=    0.000 imaginary part of plasma frequency in eV, 0.658/RTIME)
   DFIELD  = 0.0000000 0.0000000 0.0000000 field for delta impulse in time
 
  Optional k-point grid parameters
   LKPOINTS_OPT  =     F    use optional k-point grid
   KPOINTS_OPT_MODE=     1    mode for optional k-point grid
 
 Orbital magnetization related:
   ORBITALMAG=     F  switch on orbital magnetization
   LCHIMAG   =     F  perturbation theory with respect to B field
   DQ        =  0.001000  dq finite difference perturbation B field
   LLRAUG    =     F  two centre corrections for induced B field
   LBONE     =     F  B-component reconstruction in AE one-centre
   LVGVCALC  =     T  calculate vGv susceptibility
   LVGVAPPL  =     F  apply vGv susceptibility instead of pGv for G=0

 Random number generation:
   RANDOM_GENERATOR = DEFAULT
   PCG_SEED         = not used


--------------------------------------------------------------------------------------------------------


 conjugate gradient relaxation of ions
 charge density and potential will be updated during run
 non-spin polarized calculation
 Variant of blocked Davidson
 Davidson routine will perform the subspace rotation
 perform sub-space diagonalisation
    after iterative eigenvector-optimisation
 modified Broyden-mixing scheme, WC =      100.0
 initial mixing is a Kerker type mixing with AMIX =  0.4000 and BMIX =      1.0000
 Hartree-type preconditioning will be used
 using additional bands            19
 reciprocal scheme for non local part
 use partial core corrections
 calculate Harris-corrections to forces 
   (improved forces if not selfconsistent)
 use gradient corrections 
 use of overlap-Matrix (Vanderbilt PP)
 Fermi weights with tetrahedron method with Bloechl corrections


--------------------------------------------------------------------------------------------------------


  energy-cutoff  :      400.00
  volume of cell :      887.60
      direct lattice vectors                 reciprocal lattice vectors
     8.579952883  0.000000000  0.000000000     0.116550757  0.024708464  0.040609536
    -1.779386085  8.393431214  0.000000000    -0.000000000  0.119140787  0.040521342
    -3.405732883 -4.191930543 12.325107684     0.000000000 -0.000000000  0.081135194

  length of vectors
     8.579952883  8.579971002 13.456581199     0.125871846  0.125843181  0.081135194


 
 k-points in units of 2pi/SCALE and weight: Num irrep kpoints: 4                    
   0.02913769  0.03596231  0.04056652       0.250
  -0.02913769  0.02360808  0.02026175       0.250
   0.02913769 -0.02360808  0.02030585       0.250
  -0.02913769 -0.03596231  0.00000108       0.250
 
 k-points in reciprocal lattice and weights: Num irrep kpoints: 4                    
   0.25000000  0.25000000  0.25000000       0.250
  -0.25000000  0.25000000  0.25000000       0.250
   0.25000000 -0.25000000  0.25000000       0.250
  -0.25000000 -0.25000000  0.25000000       0.250
 
 position of ions in fractional coordinates (direct lattice) 
   0.04569055  0.64658026  0.90308284
   0.74148466  0.64234686  0.59559239
   0.85178033  0.45265735  0.59632980
   0.85674568  0.75816179  0.90269622
   0.95267344  0.35311091  0.09537119
   0.25622787  0.35749702  0.40287474
   0.14424730  0.54610660  0.40286118
   0.14273503  0.24315600  0.09564891
   0.26855647  0.81416900  0.00933242
   0.80472585  0.75871905  0.48967060
   0.68333728  0.22993791  0.49054172
   0.73871001  0.69589457  0.00809490
   0.73017661  0.18397925  0.98975338
   0.19469126  0.24026400  0.50882623
   0.31162823  0.76925940  0.50881393
   0.25949929  0.30603567  0.98983721
   0.31440309  0.76594146  0.15402255
   0.61221335  0.66123409  0.34477866
   0.73175476  0.18183022  0.34595959
   0.83569929  0.88848734  0.15285897
   0.68187637  0.23135137  0.84476548
   0.38779290  0.33820084  0.65341694
   0.26367649  0.81550950  0.65355313
   0.16224169  0.11347049  0.84505786
   0.24639098  0.93417269  0.26024694
   0.67334950  0.48609579  0.23859664
   0.56444180  0.24966591  0.23887609
   0.00917198  0.82672692  0.25989711
   0.75048787  0.06414210  0.73831259
   0.32602787  0.51163415  0.76030753
   0.43272279  0.74882575  0.76026271
   0.98690540  0.17390275  0.73839955
 
 position of ions in cartesian coordinates  (Angst):
  -3.83415203  1.64136639 11.13059319
   3.19049178  2.89481223  7.34074040
   4.47184293  1.29957527  7.34982897
   2.92743285  2.57953898 11.12582807
   7.22076374  2.56402272  1.17546023
   0.19021405  1.31180376  4.96547452
  -1.10613699  2.89494210  4.96530741
   0.46623683  1.63995957  1.17888313
   0.82369717  6.79455066  0.11502307
   3.88676848  4.31559100  6.03524289
   3.78319929 -0.12634875  6.04597949
   5.07226290  5.80700993  0.09977051
   2.56667511 -2.60476021 12.19881698
  -0.49000675 -0.11632487  6.27133802
  -0.42793826  4.32381324  6.27118642
  -1.68918506 -1.58063951 12.19985019
   0.81009842  5.78322510  1.89834453
   2.90194694  4.10473461  4.24943413
   4.77662927  0.07594091  4.26398921
   5.06870171  6.81668317  1.88400321
   2.56175818 -1.59936644 10.41182552
   0.50009141  0.09958708  8.05343418
  -1.41460179  4.10527358  8.05511270
  -1.68792313 -2.59001714 10.41542914
  -0.43456249  6.74997709  3.20757162
   4.09975850  3.07983108  2.94072923
   3.58508384  1.09420168  2.94417352
  -2.27751134  5.84960490  3.20325991
   3.81052152 -2.55658279  9.09978222
  -0.70249530  1.10720964  9.37087224
  -0.20896066  3.09824891  9.37031977
   5.64337007 -1.63567888  9.10085401
 


--------------------------------------------------------------------------------------------------------


 k-point     1 :   0.2500 0.2500 0.2500  plane waves:   16140
 k-point     2 :  -0.2500 0.2500 0.2500  plane waves:   16138
 k-point     3 :   0.2500-0.2500 0.2500  plane waves:   16137
 k-point     4 :  -0.2500-0.2500 0.2500  plane waves:   16138

 maximum and minimum number of plane-waves per node :     16140    16137

 maximum number of plane-waves:     16140
 maximum index in each direction: 
   IXMAX=   14   IYMAX=   14   IZMAX=   21
   IXMIN=  -14   IYMIN=  -14   IZMIN=  -22


 serial   3D FFT for wavefunctions
 parallel 3D FFT for charge:
    minimum data exchange during FFTs selected (reduces bandwidth)


 total amount of memory used by VASP MPI-rank0   250090. kBytes
=======================================================================

   base                                    :      30000. kBytes
   nonl-proj                               :      12395. kBytes
   fftplans                                :      34088. kBytes
   grid                                    :      52835. kBytes
   one-center                              :         98. kBytes
   wavefun                                 :     120674. kBytes
 
     INWAV:  cpu time      0.0001: real time      0.0002
 Broyden mixing: mesh for mixing (old mesh)
   NGX = 27   NGY = 27   NGZ = 43
  (NGX  = 84   NGY  = 84   NGZ  =140)
  gives a total of  31347 points

 initial charge density was supplied:
 charge density of overlapping atoms calculated
 number of electron     192.0000000 magnetization 
 keeping initial charge density in first step


--------------------------------------------------------------------------------------------------------


 Maximum index for augmentation-charges          4268 (set IRDMAX)


--------------------------------------------------------------------------------------------------------


 First call to EWALD:  gamma=   0.184
 Maximum number of real-space cells   3x   3x   2
 Maximum number of reciprocal cells   3x   3x   4

    FEWALD:  cpu time      0.0324: real time      0.0325


--------------------------------------- Ionic step        1  -------------------------------------------




--------------------------------------- Iteration      1(   1)  ---------------------------------------


    POTLOK:  cpu time      0.0284: real time      0.0295
    SETDIJ:  cpu time      0.3209: real time      0.3222
     EDDAV:  cpu time      0.3944: real time      0.3967
 BZINTS: Fermi energy:   12.252248;  192.000000 electrons
         Band energy: 0.297392E+03;  BLOECHL correction:    0.000000
       DOS:  cpu time      0.0016: real time      0.0016
    --------------------------------------------
      LOOP:  cpu time      0.7453: real time      0.7500

 eigenvalue-minimisations  :   920
 total energy-change (2. order) : 0.1136902E+04  (-0.6978111E+04)
 number of electron     192.0000000 magnetization 
 augmentation part      192.0000000 magnetization 

 Free energy of the ion-electron system (eV)
  ---------------------------------------------------
  alpha Z        PSCENC =       174.14296888
  Ewald energy   TEWEN  =     -6600.59752573
  -Hartree energ DENC   =     -2073.33292335
  -exchange      EXHF   =         0.00000000
  -V(xc)+E(xc)   XCENC  =       396.40070267
  PAW double counting   =      6953.67807941    -6843.14728347
  entropy T*S    EENTRO =         0.00000000
  eigenvalues    EBANDS =       297.39162325
  atomic energy  EATOM  =      8832.36675497
  Solvation  Ediel_sol  =         0.00000000
  ---------------------------------------------------
  free energy    TOTEN  =      1136.90239663 eV

  energy without entropy =     1136.90239663  energy(sigma->0) =     1136.90239663


--------------------------------------------------------------------------------------------------------




--------------------------------------- Iteration      1(   2)  ---------------------------------------


     EDDAV:  cpu time      0.2700: real time      0.2710
 BZINTS: Fermi energy:    2.606072;  192.000000 electrons
         Band energy:-0.862597E+03;  BLOECHL correction:    0.000000
       DOS:  cpu time      0.0012: real time      0.0012
    --------------------------------------------
      LOOP:  cpu time      0.2712: real time      0.2722

 eigenvalue-minimisations  :  1178
 total energy-change (2. order) :-0.1159989E+04  (-0.1122927E+04)
 number of electron     192.0000000 magnetization 
 augmentation part      192.0000000 magnetization 

 Free energy of the ion-electron system (eV)
  ---------------------------------------------------
  alpha Z        PSCENC =       174.14296888
  Ewald energy   TEWEN  =     -6600.59752573
  -Hartree energ DENC   =     -2073.33292335
  -exchange      EXHF   =         0.00000000
  -V(xc)+E(xc)   XCENC  =       396.40070267
  PAW double counting   =      6953.67807941    -6843.14728347
  entropy T*S    EENTRO =         0.00000000
  eigenvalues    EBANDS =      -862.59712751
  atomic energy  EATOM  =      8832.36675497
  Solvation  Ediel_sol  =         0.00000000
  ---------------------------------------------------
  free energy    TOTEN  =       -23.08635413 eV

  energy without entropy =      -23.08635413  energy(sigma->0) =      -23.08635413


--------------------------------------------------------------------------------------------------------




--------------------------------------- Iteration      1(   3)  ---------------------------------------


     EDDAV:  cpu time      0.2511: real time      0.2520
 BZINTS: Fermi energy:    1.011036;  192.000000 electrons
         Band energy:-0.977118E+03;  BLOECHL correction:    0.000000
       DOS:  cpu time      0.0011: real time      0.0011
    --------------------------------------------
      LOOP:  cpu time      0.2522: real time      0.2531

 eigenvalue-minimisations  :  1064
 total energy-change (2. order) :-0.1145205E+03  (-0.1132884E+03)
 number of electron     192.0000000 magnetization 
 augmentation part      192.0000000 magnetization 

 Free energy of the ion-electron system (eV)
  ---------------------------------------------------
  alpha Z        PSCENC =       174.14296888
  Ewald energy   TEWEN  =     -6600.59752573
  -Hartree energ DENC   =     -2073.33292335
  -exchange      EXHF   =         0.00000000
  -V(xc)+E(xc)   XCENC  =       396.40070267
  PAW double counting   =      6953.67807941    -6843.14728347
  entropy T*S    EENTRO =         0.00000000
  eigenvalues    EBANDS =      -977.11763659
  atomic energy  EATOM  =      8832.36675497
  Solvation  Ediel_sol  =         0.00000000
  ---------------------------------------------------
  free energy    TOTEN  =      -137.60686321 eV

  energy without entropy =     -137.60686321  energy(sigma->0) =     -137.60686321


--------------------------------------------------------------------------------------------------------




--------------------------------------- Iteration      1(   4)  ---------------------------------------


     EDDAV:  cpu time      0.2821: real time      0.2831
 BZINTS: Fermi energy:    0.976898;  192.000000 electrons
         Band energy:-0.981029E+03;  BLOECHL correction:    0.000000
       DOS:  cpu time      0.0010: real time      0.0010
    --------------------------------------------
      LOOP:  cpu time      0.2831: real time      0.2842

 eigenvalue-minimisations  :  1256
 total energy-change (2. order) :-0.3911166E+01  (-0.3880354E+01)
 number of electron     192.0000000 magnetization 
 augmentation part      192.0000000 magnetization 

 Free energy of the ion-electron system (eV)
  ---------------------------------------------------
  alpha Z        PSCENC =       174.14296888
  Ewald energy   TEWEN  =     -6600.59752573
  -Hartree energ DENC   =     -2073.33292335
  -exchange      EXHF   =         0.00000000
  -V(xc)+E(xc)   XCENC  =       396.40070267
  PAW double counting   =      6953.67807941    -6843.14728347
  entropy T*S    EENTRO =         0.00000000
  eigenvalues    EBANDS =      -981.02880281
  atomic energy  EATOM  =      8832.36675497
  Solvation  Ediel_sol  =         0.00000000
  ---------------------------------------------------
  free energy    TOTEN  =      -141.51802943 eV

  energy without entropy =     -141.51802943  energy(sigma->0) =     -141.51802943


--------------------------------------------------------------------------------------------------------




--------------------------------------- Iteration      1(   5)  ---------------------------------------


     EDDAV:  cpu time      0.2802: real time      0.2812
 BZINTS: Fermi energy:    0.978740;  192.000000 electrons
         Band energy:-0.981144E+03;  BLOECHL correction:    0.000000
       DOS:  cpu time      0.0012: real time      0.0012
    CHARGE:  cpu time      0.2348: real time      0.2916
    MIXING:  cpu time      0.0139: real time      0.0139
    --------------------------------------------
      LOOP:  cpu time      0.5301: real time      0.5879

 eigenvalue-minimisations  :  1240
 total energy-change (2. order) :-0.1154541E+00  (-0.1151574E+00)
 number of electron     192.0000106 magnetization 
 augmentation part      -26.9771776 magnetization 

 Broyden mixing:
  rms(total) = 0.63155E+01    rms(broyden)= 0.63155E+01
  rms(prec ) = 0.63381E+01
  weight for this iteration     100.00

 Free energy of the ion-electron system (eV)
  ---------------------------------------------------
  alpha Z        PSCENC =       174.14296888
  Ewald energy   TEWEN  =     -6600.59752573
  -Hartree energ DENC   =     -2073.33292335
  -exchange      EXHF   =         0.00000000
  -V(xc)+E(xc)   XCENC  =       396.40070267
  PAW double counting   =      6953.67807941    -6843.14728347
  entropy T*S    EENTRO =         0.00000000
  eigenvalues    EBANDS =      -981.14425695
  atomic energy  EATOM  =      8832.36675497
  Solvation  Ediel_sol  =         0.00000000
  ---------------------------------------------------
  free energy    TOTEN  =      -141.63348357 eV

  energy without entropy =     -141.63348357  energy(sigma->0) =     -141.63348357


--------------------------------------------------------------------------------------------------------




--------------------------------------- Iteration      1(   6)  ---------------------------------------


    POTLOK:  cpu time      0.0071: real time      0.0074
    SETDIJ:  cpu time      0.3212: real time      0.3220
     EDDAV:  cpu time      0.2578: real time      0.2584
 BZINTS: Fermi energy:    1.108992;  192.000000 electrons
         Band energy:-0.963479E+03;  BLOECHL correction:    0.000000
       DOS:  cpu time      0.0013: real time      0.0013
    CHARGE:  cpu time      0.0465: real time      0.0467
    MIXING:  cpu time      0.0148: real time      0.0148
    --------------------------------------------
      LOOP:  cpu time      0.6486: real time      0.6505

 eigenvalue-minimisations  :  1088
 total energy-change (2. order) : 0.8451250E+00  (-0.4865621E-01)
 number of electron     192.0000105 magnetization 
 augmentation part      -26.9157351 magnetization 

 Broyden mixing:
  rms(total) = 0.37897E+01    rms(broyden)= 0.37897E+01
  rms(prec ) = 0.38022E+01
  weight for this iteration     100.00

 eigenvalues of (default mixing * dielectric matrix)
  average eigenvalue GAMMA=   2.4983
  2.4983

 Free energy of the ion-electron system (eV)
  ---------------------------------------------------
  alpha Z        PSCENC =       174.14296888
  Ewald energy   TEWEN  =     -6600.59752573
  -Hartree energ DENC   =     -2090.96462992
  -exchange      EXHF   =         0.00000000
  -V(xc)+E(xc)   XCENC  =       398.39477875
  PAW double counting   =     11996.40659175   -11887.05869532
  entropy T*S    EENTRO =         0.00000000
  eigenvalues    EBANDS =      -963.47860192
  atomic energy  EATOM  =      8832.36675497
  Solvation  Ediel_sol  =         0.00000000
  ---------------------------------------------------
  free energy    TOTEN  =      -140.78835854 eV

  energy without entropy =     -140.78835854  energy(sigma->0) =     -140.78835854


--------------------------------------------------------------------------------------------------------




--------------------------------------- Iteration      1(   7)  ---------------------------------------


    POTLOK:  cpu time      0.0078: real time      0.0079
    SETDIJ:  cpu time      0.3275: real time      0.3283
     EDDAV:  cpu time      0.2746: real time      0.2753
 BZINTS: Fermi energy:    1.272111;  192.000000 electrons
         Band energy:-0.939034E+03;  BLOECHL correction:    0.000000
       DOS:  cpu time      0.0013: real time      0.0013
    CHARGE:  cpu time      0.0455: real time      0.0456
    MIXING:  cpu time      0.0150: real time      0.0150
    --------------------------------------------
      LOOP:  cpu time      0.6717: real time      0.6734

 eigenvalue-minimisations  :  1200
 total energy-change (2. order) : 0.3359600E+00  (-0.8973572E-01)
 number of electron     192.0000104 magnetization 
 augmentation part      -26.8396703 magnetization 

 Broyden mixing:
  rms(total) = 0.77565E-01    rms(broyden)= 0.77538E-01
  rms(prec ) = 0.86082E-01
  weight for this iteration     100.00

 eigenvalues of (default mixing * dielectric matrix)
  average eigenvalue GAMMA=   1.9155
  1.3257  2.5054

 Free energy of the ion-electron system (eV)
  ---------------------------------------------------
  alpha Z        PSCENC =       174.14296888
  Ewald energy   TEWEN  =     -6600.59752573
  -Hartree energ DENC   =     -2116.87881775
  -exchange      EXHF   =         0.00000000
  -V(xc)+E(xc)   XCENC  =       401.69268050
  PAW double counting   =     22744.80063749   -22636.94551419
  entropy T*S    EENTRO =         0.00000000
  eigenvalues    EBANDS =      -939.03358269
  atomic energy  EATOM  =      8832.36675497
  Solvation  Ediel_sol  =         0.00000000
  ---------------------------------------------------
  free energy    TOTEN  =      -140.45239853 eV

  energy without entropy =     -140.45239853  energy(sigma->0) =     -140.45239853


--------------------------------------------------------------------------------------------------------




--------------------------------------- Iteration      1(   8)  ---------------------------------------


    POTLOK:  cpu time      0.0076: real time      0.0079
    SETDIJ:  cpu time      0.3251: real time      0.3258
     EDDAV:  cpu time      0.2563: real time      0.2570
 BZINTS: Fermi energy:    1.249184;  192.000000 electrons
         Band energy:-0.940849E+03;  BLOECHL correction:    0.000000
       DOS:  cpu time      0.0012: real time      0.0012
    CHARGE:  cpu time      0.0445: real time      0.0447
    MIXING:  cpu time      0.0154: real time      0.0155
    --------------------------------------------
      LOOP:  cpu time      0.6501: real time      0.6521

 eigenvalue-minimisations  :  1072
 total energy-change (2. order) :-0.1029111E-02  (-0.4811865E-02)
 number of electron     192.0000105 magnetization 
 augmentation part      -26.8569997 magnetization 

 Broyden mixing:
  rms(total) = 0.54321E-01    rms(broyden)= 0.54319E-01
  rms(prec ) = 0.56614E-01
  weight for this iteration     100.00

 eigenvalues of (default mixing * dielectric matrix)
  average eigenvalue GAMMA=   1.7151
  2.4371  1.3542  1.3542

 Free energy of the ion-electron system (eV)
  ---------------------------------------------------
  alpha Z        PSCENC =       174.14296888
  Ewald energy   TEWEN  =     -6600.59752573
  -Hartree energ DENC   =     -2115.09166933
  -exchange      EXHF   =         0.00000000
  -V(xc)+E(xc)   XCENC  =       401.54491241
  PAW double counting   =     22801.18912952   -22693.15888925
  entropy T*S    EENTRO =         0.00000000
  eigenvalues    EBANDS =      -940.84910911
  atomic energy  EATOM  =      8832.36675497
  Solvation  Ediel_sol  =         0.00000000
  ---------------------------------------------------
  free energy    TOTEN  =      -140.45342764 eV

  energy without entropy =     -140.45342764  energy(sigma->0) =     -140.45342764


--------------------------------------------------------------------------------------------------------




--------------------------------------- Iteration      1(   9)  ---------------------------------------


    POTLOK:  cpu time      0.0073: real time      0.0076
    SETDIJ:  cpu time      0.3277: real time      0.3286
     EDDAV:  cpu time      0.2787: real time      0.2794
 BZINTS: Fermi energy:    1.235230;  192.000000 electrons
         Band energy:-0.940996E+03;  BLOECHL correction:    0.000000
       DOS:  cpu time      0.0012: real time      0.0012
    CHARGE:  cpu time      0.0456: real time      0.0457
    MIXING:  cpu time      0.0151: real time      0.0151
    --------------------------------------------
      LOOP:  cpu time      0.6756: real time      0.6776

 eigenvalue-minimisations  :  1216
 total energy-change (2. order) :-0.7134890E-03  (-0.4578663E-03)
 number of electron     192.0000105 magnetization 
 augmentation part      -26.8629245 magnetization 

 Broyden mixing:
  rms(total) = 0.28657E-01    rms(broyden)= 0.28657E-01
  rms(prec ) = 0.29755E-01
  weight for this iteration     100.00

 eigenvalues of (default mixing * dielectric matrix)
  average eigenvalue GAMMA=   1.7007
  2.4836  0.9446  1.6873  1.6873

 Free energy of the ion-electron system (eV)
  ---------------------------------------------------
  alpha Z        PSCENC =       174.14296888
  Ewald energy   TEWEN  =     -6600.59752573
  -Hartree energ DENC   =     -2114.95456488
  -exchange      EXHF   =         0.00000000
  -V(xc)+E(xc)   XCENC  =       401.51096947
  PAW double counting   =     22649.28057157   -22541.20749634
  entropy T*S    EENTRO =         0.00000000
  eigenvalues    EBANDS =      -940.99581907
  atomic energy  EATOM  =      8832.36675497
  Solvation  Ediel_sol  =         0.00000000
  ---------------------------------------------------
  free energy    TOTEN  =      -140.45414113 eV

  energy without entropy =     -140.45414113  energy(sigma->0) =     -140.45414113


--------------------------------------------------------------------------------------------------------




--------------------------------------- Iteration      1(  10)  ---------------------------------------


    POTLOK:  cpu time      0.0072: real time      0.0075
    SETDIJ:  cpu time      0.3217: real time      0.3225
     EDDAV:  cpu time      0.2567: real time      0.2573
 BZINTS: Fermi energy:    1.242534;  192.000000 electrons
         Band energy:-0.940698E+03;  BLOECHL correction:    0.000000
       DOS:  cpu time      0.0011: real time      0.0011
    CHARGE:  cpu time      0.0427: real time      0.0429
    MIXING:  cpu time      0.0150: real time      0.0150
    --------------------------------------------
      LOOP:  cpu time      0.6443: real time      0.6463

 eigenvalue-minimisations  :  1088
 total energy-change (2. order) :-0.7733578E-03  (-0.6828536E-04)
 number of electron     192.0000105 magnetization 
 augmentation part      -26.8629431 magnetization 

 Broyden mixing:
  rms(total) = 0.72148E-02    rms(broyden)= 0.72147E-02
  rms(prec ) = 0.79262E-02
  weight for this iteration     100.00

 eigenvalues of (default mixing * dielectric matrix)
  average eigenvalue GAMMA=   1.6189
  2.3623  2.3623  0.9921  1.1890  1.1890

 Free energy of the ion-electron system (eV)
  ---------------------------------------------------
  alpha Z        PSCENC =       174.14296888
  Ewald energy   TEWEN  =     -6600.59752573
  -Hartree energ DENC   =     -2115.29297441
  -exchange      EXHF   =         0.00000000
  -V(xc)+E(xc)   XCENC  =       401.53334791
  PAW double counting   =     22666.24936901   -22558.15893387
  entropy T*S    EENTRO =         0.00000000
  eigenvalues    EBANDS =      -940.69792126
  atomic energy  EATOM  =      8832.36675497
  Solvation  Ediel_sol  =         0.00000000
  ---------------------------------------------------
  free energy    TOTEN  =      -140.45491449 eV

  energy without entropy =     -140.45491449  energy(sigma->0) =     -140.45491449


--------------------------------------------------------------------------------------------------------




--------------------------------------- Iteration      1(  11)  ---------------------------------------


    POTLOK:  cpu time      0.0071: real time      0.0073
    SETDIJ:  cpu time      0.3214: real time      0.3224
     EDDAV:  cpu time      0.2813: real time      0.2820
 BZINTS: Fermi energy:    1.229862;  192.000000 electrons
         Band energy:-0.940710E+03;  BLOECHL correction:    0.000000
       DOS:  cpu time      0.0011: real time      0.0011
    CHARGE:  cpu time      0.0428: real time      0.0429
    MIXING:  cpu time      0.0155: real time      0.0155
    --------------------------------------------
      LOOP:  cpu time      0.6691: real time      0.6712

 eigenvalue-minimisations  :  1232
 total energy-change (2. order) :-0.1900721E-03  (-0.2209306E-04)
 number of electron     192.0000105 magnetization 
 augmentation part      -26.8641840 magnetization 

 Broyden mixing:
  rms(total) = 0.36226E-02    rms(broyden)= 0.36226E-02
  rms(prec ) = 0.40409E-02
  weight for this iteration     100.00

 eigenvalues of (default mixing * dielectric matrix)
  average eigenvalue GAMMA=   1.5701
  2.3434  2.3434  1.4305  1.4305  0.9365  0.9365

 Free energy of the ion-electron system (eV)
  ---------------------------------------------------
  alpha Z        PSCENC =       174.14296888
  Ewald energy   TEWEN  =     -6600.59752573
  -Hartree energ DENC   =     -2115.29136740
  -exchange      EXHF   =         0.00000000
  -V(xc)+E(xc)   XCENC  =       401.52877418
  PAW double counting   =     22643.31843628   -22535.21325047
  entropy T*S    EENTRO =         0.00000000
  eigenvalues    EBANDS =      -940.70989527
  atomic energy  EATOM  =      8832.36675497
  Solvation  Ediel_sol  =         0.00000000
  ---------------------------------------------------
  free energy    TOTEN  =      -140.45510456 eV

  energy without entropy =     -140.45510456  energy(sigma->0) =     -140.45510456


--------------------------------------------------------------------------------------------------------




--------------------------------------- Iteration      1(  12)  ---------------------------------------


    POTLOK:  cpu time      0.0070: real time      0.0074
    SETDIJ:  cpu time      0.3209: real time      0.3217
     EDDAV:  cpu time      0.2612: real time      0.2619
 BZINTS: Fermi energy:    1.217904;  192.000000 electrons
         Band energy:-0.940637E+03;  BLOECHL correction:    0.000000
       DOS:  cpu time      0.0011: real time      0.0011
    CHARGE:  cpu time      0.0426: real time      0.0427
    MIXING:  cpu time      0.0157: real time      0.0157
    --------------------------------------------
      LOOP:  cpu time      0.6485: real time      0.6504

 eigenvalue-minimisations  :  1112
 total energy-change (2. order) :-0.4642015E-04  (-0.2925213E-05)
 number of electron     192.0000105 magnetization 
 augmentation part      -26.8640264 magnetization 

 Broyden mixing:
  rms(total) = 0.18931E-02    rms(broyden)= 0.18931E-02
  rms(prec ) = 0.22153E-02
  weight for this iteration     100.00

 eigenvalues of (default mixing * dielectric matrix)
  average eigenvalue GAMMA=   1.6312
  2.6064  2.3827  1.7093  1.7093  0.9021  1.0543  1.0543

 Free energy of the ion-electron system (eV)
  ---------------------------------------------------
  alpha Z        PSCENC =       174.14296888
  Ewald energy   TEWEN  =     -6600.59752573
  -Hartree energ DENC   =     -2115.37054944
  -exchange      EXHF   =         0.00000000
  -V(xc)+E(xc)   XCENC  =       401.53512203
  PAW double counting   =     22642.94462870   -22534.83938985
  entropy T*S    EENTRO =         0.00000000
  eigenvalues    EBANDS =      -940.63716054
  atomic energy  EATOM  =      8832.36675497
  Solvation  Ediel_sol  =         0.00000000
  ---------------------------------------------------
  free energy    TOTEN  =      -140.45515098 eV

  energy without entropy =     -140.45515098  energy(sigma->0) =     -140.45515098


--------------------------------------------------------------------------------------------------------




--------------------------------------- Iteration      1(  13)  ---------------------------------------


    POTLOK:  cpu time      0.0070: real time      0.0073
    SETDIJ:  cpu time      0.3208: real time      0.3216
     EDDAV:  cpu time      0.2595: real time      0.2602
 BZINTS: Fermi energy:    1.262769;  192.000000 electrons
         Band energy:-0.940543E+03;  BLOECHL correction:    0.000000
       DOS:  cpu time      0.0013: real time      0.0013
    CHARGE:  cpu time      0.0539: real time      0.0540
    MIXING:  cpu time      0.0207: real time      0.0208
    --------------------------------------------
      LOOP:  cpu time      0.6632: real time      0.6652

 eigenvalue-minimisations  :  1072
 total energy-change (2. order) :-0.3459948E-04  (-0.2655387E-05)
 number of electron     192.0000105 magnetization 
 augmentation part      -26.8638350 magnetization 

 Broyden mixing:
  rms(total) = 0.12717E-02    rms(broyden)= 0.12717E-02
  rms(prec ) = 0.13431E-02
  weight for this iteration     100.00

 eigenvalues of (default mixing * dielectric matrix)
  average eigenvalue GAMMA=   1.5929
  2.5558  2.5558  1.9112  1.4539  1.1736  1.1736  0.9595  0.9595

 Free energy of the ion-electron system (eV)
  ---------------------------------------------------
  alpha Z        PSCENC =       174.14296888
  Ewald energy   TEWEN  =     -6600.59752573
  -Hartree energ DENC   =     -2115.47384277
  -exchange      EXHF   =         0.00000000
  -V(xc)+E(xc)   XCENC  =       401.54274226
  PAW double counting   =     22644.74682686   -22536.64046048
  entropy T*S    EENTRO =         0.00000000
  eigenvalues    EBANDS =      -940.54264956
  atomic energy  EATOM  =      8832.36675497
  Solvation  Ediel_sol  =         0.00000000
  ---------------------------------------------------
  free energy    TOTEN  =      -140.45518558 eV

  energy without entropy =     -140.45518558  energy(sigma->0) =     -140.45518558


--------------------------------------------------------------------------------------------------------




--------------------------------------- Iteration      1(  14)  ---------------------------------------


    POTLOK:  cpu time      0.0090: real time      0.0094
    SETDIJ:  cpu time      0.3220: real time      0.3228
     EDDAV:  cpu time      0.2854: real time      0.2862
 BZINTS: Fermi energy:    1.252040;  192.000000 electrons
         Band energy:-0.940504E+03;  BLOECHL correction:    0.000000
       DOS:  cpu time      0.0013: real time      0.0013
    CHARGE:  cpu time      0.0539: real time      0.0540
    MIXING:  cpu time      0.0217: real time      0.0217
    --------------------------------------------
      LOOP:  cpu time      0.6932: real time      0.6955

 eigenvalue-minimisations  :  1184
 total energy-change (2. order) :-0.5085526E-05  (-0.4702402E-06)
 number of electron     192.0000105 magnetization 
 augmentation part      -26.8636622 magnetization 

 Broyden mixing:
  rms(total) = 0.74964E-03    rms(broyden)= 0.74964E-03
  rms(prec ) = 0.78911E-03
  weight for this iteration     100.00

 eigenvalues of (default mixing * dielectric matrix)
  average eigenvalue GAMMA=   1.5991
  2.7541  2.4424  1.7471  1.7471  1.4308  1.4308  0.8913  0.9741  0.9741

 Free energy of the ion-electron system (eV)
  ---------------------------------------------------
  alpha Z        PSCENC =       174.14296888
  Ewald energy   TEWEN  =     -6600.59752573
  -Hartree energ DENC   =     -2115.51499208
  -exchange      EXHF   =         0.00000000
  -V(xc)+E(xc)   XCENC  =       401.54544778
  PAW double counting   =     22641.08779833   -22532.98199398
  entropy T*S    EENTRO =         0.00000000
  eigenvalues    EBANDS =      -940.50364883
  atomic energy  EATOM  =      8832.36675497
  Solvation  Ediel_sol  =         0.00000000
  ---------------------------------------------------
  free energy    TOTEN  =      -140.45519067 eV

  energy without entropy =     -140.45519067  energy(sigma->0) =     -140.45519067


--------------------------------------------------------------------------------------------------------




--------------------------------------- Iteration      1(  15)  ---------------------------------------


    POTLOK:  cpu time      0.0091: real time      0.0094
    SETDIJ:  cpu time      0.3220: real time      0.3228
     EDDAV:  cpu time      0.2591: real time      0.2598
 BZINTS: Fermi energy:    1.242085;  192.000000 electrons
         Band energy:-0.940494E+03;  BLOECHL correction:    0.000000
       DOS:  cpu time      0.0012: real time      0.0012
    CHARGE:  cpu time      0.0426: real time      0.0427
    MIXING:  cpu time      0.0171: real time      0.0171
    --------------------------------------------
      LOOP:  cpu time      0.6511: real time      0.6530

 eigenvalue-minimisations  :  1080
 total energy-change (2. order) :-0.3561418E-06  (-0.9013508E-07)
 number of electron     192.0000105 magnetization 
 augmentation part      -26.8636435 magnetization 

 Broyden mixing:
  rms(total) = 0.30393E-03    rms(broyden)= 0.30393E-03
  rms(prec ) = 0.32889E-03
  weight for this iteration     100.00

 eigenvalues of (default mixing * dielectric matrix)
  average eigenvalue GAMMA=   1.6100
  2.5484  2.5484  1.9888  1.9888  1.5609  1.5609  1.0442  1.0442  0.9076  0.9076

 Free energy of the ion-electron system (eV)
  ---------------------------------------------------
  alpha Z        PSCENC =       174.14296888
  Ewald energy   TEWEN  =     -6600.59752573
  -Hartree energ DENC   =     -2115.52488963
  -exchange      EXHF   =         0.00000000
  -V(xc)+E(xc)   XCENC  =       401.54614123
  PAW double counting   =     22641.44770985   -22533.34191597
  entropy T*S    EENTRO =         0.00000000
  eigenvalues    EBANDS =      -940.49443462
  atomic energy  EATOM  =      8832.36675497
  Solvation  Ediel_sol  =         0.00000000
  ---------------------------------------------------
  free energy    TOTEN  =      -140.45519102 eV

  energy without entropy =     -140.45519102  energy(sigma->0) =     -140.45519102


--------------------------------------------------------------------------------------------------------




--------------------------------------- Iteration      1(  16)  ---------------------------------------


    POTLOK:  cpu time      0.0071: real time      0.0074
    SETDIJ:  cpu time      0.3208: real time      0.3216
     EDDAV:  cpu time      0.2528: real time      0.2534
 BZINTS: Fermi energy:    1.251687;  192.000000 electrons
         Band energy:-0.940488E+03;  BLOECHL correction:    0.000000
       DOS:  cpu time      0.0011: real time      0.0011
    CHARGE:  cpu time      0.0424: real time      0.0426
    MIXING:  cpu time      0.0179: real time      0.0179
    --------------------------------------------
      LOOP:  cpu time      0.6421: real time      0.6440

 eigenvalue-minimisations  :  1072
 total energy-change (2. order) :-0.3955147E-06  (-0.5679695E-07)
 number of electron     192.0000105 magnetization 
 augmentation part      -26.8636280 magnetization 

 Broyden mixing:
  rms(total) = 0.18873E-03    rms(broyden)= 0.18873E-03
  rms(prec ) = 0.20022E-03
  weight for this iteration     100.00

 eigenvalues of (default mixing * dielectric matrix)
  average eigenvalue GAMMA=   1.5738
  2.9227  2.5168  2.0051  2.0051  1.5335  1.5335  1.0287  1.0382  1.0382  0.8450
  0.8450

 Free energy of the ion-electron system (eV)
  ---------------------------------------------------
  alpha Z        PSCENC =       174.14296888
  Ewald energy   TEWEN  =     -6600.59752573
  -Hartree energ DENC   =     -2115.53137397
  -exchange      EXHF   =         0.00000000
  -V(xc)+E(xc)   XCENC  =       401.54664634
  PAW double counting   =     22641.15926270   -22533.05355606
  entropy T*S    EENTRO =         0.00000000
  eigenvalues    EBANDS =      -940.48836855
  atomic energy  EATOM  =      8832.36675497
  Solvation  Ediel_sol  =         0.00000000
  ---------------------------------------------------
  free energy    TOTEN  =      -140.45519142 eV

  energy without entropy =     -140.45519142  energy(sigma->0) =     -140.45519142


--------------------------------------------------------------------------------------------------------




--------------------------------------- Iteration      1(  17)  ---------------------------------------


    POTLOK:  cpu time      0.0071: real time      0.0074
    SETDIJ:  cpu time      0.3210: real time      0.3218
     EDDAV:  cpu time      0.1895: real time      0.1900
 BZINTS: Fermi energy:    1.243589;  192.000000 electrons
         Band energy:-0.940487E+03;  BLOECHL correction:    0.000000
       DOS:  cpu time      0.0011: real time      0.0011
    --------------------------------------------
      LOOP:  cpu time      0.5186: real time      0.5202

 eigenvalue-minimisations  :   688
 total energy-change (2. order) : 0.4257436E-07  (-0.5448625E-08)
 number of electron     192.0000105 magnetization 
 augmentation part      -26.8636280 magnetization 

 Free energy of the ion-electron system (eV)
  ---------------------------------------------------
  alpha Z        PSCENC =       174.14296888
  Ewald energy   TEWEN  =     -6600.59752573
  -Hartree energ DENC   =     -2115.53306121
  -exchange      EXHF   =         0.00000000
  -V(xc)+E(xc)   XCENC  =       401.54677324
  PAW double counting   =     22641.31886467   -22533.21303711
  entropy T*S    EENTRO =         0.00000000
  eigenvalues    EBANDS =      -940.48692910
  atomic energy  EATOM  =      8832.36675497
  Solvation  Ediel_sol  =         0.00000000
  ---------------------------------------------------
  free energy    TOTEN  =      -140.45519138 eV

  energy without entropy =     -140.45519138  energy(sigma->0) =     -140.45519138


--------------------------------------------------------------------------------------------------------




 average (electrostatic) potential at core
  the test charge radii are     0.9698
  (the norm of the test charge is              1.0000)
       1 -90.3845       2 -90.3845       3 -90.3859       4 -90.3846       5 -90.3852
       6 -90.3844       7 -90.3840       8 -90.3847       9 -90.4148      10 -90.4159
      11 -90.4159      12 -90.4145      13 -90.4146      14 -90.4149      15 -90.4141
      16 -90.4149      17 -90.4427      18 -90.4430      19 -90.4431      20 -90.4424
      21 -90.4416      22 -90.4428      23 -90.4418      24 -90.4418      25 -90.4492
      26 -90.4488      27 -90.4496      28 -90.4510      29 -90.4497      30 -90.4506
      31 -90.4509      32 -90.4490
 
 
 
 E-fermi :   1.2436     XC(G=0):  -8.0138     alpha+bet : -7.3788

 val. band max:        1.2172456817   @ k =  -0.2500   0.2500   0.2500
 cond. band min:       3.6358089993   @ k =  -0.2500  -0.2500   0.2500
 fundamental gap:      2.4185633176
 Fermi energy:         1.2435888462

 k-point     1 :       0.2500    0.2500    0.2500
  band No.  band energies     occupation 
      1     -14.9556      2.00000
      2     -14.9552      2.00000
      3     -14.9044      2.00000
      4     -14.9042      2.00000
      5     -14.1621      2.00000
      6     -14.1615      2.00000
      7     -14.1142      2.00000
      8     -14.1136      2.00000
      9     -14.0944      2.00000
     10     -14.0936      2.00000
     11     -14.0755      2.00000
     12     -14.0746      2.00000
     13     -12.0204      2.00000
     14     -12.0200      2.00000
     15     -11.9792      2.00000
     16     -11.9789      2.00000
     17     -11.9549      2.00000
     18     -11.9541      2.00000
     19     -11.9308      2.00000
     20     -11.9303      2.00000
     21      -9.1053      2.00000
     22      -9.1046      2.00000
     23      -9.0749      2.00000
     24      -9.0745      2.00000
     25      -9.0384      2.00000
     26      -9.0381      2.00000
     27      -9.0207      2.00000
     28      -9.0198      2.00000
     29      -7.1948      2.00000
     30      -7.1941      2.00000
     31      -6.9246      2.00000
     32      -6.9237      2.00000
     33      -4.8572      2.00000
     34      -4.8566      2.00000
     35      -4.8281      2.00000
     36      -4.8274      2.00000
     37      -4.3856      2.00000
     38      -4.3851      2.00000
     39      -4.1919      2.00000
     40      -4.1912      2.00000
     41      -4.0286      2.00000
     42      -4.0275      2.00000
     43      -3.9854      2.00000
     44      -3.9834      2.00000
     45      -3.4527      2.00000
     46      -3.4516      2.00000
     47      -3.3178      2.00000
     48      -3.3171      2.00000
     49      -2.7297      2.00000
     50      -2.7286      2.00000
     51      -2.6254      2.00000
     52      -2.6238      2.00000
     53      -2.5833      2.00000
     54      -2.5826      2.00000
     55      -2.5046      2.00000
     56      -2.5030      2.00000
     57      -2.3677      2.00000
     58      -2.3673      2.00000
     59      -2.3012      2.00000
     60      -2.2995      2.00000
     61      -2.2962      2.00000
     62      -2.2947      2.00000
     63      -2.0608      2.00000
     64      -2.0584      2.00000
     65      -1.5628      2.00000
     66      -1.5615      2.00000
     67      -1.2583      2.00000
     68      -1.2578      2.00000
     69      -0.1548      2.00000
     70      -0.1538      2.00000
     71      -0.1160      2.00000
     72      -0.1148      2.00000
     73      -0.0157      2.00000
     74      -0.0146      2.00000
     75       0.0538      2.00000
     76       0.0554      2.00000
     77       0.1400      2.00000
     78       0.1414      2.00000
     79       0.2133      2.00000
     80       0.2150      2.00000
     81       0.3152      2.00000
     82       0.3162      2.00000
     83       0.3657      2.00000
     84       0.3673      2.00000
     85       0.4372      2.00000
     86       0.4393      2.00000
     87       0.4838      2.00000
     88       0.4860      2.00000
     89       0.5792      2.00000
     90       0.5808      2.00000
     91       0.6551      2.00000
     92       0.6564      2.00000
     93       0.6814      2.00000
     94       0.6828      2.00000
     95       1.0660      2.00000
     96       1.0668      2.00000
     97       3.6847      0.00000
     98       3.6856      0.00000
     99       3.9353      0.00000
    100       3.9369      0.00000
    101       4.0385      0.00000
    102       4.0407      0.00000
    103       4.1763      0.00000
    104       4.1770      0.00000
    105       4.3155      0.00000
    106       4.3167      0.00000
    107       4.5496      0.00000
    108       4.5512      0.00000
    109       4.8733      0.00000
    110       4.8743      0.00000
    111       5.0152      0.00000
    112       5.0179      0.00000
    113       5.1092      0.00000
    114       5.1114      0.00000
    115       5.2633      0.00000

 k-point     2 :      -0.2500    0.2500    0.2500
  band No.  band energies     occupation 
      1     -14.9917      2.00000
      2     -14.9284      2.00000
      3     -14.8984      2.00000
      4     -14.8975      2.00000
      5     -14.1659      2.00000
      6     -14.1551      2.00000
      7     -14.1392      2.00000
      8     -14.1076      2.00000
      9     -14.0992      2.00000
     10     -14.0829      2.00000
     11     -14.0801      2.00000
     12     -14.0626      2.00000
     13     -12.0212      2.00000
     14     -12.0139      2.00000
     15     -12.0046      2.00000
     16     -11.9877      2.00000
     17     -11.9516      2.00000
     18     -11.9471      2.00000
     19     -11.9234      2.00000
     20     -11.9198      2.00000
     21      -9.1303      2.00000
     22      -9.0957      2.00000
     23      -9.0755      2.00000
     24      -9.0743      2.00000
     25      -9.0398      2.00000
     26      -9.0359      2.00000
     27      -9.0216      2.00000
     28      -9.0027      2.00000
     29      -7.2912      2.00000
     30      -7.0933      2.00000
     31      -6.9435      2.00000
     32      -6.8882      2.00000
     33      -4.8951      2.00000
     34      -4.8414      2.00000
     35      -4.8262      2.00000
     36      -4.8099      2.00000
     37      -4.4189      2.00000
     38      -4.3119      2.00000
     39      -4.2521      2.00000
     40      -4.2020      2.00000
     41      -4.1491      2.00000
     42      -4.1053      2.00000
     43      -3.9790      2.00000
     44      -3.8407      2.00000
     45      -3.5512      2.00000
     46      -3.3271      2.00000
     47      -3.3092      2.00000
     48      -3.1870      2.00000
     49      -2.8758      2.00000
     50      -2.7546      2.00000
     51      -2.7087      2.00000
     52      -2.6120      2.00000
     53      -2.5962      2.00000
     54      -2.5476      2.00000
     55      -2.5276      2.00000
     56      -2.4731      2.00000
     57      -2.3861      2.00000
     58      -2.3561      2.00000
     59      -2.3149      2.00000
     60      -2.2376      2.00000
     61      -2.2214      2.00000
     62      -2.1792      2.00000
     63      -2.1407      2.00000
     64      -2.0114      2.00000
     65      -1.6115      2.00000
     66      -1.5674      2.00000
     67      -1.3228      2.00000
     68      -1.2626      2.00000
     69      -0.2551      2.00000
     70      -0.2207      2.00000
     71      -0.1563      2.00000
     72      -0.0911      2.00000
     73      -0.0541      2.00000
     74       0.0362      2.00000
     75       0.1182      2.00000
     76       0.1326      2.00000
     77       0.1372      2.00000
     78       0.1635      2.00000
     79       0.2147      2.00000
     80       0.2220      2.00000
     81       0.2929      2.00000
     82       0.3428      2.00000
     83       0.3642      2.00000
     84       0.3824      2.00000
     85       0.4435      2.00000
     86       0.4913      2.00000
     87       0.4996      2.00000
     88       0.5203      2.00000
     89       0.5471      2.00000
     90       0.6009      2.00000
     91       0.6116      2.00000
     92       0.6491      2.00000
     93       0.6596      2.00000
     94       0.7069      2.00000
     95       1.0226      2.00000
     96       1.2172      2.00000
     97       3.7230      0.00000
     98       3.8057      0.00000
     99       3.8371      0.00000
    100       3.8472      0.00000
    101       3.9315      0.00000
    102       3.9543      0.00000
    103       4.0354      0.00000
    104       4.1213      0.00000
    105       4.2583      0.00000
    106       4.3327      0.00000
    107       4.5179      0.00000
    108       4.6266      0.00000
    109       4.7997      0.00000
    110       4.8659      0.00000
    111       4.9359      0.00000
    112       5.0487      0.00000
    113       5.1521      0.00000
    114       5.2366      0.00000
    115       5.3321      0.00000

 k-point     3 :       0.2500   -0.2500    0.2500
  band No.  band energies     occupation 
      1     -14.9916      2.00000
      2     -14.9287      2.00000
      3     -14.8984      2.00000
      4     -14.8973      2.00000
      5     -14.1657      2.00000
      6     -14.1549      2.00000
      7     -14.1396      2.00000
      8     -14.1072      2.00000
      9     -14.0995      2.00000
     10     -14.0825      2.00000
     11     -14.0804      2.00000
     12     -14.0628      2.00000
     13     -12.0211      2.00000
     14     -12.0138      2.00000
     15     -12.0044      2.00000
     16     -11.9882      2.00000
     17     -11.9519      2.00000
     18     -11.9467      2.00000
     19     -11.9231      2.00000
     20     -11.9201      2.00000
     21      -9.1308      2.00000
     22      -9.0952      2.00000
     23      -9.0762      2.00000
     24      -9.0740      2.00000
     25      -9.0397      2.00000
     26      -9.0368      2.00000
     27      -9.0209      2.00000
     28      -9.0022      2.00000
     29      -7.2908      2.00000
     30      -7.0943      2.00000
     31      -6.9428      2.00000
     32      -6.8883      2.00000
     33      -4.8954      2.00000
     34      -4.8409      2.00000
     35      -4.8265      2.00000
     36      -4.8098      2.00000
     37      -4.4180      2.00000
     38      -4.3151      2.00000
     39      -4.2512      2.00000
     40      -4.2033      2.00000
     41      -4.1483      2.00000
     42      -4.1023      2.00000
     43      -3.9789      2.00000
     44      -3.8418      2.00000
     45      -3.5508      2.00000
     46      -3.3281      2.00000
     47      -3.3084      2.00000
     48      -3.1869      2.00000
     49      -2.8771      2.00000
     50      -2.7544      2.00000
     51      -2.7086      2.00000
     52      -2.6139      2.00000
     53      -2.5969      2.00000
     54      -2.5452      2.00000
     55      -2.5263      2.00000
     56      -2.4736      2.00000
     57      -2.3842      2.00000
     58      -2.3552      2.00000
     59      -2.3169      2.00000
     60      -2.2383      2.00000
     61      -2.2219      2.00000
     62      -2.1789      2.00000
     63      -2.1390      2.00000
     64      -2.0128      2.00000
     65      -1.6117      2.00000
     66      -1.5678      2.00000
     67      -1.3239      2.00000
     68      -1.2622      2.00000
     69      -0.2510      2.00000
     70      -0.2203      2.00000
     71      -0.1575      2.00000
     72      -0.0938      2.00000
     73      -0.0533      2.00000
     74       0.0370      2.00000
     75       0.1182      2.00000
     76       0.1301      2.00000
     77       0.1356      2.00000
     78       0.1644      2.00000
     79       0.2152      2.00000
     80       0.2236      2.00000
     81       0.2936      2.00000
     82       0.3437      2.00000
     83       0.3650      2.00000
     84       0.3845      2.00000
     85       0.4399      2.00000
     86       0.4918      2.00000
     87       0.5003      2.00000
     88       0.5171      2.00000
     89       0.5477      2.00000
     90       0.6019      2.00000
     91       0.6127      2.00000
     92       0.6491      2.00000
     93       0.6597      2.00000
     94       0.7035      2.00000
     95       1.0256      2.00000
     96       1.2156      2.00000
     97       3.7219      0.00000
     98       3.8059      0.00000
     99       3.8365      0.00000
    100       3.8472      0.00000
    101       3.9293      0.00000
    102       3.9526      0.00000
    103       4.0375      0.00000
    104       4.1274      0.00000
    105       4.2569      0.00000
    106       4.3336      0.00000
    107       4.5168      0.00000
    108       4.6260      0.00000
    109       4.7976      0.00000
    110       4.8677      0.00000
    111       4.9353      0.00000
    112       5.0501      0.00000
    113       5.1524      0.00000
    114       5.2336      0.00000
    115       5.3052      0.00000

 k-point     4 :      -0.2500   -0.2500    0.2500
  band No.  band energies     occupation 
      1     -14.9892      2.00000
      2     -14.9185      2.00000
      3     -14.9127      2.00000
      4     -14.8944      2.00000
      5     -14.1685      2.00000
      6     -14.1676      2.00000
      7     -14.1518      2.00000
      8     -14.1081      2.00000
      9     -14.0892      2.00000
     10     -14.0865      2.00000
     11     -14.0621      2.00000
     12     -14.0605      2.00000
     13     -12.0101      2.00000
     14     -12.0014      2.00000
     15     -11.9834      2.00000
     16     -11.9813      2.00000
     17     -11.9729      2.00000
     18     -11.9677      2.00000
     19     -11.9310      2.00000
     20     -11.9202      2.00000
     21      -9.1537      2.00000
     22      -9.1192      2.00000
     23      -9.1032      2.00000
     24      -9.0583      2.00000
     25      -9.0547      2.00000
     26      -9.0117      2.00000
     27      -8.9994      2.00000
     28      -8.9711      2.00000
     29      -7.2176      2.00000
     30      -7.1512      2.00000
     31      -7.0158      2.00000
     32      -6.8589      2.00000
     33      -4.8961      2.00000
     34      -4.8655      2.00000
     35      -4.8105      2.00000
     36      -4.7982      2.00000
     37      -4.3478      2.00000
     38      -4.3464      2.00000
     39      -4.2884      2.00000
     40      -4.1691      2.00000
     41      -4.0976      2.00000
     42      -3.9980      2.00000
     43      -3.9745      2.00000
     44      -3.9420      2.00000
     45      -3.6175      2.00000
     46      -3.3711      2.00000
     47      -3.3155      2.00000
     48      -3.0027      2.00000
     49      -2.8389      2.00000
     50      -2.8139      2.00000
     51      -2.7129      2.00000
     52      -2.6732      2.00000
     53      -2.6508      2.00000
     54      -2.6266      2.00000
     55      -2.5113      2.00000
     56      -2.4617      2.00000
     57      -2.4462      2.00000
     58      -2.4164      2.00000
     59      -2.3089      2.00000
     60      -2.2586      2.00000
     61      -2.1704      2.00000
     62      -2.1651      2.00000
     63      -2.0829      2.00000
     64      -2.0320      2.00000
     65      -1.5683      2.00000
     66      -1.4741      2.00000
     67      -1.3340      2.00000
     68      -1.2770      2.00000
     69      -0.2197      2.00000
     70      -0.1228      2.00000
     71      -0.1005      2.00000
     72      -0.0880      2.00000
     73      -0.0637      2.00000
     74      -0.0536      2.00000
     75       0.0519      2.00000
     76       0.0614      2.00000
     77       0.0800      2.00000
     78       0.1570      2.00000
     79       0.2553      2.00000
[...]
     43      -3.4092      2.00000
     44      -3.3919      2.00000
     45      -3.1678      2.00000
     46      -2.8659      2.00000
     47      -2.8059      2.00000
     48      -2.4451      2.00000
     49      -2.3968      2.00000
     50      -2.3949      2.00000
     51      -2.2260      2.00000
     52      -2.2197      2.00000
     53      -2.1698      2.00000
     54      -2.1667      2.00000
     55      -2.0160      2.00000
     56      -1.9224      2.00000
     57      -1.8888      2.00000
     58      -1.8779      2.00000
     59      -1.7726      2.00000
     60      -1.7006      2.00000
     61      -1.5926      2.00000
     62      -1.5772      2.00000
     63      -1.4694      2.00000
     64      -1.3853      2.00000
     65      -1.0446      2.00000
     66      -0.9265      2.00000
     67      -0.7999      2.00000
     68      -0.7259      2.00000
     69       0.2211      2.00000
     70       0.3174      2.00000
     71       0.3525      2.00000
     72       0.4192      2.00000
     73       0.4445      2.00000
     74       0.4572      2.00000
     75       0.5189      2.00000
     76       0.5494      2.00000
     77       0.5844      2.00000
     78       0.6531      2.00000
     79       0.8105      2.00000
     80       0.8392      2.00000
     81       0.8602      2.00000
     82       0.8688      2.00000
     83       0.9125      2.00000
     84       0.9822      2.00000
     85       1.0239      2.00000
     86       1.0264      2.00000
     87       1.0335      2.00000
     88       1.1023      2.00000
     89       1.1177      2.00000
     90       1.1188      2.00000
     91       1.1337      2.00000
     92       1.1524      2.00000
     93       1.2278      2.00000
     94       1.2282      2.00000
     95       1.6405      2.00000
     96       1.6528      2.00000
     97       4.0945      0.00000
     98       4.1137      0.00000
     99       4.1919      0.00000
    100       4.4397      0.00000
    101       4.5216      0.00000
    102       4.5358      0.00000
    103       4.5849      0.00000
    104       4.9474      0.00000
    105       4.9500      0.00000
    106       4.9627      0.00000
    107       5.0058      0.00000
    108       5.2486      0.00000
    109       5.2950      0.00000
    110       5.4246      0.00000
    111       5.4390      0.00000
    112       5.5477      0.00000
    113       5.6241      0.00000
    114       5.6394      0.00000
    115       5.7815      0.00000


--------------------------------------------------------------------------------------------------------


 soft charge-density along one line, spin component            1
         0         1         2         3         4         5         6         7         8         9
 total charge-density along one line
 
 pseudopotential strength for first ion, spin component:            1
 40.486  46.498   0.068   0.051  -0.021   0.092   0.069  -0.029
 46.498  53.404   0.078   0.058  -0.024   0.106   0.079  -0.033
  0.068   0.078   8.338   0.014  -0.006  11.299   0.019  -0.008
  0.051   0.058   0.014   8.340   0.012   0.019  11.302   0.016
 -0.021  -0.024  -0.006   0.012   8.364  -0.008   0.016  11.334
  0.092   0.106  11.299   0.019  -0.008  15.331   0.025  -0.010
  0.069   0.079   0.019  11.302   0.016   0.025  15.335   0.022
 -0.029  -0.033  -0.008   0.016  11.334  -0.010   0.022  15.378
 total augmentation occupancy for first ion, spin component:            1
 17.857 -13.973   4.596   3.122  -1.316  -1.882  -1.231   0.519
-13.973  12.277  -4.076  -2.781   1.171   1.561   1.022  -0.431
  4.596  -4.076   3.173   0.550  -0.242  -0.855  -0.391   0.169
  3.122  -2.781   0.550   3.101   0.691  -0.390  -0.829  -0.470
 -1.316   1.171  -0.242   0.691   4.483   0.169  -0.470  -1.764
 -1.882   1.561  -0.855  -0.390   0.169   0.360   0.160  -0.071
 -1.231   1.022  -0.391  -0.829  -0.470   0.160   0.336   0.230
  0.519  -0.431   0.169  -0.470  -1.764  -0.071   0.230   0.794


------------------------ aborting loop because EDIFF is reached ----------------------------------------





 total charge

# of ion       s       p       d       tot
------------------------------------------
    1        1.374   2.243   0.000   3.617
    2        1.374   2.243   0.000   3.617
    3        1.374   2.243   0.000   3.617
    4        1.374   2.242   0.000   3.617
    5        1.374   2.243   0.000   3.617
    6        1.374   2.243   0.000   3.617
    7        1.374   2.243   0.000   3.617
    8        1.374   2.243   0.000   3.617
    9        1.371   2.247   0.000   3.618
   10        1.371   2.247   0.000   3.618
   11        1.371   2.247   0.000   3.618
   12        1.371   2.247   0.000   3.618
   13        1.371   2.247   0.000   3.618
   14        1.371   2.247   0.000   3.618
   15        1.371   2.247   0.000   3.618
   16        1.371   2.247   0.000   3.618
   17        1.371   2.247   0.000   3.618
   18        1.371   2.247   0.000   3.618
   19        1.371   2.247   0.000   3.618
   20        1.371   2.247   0.000   3.618
   21        1.371   2.247   0.000   3.618
   22        1.371   2.247   0.000   3.618
   23        1.371   2.247   0.000   3.618
   24        1.371   2.247   0.000   3.618
   25        1.372   2.245   0.000   3.617
   26        1.372   2.245   0.000   3.617
   27        1.372   2.245   0.000   3.617
   28        1.372   2.245   0.000   3.617
   29        1.372   2.245   0.000   3.617
   30        1.372   2.245   0.000   3.617
   31        1.372   2.245   0.000   3.617
   32        1.372   2.245   0.000   3.617
--------------------------------------------------
tot         43.905  71.851   0.000 115.756
 
    CHARGE:  cpu time      0.0665: real time      0.0667
    FORLOC:  cpu time      0.0017: real time      0.0017
    FORNL :  cpu time      0.1541: real time      0.1545
    STRESS:  cpu time      0.6731: real time      0.6752
    FORCOR:  cpu time      0.0086: real time      0.0086
    FORHAR:  cpu time      0.0015: real time      0.0015
    MIXING:  cpu time      0.0162: real time      0.0163
    OFIELD:  cpu time      0.0000: real time      0.0000

  FORCE on cell =-STRESS in cart. coord.  units (eV):
  Direction    XX          YY          ZZ          XY          YZ          ZX
  --------------------------------------------------------------------------------------
  Alpha Z   187.06862   187.06862   187.06862
  Ewald   -2561.23056 -2629.03098 -1770.62464  -158.64428     0.58585    -0.90489
  Hartree   513.56032   485.22459   871.45039   -66.05636     0.31133    -0.49860
  E(xc)    -662.41884  -662.56176  -660.98352    -0.33628     0.00095    -0.00134
  Local   -1827.43257 -1739.33571 -2888.39899   205.81657    -0.86156     1.35091
  n-local  2325.34323  2326.53521  2311.24203     2.80902    -0.00520     0.00634
  augment  -571.87078  -572.66695  -563.02962    -1.86859     0.00374    -0.00396
  Kinetic  2597.00955  2604.79322  2513.31866    18.27652    -0.03470     0.05062
  Fock        0.00000     0.00000     0.00000     0.00000     0.00000     0.00000
  -------------------------------------------------------------------------------------
  Total       0.02897     0.02624     0.04293    -0.00339     0.00041    -0.00093
  in kB       0.05618     0.05087     0.08324    -0.00658     0.00080    -0.00181
  external pressure =        0.06 kB  Pullay stress =        0.00 kB


 VOLUME and BASIS-vectors are now :
 -----------------------------------------------------------------------------
  energy-cutoff  :      400.00
  volume of cell :      826.27
      direct lattice vectors                 reciprocal lattice vectors
     8.333699976  0.044393497  0.002041158     0.119852771  0.024751833  0.041224395
    -1.684880405  8.161903645 -0.002049592    -0.000662078  0.122394104  0.041182561
    -3.326779626 -4.100874789 12.134269726    -0.000020273  0.000016510  0.082411244

  length of vectors
     8.333818467  8.333996478 13.233485501     0.129138649  0.129138524  0.082411248


 FORCES acting on ions
    electron-ion (+dipol)            ewald-force                    non-local-force                 convergence-correction
 -----------------------------------------------------------------------------------------------
   -.265E+02 0.598E+02 0.589E+02   0.289E+02 -.670E+02 -.647E+02   -.243E+01 0.720E+01 0.586E+01   -.357E-05 0.162E-04 -.464E-04
   0.646E+02 -.144E+02 -.586E+02   -.722E+02 0.154E+02 0.645E+02   0.755E+01 -.940E+00 -.586E+01   0.137E-05 -.226E-06 0.388E-04
   -.642E+02 0.141E+02 -.589E+02   0.718E+02 -.150E+02 0.648E+02   -.753E+01 0.919E+00 -.588E+01   0.768E-05 -.260E-04 0.480E-04
   0.262E+02 -.594E+02 0.590E+02   -.286E+02 0.666E+02 -.649E+02   0.241E+01 -.720E+01 0.588E+01   -.946E-06 0.124E-04 -.521E-04
   0.273E+02 -.603E+02 -.585E+02   -.298E+02 0.675E+02 0.644E+02   0.248E+01 -.718E+01 -.587E+01   -.217E-04 -.266E-05 0.410E-04
   -.640E+02 0.133E+02 0.588E+02   0.716E+02 -.142E+02 -.647E+02   -.754E+01 0.874E+00 0.587E+01   -.241E-04 -.870E-05 -.401E-04
   0.636E+02 -.136E+02 0.588E+02   -.711E+02 0.145E+02 -.647E+02   0.755E+01 -.872E+00 0.587E+01   -.178E-05 -.138E-04 -.517E-04
   -.274E+02 0.600E+02 -.587E+02   0.299E+02 -.672E+02 0.646E+02   -.247E+01 0.718E+01 -.587E+01   0.285E-04 0.121E-04 0.325E-04
   -.827E+02 -.743E+02 0.204E+02   0.888E+02 0.811E+02 -.227E+02   -.609E+01 -.681E+01 0.234E+01   0.520E-04 0.944E-04 -.433E-04
   -.546E+02 -.962E+02 -.207E+02   0.600E+02 0.104E+03 0.230E+02   -.545E+01 -.732E+01 -.236E+01   0.803E-04 0.633E-04 0.340E-04
   0.551E+02 0.961E+02 -.206E+02   -.606E+02 -.103E+03 0.230E+02   0.546E+01 0.732E+01 -.238E+01   -.664E-04 -.647E-04 0.626E-04
   0.824E+02 0.747E+02 0.205E+02   -.885E+02 -.815E+02 -.228E+02   0.609E+01 0.681E+01 0.237E+01   -.439E-04 -.635E-04 -.376E-04
   0.826E+02 0.733E+02 -.204E+02   -.886E+02 -.801E+02 0.228E+02   0.603E+01 0.686E+01 -.237E+01   -.435E-04 -.966E-04 0.627E-04
   0.555E+02 0.962E+02 0.201E+02   -.609E+02 -.104E+03 -.225E+02   0.540E+01 0.737E+01 0.236E+01   -.799E-04 -.521E-04 -.562E-04
   -.559E+02 -.963E+02 0.203E+02   0.613E+02 0.104E+03 -.227E+02   -.539E+01 -.738E+01 0.236E+01   0.624E-04 0.623E-04 -.537E-04
   -.826E+02 -.738E+02 -.206E+02   0.887E+02 0.806E+02 0.229E+02   -.603E+01 -.685E+01 -.237E+01   0.605E-04 0.935E-04 0.553E-04
   -.744E+02 0.673E+02 -.224E+02   0.804E+02 -.743E+02 0.247E+02   -.596E+01 0.697E+01 -.233E+01   0.336E-04 0.962E-05 0.616E-04
   0.817E+02 -.595E+02 0.222E+02   -.897E+02 0.640E+02 -.245E+02   0.800E+01 -.447E+01 0.235E+01   0.156E-04 0.205E-04 -.656E-04
   -.812E+02 0.597E+02 0.216E+02   0.892E+02 -.642E+02 -.239E+02   -.801E+01 0.447E+01 0.231E+01   0.115E-05 -.346E-04 -.812E-04
   0.744E+02 -.669E+02 -.218E+02   -.804E+02 0.739E+02 0.241E+02   0.595E+01 -.698E+01 -.230E+01   -.282E-04 -.516E-05 0.970E-04
   0.753E+02 -.675E+02 0.221E+02   -.813E+02 0.744E+02 -.244E+02   0.603E+01 -.690E+01 0.234E+01   -.757E-05 -.301E-04 -.718E-04
   -.812E+02 0.590E+02 -.222E+02   0.893E+02 -.634E+02 0.245E+02   -.806E+01 0.438E+01 -.231E+01   -.153E-04 -.166E-04 0.589E-04
   0.810E+02 -.589E+02 -.222E+02   -.891E+02 0.633E+02 0.245E+02   0.806E+01 -.438E+01 -.231E+01   -.175E-05 0.230E-04 0.810E-04
   -.752E+02 0.672E+02 0.219E+02   0.813E+02 -.741E+02 -.242E+02   -.605E+01 0.690E+01 0.233E+01   0.285E-04 0.275E-04 -.585E-04
   -.302E+02 -.524E+02 -.680E+02   0.328E+02 0.592E+02 0.739E+02   -.266E+01 -.687E+01 -.593E+01   -.603E-04 0.244E-04 0.120E-03
   -.455E+02 -.399E+02 0.682E+02   0.518E+02 0.438E+02 -.742E+02   -.623E+01 -.396E+01 0.591E+01   0.355E-04 -.513E-04 -.110E-03
   0.456E+02 0.400E+02 0.680E+02   -.518E+02 -.439E+02 -.740E+02   0.621E+01 0.398E+01 0.591E+01   -.147E-04 0.378E-04 -.127E-03
   0.303E+02 0.526E+02 -.677E+02   -.330E+02 -.595E+02 0.736E+02   0.269E+01 0.686E+01 -.591E+01   0.111E-04 -.616E-05 0.122E-03
   0.296E+02 0.530E+02 0.682E+02   -.322E+02 -.599E+02 -.740E+02   0.259E+01 0.692E+01 0.590E+01   0.673E-04 -.235E-04 -.131E-03
   0.450E+02 0.405E+02 -.679E+02   -.512E+02 -.446E+02 0.738E+02   0.616E+01 0.404E+01 -.592E+01   -.307E-04 0.442E-04 0.115E-03
   -.451E+02 -.405E+02 -.678E+02   0.513E+02 0.446E+02 0.737E+02   -.615E+01 -.404E+01 -.592E+01   0.210E-04 -.431E-04 0.123E-03
   -.295E+02 -.528E+02 0.682E+02   0.321E+02 0.597E+02 -.741E+02   -.258E+01 -.690E+01 0.592E+01   -.654E-04 0.143E-04 -.131E-03
 -----------------------------------------------------------------------------------------------
   -.198E-01 -.301E-02 0.613E-02   0.497E-13 0.853E-13 -.171E-12   0.208E-01 0.251E-02 -.456E-02   -.318E-05 0.166E-04 -.408E-05
 
 
 POSITION                                       TOTAL-FORCE (eV/Angst)
 -----------------------------------------------------------------------------------
     -3.69126      1.53821     10.90466         0.000533     -0.001555     -0.000919
      3.08108      2.85246      7.27732        -0.002013      0.000651      0.002239
      4.39259      1.27599      7.28222         0.001409      0.000333      0.000090
      2.83465      2.55041     10.90281        -0.002147      0.002495     -0.000738
      7.00129      2.56422      1.21425        -0.001520      0.001443      0.000572
      0.23069      1.26001      4.83537         0.001182     -0.000714      0.000551
     -1.09173      2.82717      4.83594        -0.001482      0.001569     -0.000147
      0.48196      1.56413      1.21282        -0.000073     -0.000881      0.000601
      0.90707      6.60507      0.06228        -0.000734     -0.001025      0.000531
      3.77387      4.29390      5.98854         0.000030     -0.001481      0.000476
      3.70263     -0.17042      5.99745         0.000394      0.000325     -0.000664
      4.88319      5.68727      0.05546        -0.000075     -0.000566     -0.000702
      2.40591     -2.51316     12.06178        -0.000472     -0.000782     -0.000376
     -0.44913     -0.18713      6.12482         0.000142     -0.001295      0.000746
     -0.41280      4.27414      6.12614         0.000829      0.000288      0.000201
     -1.57653     -1.56019     12.06010        -0.001066     -0.000559     -0.002464
      0.89442      5.60757      1.85816        -0.000995     -0.002473     -0.000792
      2.80384      4.08478      4.18978        -0.001520     -0.000980      0.000438
      4.67647      0.03053      4.19982         0.001776      0.002293      0.000977
      4.88702      6.68480      1.85138         0.001552      0.001216     -0.001835
      2.40430     -1.52173     10.26243        -0.000626      0.002302      0.001795
      0.52478      0.02709      7.92103         0.002711      0.000086     -0.000922
     -1.38624      4.05804      7.92226        -0.002340     -0.000755     -0.001443
     -1.57535     -2.55377     10.26202         0.000351     -0.003557     -0.000454
     -0.35807      6.57948      3.16085         0.000454      0.001337      0.002718
      4.00800      3.04833      2.89108        -0.000123     -0.000062     -0.000876
      3.47482      1.06146      2.89430        -0.000956      0.000273     -0.001418
     -2.20167      5.66603      3.15731         0.002654      0.000021      0.000580
      3.66475     -2.48569      8.96132         0.000103      0.001250      0.000944
     -0.68626      1.04583      9.22712         0.000255      0.000453     -0.000042
     -0.17501      3.03871      9.22775        -0.000129     -0.000174      0.000759
      5.49670     -1.55011      8.96036         0.001897      0.000525     -0.000422
 -----------------------------------------------------------------------------------
    total drift:                                0.000963     -0.000479      0.001573


--------------------------------------------------------------------------------------------------------



  FREE ENERGIE OF THE ION-ELECTRON SYSTEM (eV)
  ---------------------------------------------------
  free  energy   TOTEN  =      -140.51249861 eV

  energy  without entropy=     -140.51249861  energy(sigma->0) =     -140.51249861
 d Force = 0.2455054E-04[ 0.732E-05, 0.418E-04]  d Energy = 0.3716167E-04-0.126E-04
 d Force =-0.8723208E+00[-0.873E+00,-0.872E+00]  d Ewald  =-0.1638344E+01 0.766E+00
 


--------------------------------------------------------------------------------------------------------


    POTLOK:  cpu time      0.3417: real time      0.3427


--------------------------------------------------------------------------------------------------------


 Conjugate gradient step on ions:
 trial-energy change:   -0.000037  1 .order   -0.000034   -0.000049   -0.000019
  (g-gl).g = 0.355E-04      g.g   = 0.402E-04  gl.gl    = 0.641E-04
 g(Force)  = 0.357E-04   g(Stress)= 0.444E-05 ortho     = 0.650E-05
 gamma     =   0.55491
 trial     =   1.12286
 opt step  =   1.49131  (harmonic =   1.80570) maximal distance =0.00106848
 next E    =  -140.512502   (d E  =  -0.00004)


--------------------------------------------------------------------------------------------------------


  
 reached required accuracy - stopping structural energy minimisation
     LOOP+:  cpu time      7.2149: real time      7.2417
    4ORBIT:  cpu time      0.0000: real time      0.0000



 total charge

# of ion       s       p       d       tot
------------------------------------------
    1        1.374   2.243   0.000   3.617
    2        1.374   2.243   0.000   3.617
    3        1.374   2.243   0.000   3.617
    4        1.374   2.242   0.000   3.617
    5        1.374   2.243   0.000   3.617
    6        1.374   2.243   0.000   3.617
    7        1.374   2.243   0.000   3.617
    8        1.374   2.243   0.000   3.617
    9        1.371   2.247   0.000   3.618
   10        1.371   2.247   0.000   3.618
   11        1.371   2.247   0.000   3.618
   12        1.371   2.247   0.000   3.618
   13        1.371   2.247   0.000   3.618
   14        1.371   2.247   0.000   3.618
   15        1.371   2.247   0.000   3.618
   16        1.371   2.247   0.000   3.618
   17        1.371   2.247   0.000   3.618
   18        1.371   2.247   0.000   3.618
   19        1.371   2.247   0.000   3.618
   20        1.371   2.247   0.000   3.618
   21        1.371   2.247   0.000   3.618
   22        1.371   2.247   0.000   3.618
   23        1.371   2.247   0.000   3.618
   24        1.371   2.247   0.000   3.618
   25        1.372   2.245   0.000   3.617
   26        1.372   2.245   0.000   3.617
   27        1.372   2.245   0.000   3.617
   28        1.372   2.245   0.000   3.617
   29        1.372   2.245   0.000   3.617
   30        1.372   2.245   0.000   3.617
   31        1.372   2.245   0.000   3.617
   32        1.372   2.245   0.000   3.617
--------------------------------------------------
tot         43.905  71.851   0.000 115.756
 
 BZINTS: Fermi energy:    1.857609;  192.000000 electrons
         Band energy:-0.839212E+03;  BLOECHL correction:    0.000000

 total amount of memory used by VASP MPI-rank0   250090. kBytes
=======================================================================

   base                                    :      30000. kBytes
   nonl-proj                               :      12395. kBytes
   fftplans                                :      34088. kBytes
   grid                                    :      52835. kBytes
   one-center                              :         98. kBytes
   wavefun                                 :     120674. kBytes
 
  
  
 General timing and accounting informations for this job:
 ========================================================
  
                  Total CPU time used (sec):      460.013
                            User time (sec):      457.405
                          System time (sec):        2.608
                         Elapsed time (sec):      465.404
  
                   Maximum memory used (kb):     2300664.
                   Average memory used (kb):          N/A
  
                          Minor page faults:       307283
                          Major page faults:         1522
                 Voluntary context switches:        24254
