<?xml version="1.0" encoding="ISO-8859-1"?>
<modeling>
 <generator>
  <i name="program" type="string">vasp </i>
  <i name="version" type="string">6.5.1  </i>
  <i name="subversion" type="string">10Mar25 (build May 13 2025 11:33:44) complex                          parallel </i>
  <i name="platform" type="string">LinuxNV </i>
  <i name="date" type="string">2026 05 16 </i>
  <i name="time" type="string">18:39:53 </i>
 </generator>
 <incar>
  <i type="string" name="PREC">Normal</i>
  <i type="string" name="ALGO">Normal</i>
  <i type="int" name="NELM">   100</i>
  <i type="int" name="IBRION">     2</i>
  <i name="EDIFF">      0.00000010</i>
  <i name="EDIFFG">     -0.00500000</i>
  <i type="int" name="NSW">   300</i>
  <i type="int" name="ISIF">     3</i>
  <i name="ENCUT">    400.00000000</i>
  <i type="logical" name="LREAL"> F  </i>
  <i type="int" name="ISMEAR">    -5</i>
  <i name="SIGMA">      0.10000000</i>
  <i type="logical" name="LWAVE"> F  </i>
  <i type="logical" name="LCHARG"> F  </i>
  <i type="int" name="LORBIT">    10</i>
  <i type="logical" name="LASPH"> T  </i>
  <i type="string" name="GGA">Ps</i>
 </incar>
 <primitive_cell>
  <structure name="primitive_cell" >
   <crystal>
    <varray name="basis" >
     <v>       8.57995288       0.00000000       0.00000000 </v>
     <v>      -1.77938609       8.39343121       0.00000000 </v>
     <v>      -3.40573288      -4.19193054      12.32510768 </v>
    </varray>
    <i name="volume">    887.59564142 </i>
    <varray name="rec_basis" >
     <v>       0.11655076       0.02470846       0.04060954 </v>
     <v>      -0.00000000       0.11914079       0.04052134 </v>
     <v>       0.00000000      -0.00000000       0.08113519 </v>
    </varray>
   </crystal>
   <varray name="positions" >
    <v>       0.04569055       0.64658026       0.90308284 </v>
    <v>       0.74148466       0.64234686       0.59559239 </v>
    <v>       0.85178033       0.45265735       0.59632980 </v>
    <v>       0.85674568       0.75816179       0.90269622 </v>
    <v>       0.95267344       0.35311091       0.09537119 </v>
    <v>       0.25622787       0.35749702       0.40287474 </v>
    <v>       0.14424730       0.54610660       0.40286118 </v>
    <v>       0.14273503       0.24315600       0.09564891 </v>
    <v>       0.26855647       0.81416900       0.00933242 </v>
    <v>       0.80472585       0.75871905       0.48967060 </v>
    <v>       0.68333728       0.22993791       0.49054172 </v>
    <v>       0.73871001       0.69589457       0.00809490 </v>
    <v>       0.73017661       0.18397925       0.98975338 </v>
    <v>       0.19469126       0.24026400       0.50882623 </v>
    <v>       0.31162823       0.76925940       0.50881393 </v>
    <v>       0.25949929       0.30603567       0.98983721 </v>
    <v>       0.31440309       0.76594146       0.15402255 </v>
    <v>       0.61221335       0.66123409       0.34477866 </v>
    <v>       0.73175476       0.18183022       0.34595959 </v>
    <v>       0.83569929       0.88848734       0.15285897 </v>
    <v>       0.68187637       0.23135137       0.84476548 </v>
    <v>       0.38779290       0.33820084       0.65341694 </v>
    <v>       0.26367649       0.81550950       0.65355313 </v>
    <v>       0.16224169       0.11347049       0.84505786 </v>
    <v>       0.24639098       0.93417269       0.26024694 </v>
    <v>       0.67334950       0.48609579       0.23859664 </v>
    <v>       0.56444180       0.24966591       0.23887609 </v>
    <v>       0.00917198       0.82672692       0.25989711 </v>
    <v>       0.75048787       0.06414210       0.73831259 </v>
    <v>       0.32602787       0.51163415       0.76030753 </v>
    <v>       0.43272279       0.74882575       0.76026271 </v>
    <v>       0.98690540       0.17390275       0.73839955 </v>
   </varray>
  </structure>
  <varray name="primitive_index" >
   <v type="int" >        1 </v>
   <v type="int" >        2 </v>
   <v type="int" >        3 </v>
   <v type="int" >        4 </v>
   <v type="int" >        5 </v>
   <v type="int" >        6 </v>
   <v type="int" >        7 </v>
   <v type="int" >        8 </v>
   <v type="int" >        9 </v>
   <v type="int" >       10 </v>
   <v type="int" >       11 </v>
   <v type="int" >       12 </v>
   <v type="int" >       13 </v>
   <v type="int" >       14 </v>
   <v type="int" >       15 </v>
   <v type="int" >       16 </v>
   <v type="int" >       17 </v>
   <v type="int" >       18 </v>
   <v type="int" >       19 </v>
   <v type="int" >       20 </v>
   <v type="int" >       21 </v>
   <v type="int" >       22 </v>
   <v type="int" >       23 </v>
   <v type="int" >       24 </v>
   <v type="int" >       25 </v>
   <v type="int" >       26 </v>
   <v type="int" >       27 </v>
   <v type="int" >       28 </v>
   <v type="int" >       29 </v>
   <v type="int" >       30 </v>
   <v type="int" >       31 </v>
   <v type="int" >       32 </v>
  </varray>
 </primitive_cell>
 <kpoints>
  <generation param="Gamma">
   <v type="int" name="divisions">       2        2        2 </v>
   <v name="usershift">      0.50000000       0.50000000       0.50000000 </v>
   <v name="genvec1">      0.50000000       0.00000000       0.00000000 </v>
   <v name="genvec2">      0.00000000       0.50000000      -0.00000000 </v>
   <v name="genvec3">      0.00000000       0.00000000       0.50000000 </v>
   <v name="shift">      0.50000000       0.50000000       0.50000000 </v>
  </generation>
  <varray name="kpointlist" >
   <v>       0.25000000       0.25000000       0.25000000 </v>
   <v>      -0.25000000       0.25000000       0.25000000 </v>
   <v>       0.25000000      -0.25000000       0.25000000 </v>
   <v>      -0.25000000      -0.25000000       0.25000000 </v>
  </varray>
  <varray name="weights" >
   <v>       0.25000000 </v>
   <v>       0.25000000 </v>
   <v>       0.25000000 </v>
   <v>       0.25000000 </v>
  </varray>
  <varray name="tetrahedronlist"  type="int" >
   <v type="int" >        4        2        2        3        4 </v>
   <v type="int" >        4        1        2        2        3 </v>
   <v type="int" >        4        1        2        2        4 </v>
   <v type="int" >        4        1        1        3        4 </v>
   <v type="int" >        4        1        1        2        4 </v>
   <v type="int" >        4        1        1        2        3 </v>
   <v type="int" >        4        1        2        4        4 </v>
   <v type="int" >        4        1        3        4        4 </v>
   <v type="int" >        4        2        3        4        4 </v>
   <v type="int" >        4        1        2        3        3 </v>
   <v type="int" >        4        2        3        3        4 </v>
   <v type="int" >        4        1        3        3        4 </v>
  </varray>
  <i name="volumeweight">      0.02083333 </i>
 </kpoints>
 <parameters>
  <separator name="general" >
   <i type="string" name="SYSTEM">unknown system</i>
   <i type="logical" name="LCOMPAT"> F  </i>
  </separator>
  <separator name="electronic" >
   <i type="string" name="PREC">normal</i>
   <i name="ENMAX">    400.00000000</i>
   <i name="ENAUG">    335.09200000</i>
   <i name="EDIFF">      0.00000010</i>
   <i type="int" name="IALGO">    38</i>
   <i type="int" name="IWAVPR">    11</i>
   <i type="int" name="NBANDS">   115</i>
   <i type="int" name="NBANDSLOW">    -1</i>
   <i type="int" name="NBANDSHIGH">    -1</i>
   <i name="NELECT">    192.00000000</i>
   <i type="int" name="TURBO">     0</i>
   <i type="int" name="IRESTART">     0</i>
   <i type="int" name="NREBOOT">     0</i>
   <i type="int" name="NMIN">     0</i>
   <i name="EREF">      0.00000000</i>
   <separator name="electronic smearing" >
    <i type="int" name="ISMEAR">    -5</i>
    <i name="SIGMA">      0.10000000</i>
    <i name="KSPACING">      0.50000000</i>
    <i type="logical" name="KGAMMA"> T  </i>
    <i type="logical" name="KBLOWUP"> T  </i>
   </separator>
   <separator name="electronic projectors" >
    <i type="logical" name="LREAL"> F  </i>
    <v name="ROPT">      0.00000000</v>
    <i type="int" name="LMAXPAW">  -100</i>
    <i type="int" name="LMAXMIX">     2</i>
    <i type="logical" name="NLSPLINE"> F  </i>
   </separator>
   <separator name="electronic startup" >
    <i type="int" name="ISTART">     0</i>
    <i type="int" name="ICHARG">     2</i>
    <i type="int" name="INIWAV">     1</i>
   </separator>
   <separator name="electronic spin" >
    <i type="int" name="ISPIN">     1</i>
    <i type="logical" name="LNONCOLLINEAR"> F  </i>
    <v name="MAGMOM">      1.00000000      1.00000000      1.00000000      1.00000000      1.00000000      1.00000000      1.00000000      1.00000000      1.00000000      1.00000000      1.00000000      1.00000000      1.00000000      1.00000000      1.00000000      1.00000000      1.00000000      1.00000000      1.00000000      1.00000000
      1.00000000      1.00000000      1.00000000      1.00000000      1.00000000      1.00000000      1.00000000      1.00000000      1.00000000      1.00000000      1.00000000      1.00000000</v>
    <i name="NUPDOWN">     -1.00000000</i>
    <i type="logical" name="LSORBIT"> F  </i>
    <v name="SAXIS">      0.00000000      0.00000000      1.00000000</v>
    <i type="logical" name="LSPIRAL"> F  </i>
    <v name="QSPIRAL">      0.00000000      0.00000000      0.00000000</v>
    <i type="logical" name="LZEROZ"> F  </i>
   </separator>
   <separator name="electronic exchange-correlation" >
    <i type="logical" name="LASPH"> T  </i>
   </separator>
   <separator name="electronic convergence" >
    <i type="int" name="NELM">   100</i>
    <i type="int" name="NELMDL">    -5</i>
    <i type="int" name="NELMIN">     2</i>
    <i name="ENINI">    400.00000000</i>
    <separator name="electronic convergence detail" >
     <i type="logical" name="LDIAG"> T  </i>
     <i type="logical" name="LSUBROT"> F  </i>
     <i type="logical" name="LROBUST"> F  </i>
     <i type="int" name="ISEARCH">     0</i>
     <i name="WEIMIN">      0.00100000</i>
     <i name="EBREAK">      0.00000000</i>
     <i name="DEPER">      0.30000000</i>
     <i type="int" name="NRMM">     4</i>
     <i name="TIME">      0.40000000</i>
    </separator>
   </separator>
   <separator name="electronic mixer" >
    <i name="AMIX">      0.40000000</i>
    <i name="BMIX">      1.00000000</i>
    <i name="AMIN">      0.10000000</i>
    <i name="AMIX_MAG">      1.60000000</i>
    <i name="BMIX_MAG">      1.00000000</i>
    <separator name="electronic mixer details" >
     <i type="int" name="IMIX">     4</i>
     <i type="logical" name="MIXFIRST"> F  </i>
     <i type="int" name="MAXMIX">   -45</i>
     <i name="WC">    100.00000000</i>
     <i type="int" name="INIMIX">     1</i>
     <i type="int" name="MIXPRE">     1</i>
     <i type="int" name="MREMOVE">     5</i>
    </separator>
   </separator>
   <separator name="electronic dipolcorrection" >
    <i type="logical" name="LDIPOL"> F  </i>
    <i type="logical" name="LMONO"> F  </i>
    <i type="int" name="IDIPOL">     0</i>
    <i name="EPSILON">      1.00000000</i>
    <v name="DIPOL">   -100.00000000   -100.00000000   -100.00000000</v>
    <i name="EFIELD">      0.00000000</i>
    <i type="logical" name="LVACPOTAV"> F  </i>
   </separator>
  </separator>
  <separator name="grids" >
   <i type="int" name="NGX">    42</i>
   <i type="int" name="NGY">    42</i>
   <i type="int" name="NGZ">    70</i>
   <i type="int" name="NGXF">    84</i>
   <i type="int" name="NGYF">    84</i>
   <i type="int" name="NGZF">   140</i>
   <i type="logical" name="ADDGRID"> F  </i>
  </separator>
  <separator name="ionic" >
   <i type="int" name="NSW">   300</i>
   <i type="int" name="IBRION">     2</i>
   <i type="int" name="MDALGO">     0</i>
   <i type="int" name="ISIF">     3</i>
   <i name="PSTRESS">      0.00000000</i>
   <i name="EDIFFG">     -0.00500000</i>
   <i type="int" name="NFREE">     1</i>
   <i name="POTIM">      0.50000000</i>
   <i name="SMASS">     -3.00000000</i>
   <i name="SCALEE">      1.00000000</i>
  </separator>
  <separator name="ionic md" >
   <i name="TEBEG">      0.00010000</i>
   <i name="TEEND">      0.00010000</i>
   <i type="int" name="NBLOCK">     1</i>
   <i type="int" name="KBLOCK">   300</i>
   <i type="int" name="NPACO">   256</i>
   <i name="APACO">     10.00000000</i>
  </separator>
  <separator name="symmetry" >
   <i type="int" name="ISYM">     2</i>
   <i name="SYMPREC">      0.00001000</i>
  </separator>
  <separator name="dos" >
   <i type="int" name="LORBIT">    10</i>
   <v name="RWIGS">     -1.00000000</v>
   <i type="int" name="NEDOS">   301</i>
   <i name="EMIN">     10.00000000</i>
   <i name="EMAX">    -10.00000000</i>
   <i name="EFERMI">      0.00000000</i>
  </separator>
  <separator name="writing" >
   <i type="int" name="NWRITE">     2</i>
   <i type="logical" name="LWAVE"> F  </i>
   <i type="logical" name="LDOWNSAMPLE"> F  </i>
   <i type="logical" name="LCHARG"> F  </i>
   <i type="logical" name="LPARD"> F  </i>
   <i type="logical" name="LVTOT"> F  </i>
   <i type="logical" name="LVHAR"> F  </i>
   <i type="logical" name="LELF"> F  </i>
   <i type="logical" name="LOPTICS"> F  </i>
   <v name="STM">      0.00000000      0.00000000      0.00000000      0.00000000      0.00000000      0.00000000      0.00000000</v>
  </separator>
  <separator name="performance" >
   <i type="int" name="NPAR">     1</i>
   <i type="int" name="NSIM">     4</i>
   <i type="int" name="NBLK">    -1</i>
   <i type="logical" name="LPLANE"> T  </i>
   <i type="logical" name="LSCALAPACK"> T  </i>
   <i type="logical" name="LSCAAWARE"> F  </i>
   <i type="logical" name="LSCALU"> F  </i>
   <i type="logical" name="LASYNC"> F  </i>
   <i type="logical" name="LORBITALREAL"> F  </i>
  </separator>
  <separator name="miscellaneous" >
   <i type="int" name="IDIOT">     3</i>
   <i type="int" name="PHON_NSTRUCT">    -1</i>
   <i type="logical" name="LMUSIC"> F  </i>
   <v name="POMASS">     32.06600000</v>
   <v name="DARWINR">      0.00000000</v>
   <v name="DARWINV">      1.00000000</v>
   <i type="logical" name="LCORR"> T  </i>
  </separator>
  <i type="logical" name="GGA_COMPAT"> T  </i>
  <i type="logical" name="LBERRY"> F  </i>
  <i type="int" name="ICORELEVEL">     0</i>
  <i type="logical" name="LDAU"> F  </i>
  <i type="int" name="I_CONSTRAINED_M">     0</i>
  <separator name="electronic exchange-correlation" >
   <i type="string" name="GGA    ">PS</i>
   <i type="string" name="XC_C">1</i>
   <i type="int" name="VOSKOWN">     0</i>
   <i type="logical" name="LHFCALC"> F  </i>
   <i type="string" name="PRECFOCK"></i>
   <i type="logical" name="LSYMGRAD"> F  </i>
   <i type="logical" name="LHFONE"> F  </i>
   <i type="logical" name="LRHFCALC"> F  </i>
   <i type="logical" name="LTHOMAS"> F  </i>
   <i type="logical" name="LMODELHF"> F  </i>
   <i type="logical" name="LFOCKACE"> F  </i>
   <i name="ENCUT4O">     -1.00000000</i>
   <i type="int" name="EXXOEP">     0</i>
   <i type="int" name="FOURORBIT">     0</i>
   <i name="AEXX">      0.00000000</i>
   <i name="HFALPHA">      0.00000000</i>
   <i name="MCALPHA">      0.00000000</i>
   <i name="ALDAX">      1.00000000</i>
   <i name="AGGAX">      1.00000000</i>
   <i name="AMGGAX">      1.00000000</i>
   <i name="ALDAC">      1.00000000</i>
   <i name="AGGAC">      1.00000000</i>
   <i name="AMGGAC">      1.00000000</i>
   <i type="int" name="NKREDX">     1</i>
   <i type="int" name="NKREDY">     1</i>
   <i type="int" name="NKREDZ">     1</i>
   <i type="logical" name="SHIFTRED"> F  </i>
   <i type="logical" name="ODDONLY"> F  </i>
   <i type="logical" name="EVENONLY"> F  </i>
   <i type="int" name="LMAXFOCK">     0</i>
   <i type="int" name="NMAXFOCKAE">     0</i>
   <i type="logical" name="LFOCKAEDFT"> F  </i>
   <i name="HFSCREEN">      0.00000000</i>
   <i name="HFSCREENC">      0.00000000</i>
   <i type="int" name="NBANDSGWLOW">     0</i>
  </separator>
  <separator name="vdW DFT" >
   <i type="logical" name="LUSE_VDW"> F  </i>
   <i type="int" name="IVDW_NL">    -1</i>
   <i type="logical" name="LSPIN_VDW"> F  </i>
   <i name="ZAB_VDW">     -0.84910000</i>
   <i name="GAMMA_VDW">      1.39626340</i>
   <i name="ALPHA_VDW">      0.00000000</i>
   <i name="PARAM1">      0.12340000</i>
   <i name="PARAM2">      1.00000000</i>
   <i name="BPARAM">      6.30000000</i>
   <i name="CPARAM">      0.00930000</i>
  </separator>
  <separator name="model GW" >
   <i type="int" name="MODEL_GW">     0</i>
   <i name="MODEL_EPS0">     16.64241828</i>
   <i name="MODEL_ALPHA">      1.00000000</i>
  </separator>
  <separator name="linear response parameters" >
   <i type="logical" name="LEPSILON"> F  </i>
   <i type="logical" name="LRPA"> F  </i>
   <i type="logical" name="LNABLA"> F  </i>
   <i type="logical" name="LVEL"> F  </i>
   <i name="CSHIFT">      0.10000000</i>
   <i name="OMEGAMAX">     -1.00000000</i>
   <i name="DEG_THRESHOLD">      0.00200000</i>
   <i name="RTIME">     -0.10000000</i>
   <i name="WPLASMAI">      0.00000000</i>
   <v name="DFIELD">      0.00000000      0.00000000      0.00000000</v>
   <v name="WPLASMA">      0.00000000      0.00000000      0.00000000      0.00000000      0.00000000      0.00000000      0.00000000      0.00000000      0.00000000</v>
  </separator>
  <separator name="orbital magnetization" >
   <i type="logical" name="NUCIND"> F  </i>
   <v name="MAGPOS">      0.00000000      0.00000000      0.00000000</v>
   <i type="logical" name="LNICSALL"> T  </i>
   <i type="logical" name="ORBITALMAG"> F  </i>
   <i type="logical" name="LMAGBLOCH"> F  </i>
   <i type="logical" name="LCHIMAG"> F  </i>
   <i type="logical" name="LGAUGE"> T  </i>
   <i type="int" name="MAGATOM">     0</i>
   <v name="MAGDIPOL">      0.00000000      0.00000000      0.00000000</v>
   <v name="AVECCONST">      0.00000000      0.00000000      0.00000000</v>
  </separator>
  <separator name="response functions" >
   <i type="logical" name="LALL_IN_ONE"> F  </i>
   <i type="int" name="IALL_IN_ONE">    -1</i>
   <i type="int" name="NBANDS_WAVE">    -1</i>
   <i type="logical" name="LFINITE_TEMPERATURE"> F  </i>
   <i type="logical" name="LADDER"> F  </i>
   <i type="logical" name="LRPAFORCE"> F  </i>
   <i type="logical" name="LFXC"> F  </i>
   <i type="logical" name="LHARTREE"> T  </i>
   <i type="int" name="IBSE">     2</i>
   <v type="int" name="KPOINT">    -1     0     0     0</v>
   <i type="logical" name="LTCTC"> F  </i>
   <i type="logical" name="LTCTE"> F  </i>
   <i type="logical" name="LTETE"> F  </i>
   <i type="logical" name="LTRIPLET"> F  </i>
   <i type="logical" name="LFXCEPS"> F  </i>
   <i type="logical" name="LFXHEG"> F  </i>
   <i type="int" name="NATURALO">     2</i>
   <i type="logical" name="LHOLEGF"> F  </i>
   <i type="logical" name="L2ORDER"> F  </i>
   <i type="logical" name="LDMP1"> F  </i>
   <i type="logical" name="LMP2LT"> F  </i>
   <i type="logical" name="LSMP2LT"> F  </i>
   <i type="logical" name="LGWLF"> F  </i>
   <i name="ENCUTGW">     -1.60000002</i>
   <i name="ENCUTGWSOFT">     -1.60000002</i>
   <i name="ENCUTLF">     -1.00000000</i>
   <i type="logical" name="ESF_SPLINES"> F  </i>
   <i name="ESF_CONV">      0.01000000</i>
   <i type="int" name="ESF_NINTER">    15</i>
   <i type="int" name="LMAXMP2">    -1</i>
   <i name="SCISSOR">      0.00000000</i>
   <i type="int" name="NOMEGA">     0</i>
   <i type="int" name="NOMEGAR">     0</i>
   <i type="int" name="NBANDSGW">    -1</i>
   <i type="int" name="NBANDSO">    -1</i>
   <i type="int" name="NBANDSV">    -1</i>
   <i type="int" name="NELMGW">     1</i>
   <i type="int" name="NELMHF">     1</i>
   <i type="int" name="DIM">     3</i>
   <i type="int" name="IESPILON">     4</i>
   <i type="int" name="ANTIRES">     0</i>
   <i name="OMEGAMAX">    -30.00000000</i>
   <i name="OMEGAMIN">    -30.00000000</i>
   <i name="OMEGATL">   -200.00000000</i>
   <i type="int" name="OMEGAGRID">     0</i>
   <i name="CSHIFT">     -0.10000000</i>
   <i type="logical" name="LSELFENERGY"> F  </i>
   <i type="logical" name="LSPECTRAL"> F  </i>
   <i type="logical" name="LSPECTRALGW"> F  </i>
   <i type="logical" name="LSINGLES"> F  </i>
   <i type="logical" name="LFERMIGW"> F  </i>
   <i type="logical" name="ODDONLYGW"> F  </i>
   <i type="logical" name="EVENONLYGW"> F  </i>
   <i type="int" name="NKREDLFX">     1</i>
   <i type="int" name="NKREDLFY">     1</i>
   <i type="int" name="NKREDLFZ">     1</i>
   <i type="int" name="MAXMEM">  2800</i>
   <i type="int" name="TELESCOPE">     0</i>
   <i type="int" name="NTAUPAR">    -1</i>
   <i type="int" name="NOMEGAPAR">    -1</i>
   <i name="DAMP_NEWTON">      0.80000001</i>
   <i name="LAMBDA">      1.00000000</i>
  </separator>
  <separator name="External order field" >
   <i name="OFIELD_KAPPA">      0.00000000</i>
   <v name="OFIELD_K">      0.00000000      0.00000000      0.00000000</v>
   <i name="OFIELD_Q6_NEAR">      0.00000000</i>
   <i name="OFIELD_Q6_FAR">      0.00000000</i>
   <i name="OFIELD_A">      0.00000000</i>
  </separator>
  <separator name="optional k-points parameters" >
   <i type="int" name="KPOINTS_OPT_MODE">     1</i>
   <i type="logical" name="LKPOINTS_OPT"> F  </i>
  </separator>
 </parameters>
 <atominfo>
  <atoms>      32 </atoms>
  <types>       1 </types>
  <array name="atoms" >
   <dimension dim="1">ion</dimension>
   <field type="string">element</field>
   <field type="int">atomtype</field>
   <set>
    <rc><c>S </c><c>   1</c></rc>
    <rc><c>S </c><c>   1</c></rc>
    <rc><c>S </c><c>   1</c></rc>
    <rc><c>S </c><c>   1</c></rc>
    <rc><c>S </c><c>   1</c></rc>
    <rc><c>S </c><c>   1</c></rc>
    <rc><c>S </c><c>   1</c></rc>
    <rc><c>S </c><c>   1</c></rc>
    <rc><c>S </c><c>   1</c></rc>
    <rc><c>S </c><c>   1</c></rc>
    <rc><c>S </c><c>   1</c></rc>
    <rc><c>S </c><c>   1</c></rc>
    <rc><c>S </c><c>   1</c></rc>
    <rc><c>S </c><c>   1</c></rc>
    <rc><c>S </c><c>   1</c></rc>
    <rc><c>S </c><c>   1</c></rc>
    <rc><c>S </c><c>   1</c></rc>
    <rc><c>S </c><c>   1</c></rc>
    <rc><c>S </c><c>   1</c></rc>
    <rc><c>S </c><c>   1</c></rc>
    <rc><c>S </c><c>   1</c></rc>
    <rc><c>S </c><c>   1</c></rc>
    <rc><c>S </c><c>   1</c></rc>
    <rc><c>S </c><c>   1</c></rc>
    <rc><c>S </c><c>   1</c></rc>
    <rc><c>S </c><c>   1</c></rc>
    <rc><c>S </c><c>   1</c></rc>
    <rc><c>S </c><c>   1</c></rc>
    <rc><c>S </c><c>   1</c></rc>
    <rc><c>S </c><c>   1</c></rc>
    <rc><c>S </c><c>   1</c></rc>
    <rc><c>S </c><c>   1</c></rc>
   </set>
  </array>
  <array name="atomtypes" >
   <dimension dim="1">type</dimension>
   <field type="int">atomspertype</field>
   <field type="string">element</field>
   <field>mass</field>
   <field>valence</field>
   <field type="string">pseudopotential</field>
   <set>
    <rc><c>  32</c><c>S </c><c>     32.06600000</c><c>      6.00000000</c><c>  PAW_PBE S 06Sep2000                   </c></rc>
   </set>
  </array>
 </atominfo>
 <structure name="initialpos" >
  <crystal>
   <varray name="basis" >
    <v>       8.57995288       0.00000000       0.00000000 </v>
    <v>      -1.77938609       8.39343121       0.00000000 </v>
    <v>      -3.40573288      -4.19193054      12.32510768 </v>
   </varray>
   <i name="volume">    887.59564142 </i>
   <varray name="rec_basis" >
    <v>       0.11655076       0.02470846       0.04060954 </v>
    <v>      -0.00000000       0.11914079       0.04052134 </v>
    <v>       0.00000000      -0.00000000       0.08113519 </v>
   </varray>
  </crystal>
  <varray name="positions" >
   <v>       0.04569055       0.64658026       0.90308284 </v>
   <v>       0.74148466       0.64234686       0.59559239 </v>
   <v>       0.85178033       0.45265735       0.59632980 </v>
   <v>       0.85674568       0.75816179       0.90269622 </v>
   <v>       0.95267344       0.35311091       0.09537119 </v>
   <v>       0.25622787       0.35749702       0.40287474 </v>
   <v>       0.14424730       0.54610660       0.40286118 </v>
   <v>       0.14273503       0.24315600       0.09564891 </v>
   <v>       0.26855647       0.81416900       0.00933242 </v>
   <v>       0.80472585       0.75871905       0.48967060 </v>
   <v>       0.68333728       0.22993791       0.49054172 </v>
   <v>       0.73871001       0.69589457       0.00809490 </v>
   <v>       0.73017661       0.18397925       0.98975338 </v>
   <v>       0.19469126       0.24026400       0.50882623 </v>
   <v>       0.31162823       0.76925940       0.50881393 </v>
   <v>       0.25949929       0.30603567       0.98983721 </v>
   <v>       0.31440309       0.76594146       0.15402255 </v>
   <v>       0.61221335       0.66123409       0.34477866 </v>
   <v>       0.73175476       0.18183022       0.34595959 </v>
   <v>       0.83569929       0.88848734       0.15285897 </v>
   <v>       0.68187637       0.23135137       0.84476548 </v>
   <v>       0.38779290       0.33820084       0.65341694 </v>
   <v>       0.26367649       0.81550950       0.65355313 </v>
   <v>       0.16224169       0.11347049       0.84505786 </v>
   <v>       0.24639098       0.93417269       0.26024694 </v>
   <v>       0.67334950       0.48609579       0.23859664 </v>
   <v>       0.56444180       0.24966591       0.23887609 </v>
   <v>       0.00917198       0.82672692       0.25989711 </v>
   <v>       0.75048787       0.06414210       0.73831259 </v>
   <v>       0.32602787       0.51163415       0.76030753 </v>
   <v>       0.43272279       0.74882575       0.76026271 </v>
   <v>       0.98690540       0.17390275       0.73839955 </v>
  </varray>
 </structure>
 <calculation>
  <scstep>
   <time name="dav">    0.39    0.40</time>
   <time name="total">    0.75    0.75</time>
   <energy>
    <i name="alphaZ">    174.14296888 </i>
    <i name="ewald">  -6600.59752573 </i>
    <i name="hartreedc">  -2073.33292335 </i>
    <i name="XCdc">    396.40070267 </i>
    <i name="pawpsdc">   6953.67807941 </i>
    <i name="pawaedc">  -6843.14728347 </i>
    <i name="eentropy">      0.00000000 </i>
    <i name="bandstr">    297.39162325 </i>
    <i name="atom">   8832.36675497 </i>
    <i name="e_fr_energy">   1136.90239663 </i>
    <i name="e_wo_entrp">   1136.90239663 </i>
    <i name="e_0_energy">   1136.90239663 </i>
   </energy>
  </scstep>
  <scstep>
   <time name="dav">    0.27    0.27</time>
   <time name="total">    0.27    0.27</time>
   <energy>
    <i name="e_fr_energy">    -23.08635413 </i>
    <i name="e_wo_entrp">    -23.08635413 </i>
    <i name="e_0_energy">    -23.08635413 </i>
   </energy>
  </scstep>
  <scstep>
   <time name="dav">    0.25    0.25</time>
   <time name="total">    0.25    0.25</time>
   <energy>
    <i name="e_fr_energy">   -137.60686321 </i>
    <i name="e_wo_entrp">   -137.60686321 </i>
    <i name="e_0_energy">   -137.60686321 </i>
   </energy>
  </scstep>
  <scstep>
   <time name="dav">    0.28    0.28</time>
   <time name="total">    0.28    0.28</time>
   <energy>
    <i name="e_fr_energy">   -141.51802943 </i>
    <i name="e_wo_entrp">   -141.51802943 </i>
    <i name="e_0_energy">   -141.51802943 </i>
   </energy>
  </scstep>
  <scstep>
   <time name="dav">    0.28    0.28</time>
   <time name="total">    0.53    0.59</time>
   <energy>
    <i name="e_fr_energy">   -141.63348357 </i>
    <i name="e_wo_entrp">   -141.63348357 </i>
    <i name="e_0_energy">   -141.63348357 </i>
   </energy>
  </scstep>
  <scstep>
   <time name="dav">    0.26    0.26</time>
   <time name="total">    0.65    0.65</time>
   <energy>
    <i name="e_fr_energy">   -140.78835854 </i>
    <i name="e_wo_entrp">   -140.78835854 </i>
    <i name="e_0_energy">   -140.78835854 </i>
   </energy>
  </scstep>
  <scstep>
   <time name="dav">    0.27    0.28</time>
   <time name="total">    0.67    0.67</time>
   <energy>
    <i name="e_fr_energy">   -140.45239853 </i>
    <i name="e_wo_entrp">   -140.45239853 </i>
    <i name="e_0_energy">   -140.45239853 </i>
   </energy>
  </scstep>
  <scstep>
   <time name="dav">    0.26    0.26</time>
   <time name="total">    0.65    0.65</time>
   <energy>
    <i name="e_fr_energy">   -140.45342764 </i>
    <i name="e_wo_entrp">   -140.45342764 </i>
    <i name="e_0_energy">   -140.45342764 </i>
   </energy>
  </scstep>
  <scstep>
   <time name="dav">    0.28    0.28</time>
   <time name="total">    0.68    0.68</time>
   <energy>
    <i name="e_fr_energy">   -140.45414113 </i>
    <i name="e_wo_entrp">   -140.45414113 </i>
    <i name="e_0_energy">   -140.45414113 </i>
   </energy>
  </scstep>
  <scstep>
   <time name="dav">    0.26    0.26</time>
   <time name="total">    0.64    0.65</time>
   <energy>
    <i name="e_fr_energy">   -140.45491449 </i>
    <i name="e_wo_entrp">   -140.45491449 </i>
    <i name="e_0_energy">   -140.45491449 </i>
   </energy>
  </scstep>
  <scstep>
   <time name="dav">    0.28    0.28</time>
   <time name="total">    0.67    0.67</time>
   <energy>
    <i name="e_fr_energy">   -140.45510456 </i>
    <i name="e_wo_entrp">   -140.45510456 </i>
    <i name="e_0_energy">   -140.45510456 </i>
   </energy>
  </scstep>
  <scstep>
   <time name="dav">    0.26    0.26</time>
   <time name="total">    0.65    0.65</time>
   <energy>
    <i name="e_fr_energy">   -140.45515098 </i>
    <i name="e_wo_entrp">   -140.45515098 </i>
    <i name="e_0_energy">   -140.45515098 </i>
   </energy>
  </scstep>
  <scstep>
   <time name="dav">    0.26    0.26</time>
   <time name="total">    0.66    0.67</time>
   <energy>
    <i name="e_fr_energy">   -140.45518558 </i>
    <i name="e_wo_entrp">   -140.45518558 </i>
    <i name="e_0_energy">   -140.45518558 </i>
   </energy>
  </scstep>
  <scstep>
   <time name="dav">    0.29    0.29</time>
   <time name="total">    0.69    0.70</time>
   <energy>
    <i name="e_fr_energy">   -140.45519067 </i>
    <i name="e_wo_entrp">   -140.45519067 </i>
    <i name="e_0_energy">   -140.45519067 </i>
   </energy>
  </scstep>
  <scstep>
   <time name="dav">    0.26    0.26</time>
   <time name="total">    0.65    0.65</time>
   <energy>
    <i name="e_fr_energy">   -140.45519102 </i>
    <i name="e_wo_entrp">   -140.45519102 </i>
    <i name="e_0_energy">   -140.45519102 </i>
   </energy>
  </scstep>
  <scstep>
   <time name="dav">    0.25    0.25</time>
   <time name="total">    0.64    0.64</time>
   <energy>
    <i name="e_fr_energy">   -140.45519142 </i>
    <i name="e_wo_entrp">   -140.45519142 </i>
    <i name="e_0_energy">   -140.45519142 </i>
   </energy>
  </scstep>
  <scstep>
   <time name="dav">    0.19    0.19</time>
   <time name="total">    0.52    0.52</time>
   <energy>
    <i name="alphaZ">    174.14296888 </i>
    <i name="ewald">  -6600.59752573 </i>
    <i name="hartreedc">  -2115.53306121 </i>
    <i name="XCdc">    401.54677324 </i>
    <i name="pawpsdc">  22641.31886467 </i>
    <i name="pawaedc"> -22533.21303711 </i>
    <i name="eentropy">      0.00000000 </i>
    <i name="bandstr">   -940.48692910 </i>
    <i name="atom">   8832.36675497 </i>
    <i name="e_fr_energy">   -140.45519138 </i>
    <i name="e_wo_entrp">   -140.45519138 </i>
    <i name="e_0_energy">   -140.45519138 </i>
   </energy>
  </scstep>
  <structure>
   <crystal>
    <varray name="basis" >
     <v>       8.57995288       0.00000000       0.00000000 </v>
     <v>      -1.77938609       8.39343121       0.00000000 </v>
     <v>      -3.40573288      -4.19193054      12.32510768 </v>
    </varray>
    <i name="volume">    887.59564142 </i>
    <varray name="rec_basis" >
     <v>       0.11655076       0.02470846       0.04060954 </v>
     <v>      -0.00000000       0.11914079       0.04052134 </v>
     <v>       0.00000000      -0.00000000       0.08113519 </v>
    </varray>
   </crystal>
   <varray name="positions" >
    <v>       0.04569055       0.64658026       0.90308284 </v>
    <v>       0.74148466       0.64234686       0.59559239 </v>
    <v>       0.85178033       0.45265735       0.59632980 </v>
    <v>       0.85674568       0.75816179       0.90269622 </v>
    <v>       0.95267344       0.35311091       0.09537119 </v>
    <v>       0.25622787       0.35749702       0.40287474 </v>
    <v>       0.14424730       0.54610660       0.40286118 </v>
    <v>       0.14273503       0.24315600       0.09564891 </v>
    <v>       0.26855647       0.81416900       0.00933242 </v>
    <v>       0.80472585       0.75871905       0.48967060 </v>
    <v>       0.68333728       0.22993791       0.49054172 </v>
    <v>       0.73871001       0.69589457       0.00809490 </v>
    <v>       0.73017661       0.18397925       0.98975338 </v>
    <v>       0.19469126       0.24026400       0.50882623 </v>
    <v>       0.31162823       0.76925940       0.50881393 </v>
    <v>       0.25949929       0.30603567       0.98983721 </v>
    <v>       0.31440309       0.76594146       0.15402255 </v>
    <v>       0.61221335       0.66123409       0.34477866 </v>
    <v>       0.73175476       0.18183022       0.34595959 </v>
    <v>       0.83569929       0.88848734       0.15285897 </v>
    <v>       0.68187637       0.23135137       0.84476548 </v>
    <v>       0.38779290       0.33820084       0.65341694 </v>
    <v>       0.26367649       0.81550950       0.65355313 </v>
    <v>       0.16224169       0.11347049       0.84505786 </v>
    <v>       0.24639098       0.93417269       0.26024694 </v>
    <v>       0.67334950       0.48609579       0.23859664 </v>
    <v>       0.56444180       0.24966591       0.23887609 </v>
    <v>       0.00917198       0.82672692       0.25989711 </v>
    <v>       0.75048787       0.06414210       0.73831259 </v>
    <v>       0.32602787       0.51163415       0.76030753 </v>
    <v>       0.43272279       0.74882575       0.76026271 </v>
    <v>       0.98690540       0.17390275       0.73839955 </v>
   </varray>
  </structure>
  <varray name="forces" >
   <v>       0.02575790      -0.07793392      -0.03344146 </v>
   <v>      -0.08088446       0.01319952       0.03420243 </v>
   <v>       0.08072726      -0.00622012       0.02569946 </v>
   <v>      -0.02659188       0.07478046      -0.03017731 </v>
   <v>      -0.02871598       0.07594144       0.03231723 </v>
   <v>       0.07797412      -0.00974754      -0.03061243 </v>
   <v>      -0.07995767       0.00786286      -0.03032329 </v>
   <v>       0.02740834      -0.07583564       0.03192810 </v>
   <v>       0.04052836       0.05076864      -0.03410713 </v>
   <v>       0.04025873       0.04507911       0.03549632 </v>
   <v>      -0.04092245      -0.05039399       0.03394337 </v>
   <v>      -0.04280494      -0.04994074      -0.03554747 </v>
   <v>      -0.03970305      -0.04990921       0.03331515 </v>
   <v>      -0.03908829      -0.05015259      -0.03624879 </v>
   <v>       0.04278475       0.05044933      -0.03251687 </v>
   <v>       0.03418750       0.05025572       0.03164913 </v>
   <v>       0.04167774      -0.05432962       0.02483079 </v>
   <v>      -0.05939525       0.03255471      -0.02650878 </v>
   <v>       0.06234243      -0.03086719      -0.02480337 </v>
   <v>      -0.04342250       0.05455873       0.02383475 </v>
   <v>      -0.04886561       0.05373891      -0.02253111 </v>
   <v>       0.06395947      -0.03469876       0.02555297 </v>
   <v>      -0.06382865       0.03365244       0.02392926 </v>
   <v>       0.04975476      -0.05606214      -0.02723543 </v>
   <v>       0.02420570       0.08328337       0.04042909 </v>
   <v>       0.07621611       0.03544629      -0.03494957 </v>
   <v>      -0.07623348      -0.03582473      -0.03286162 </v>
   <v>      -0.02015422      -0.08217057       0.03169757 </v>
   <v>      -0.01840554      -0.07890958      -0.02938411 </v>
   <v>      -0.07518799      -0.03741667       0.03420008 </v>
   <v>       0.07510761       0.03837854       0.03382301 </v>
   <v>       0.02127117       0.08046295      -0.03559998 </v>
  </varray>
  <varray name="stress" >
   <v>       0.54479666       0.08058744       0.01000766 </v>
   <v>       0.08058800       0.56093255       0.01682568 </v>
   <v>       0.01000741       0.01682575       0.06205564 </v>
  </varray>
  <energy>
   <i name="e_fr_energy">   -140.45519138 </i>
   <i name="e_wo_entrp">   -140.45519138 </i>
   <i name="e_0_energy">   -140.45519138 </i>
  </energy>
  <time name="totalsc">   11.75   11.86</time>
 </calculation>
 <calculation>
  <scstep>
   <time name="dav">    0.23    0.23</time>
   <time name="total">    0.61    0.62</time>
   <energy>
    <i name="alphaZ">    173.97324413 </i>
    <i name="ewald">  -6611.83585123 </i>
    <i name="hartreedc">  -2104.18072719 </i>
    <i name="XCdc">    401.11509775 </i>
    <i name="pawpsdc">  22641.53103095 </i>
    <i name="pawaedc"> -22533.42518395 </i>
    <i name="eentropy">      0.00000000 </i>
    <i name="bandstr">   -939.99866438 </i>
    <i name="atom">   8832.36675497 </i>
    <i name="e_fr_energy">   -140.45429896 </i>
    <i name="e_wo_entrp">   -140.45429896 </i>
    <i name="e_0_energy">   -140.45429896 </i>
   </energy>
  </scstep>
  <scstep>
   <time name="dav">    0.26    0.26</time>
   <time name="total">    0.65    0.65</time>
   <energy>
    <i name="e_fr_energy">   -140.45838124 </i>
    <i name="e_wo_entrp">   -140.45838124 </i>
    <i name="e_0_energy">   -140.45838124 </i>
   </energy>
  </scstep>
  <scstep>
   <time name="dav">    0.26    0.26</time>
   <time name="total">    0.64    0.64</time>
   <energy>
    <i name="e_fr_energy">   -140.45808652 </i>
    <i name="e_wo_entrp">   -140.45808652 </i>
    <i name="e_0_energy">   -140.45808652 </i>
   </energy>
  </scstep>
  <scstep>
   <time name="dav">    0.25    0.25</time>
   <time name="total">    0.63    0.63</time>
   <energy>
    <i name="e_fr_energy">   -140.45804877 </i>
    <i name="e_wo_entrp">   -140.45804877 </i>
    <i name="e_0_energy">   -140.45804877 </i>
   </energy>
  </scstep>
  <scstep>
   <time name="dav">    0.25    0.25</time>
   <time name="total">    0.64    0.64</time>
   <energy>
    <i name="e_fr_energy">   -140.45802113 </i>
    <i name="e_wo_entrp">   -140.45802113 </i>
    <i name="e_0_energy">   -140.45802113 </i>
   </energy>
  </scstep>
  <scstep>
   <time name="dav">    0.26    0.26</time>
   <time name="total">    0.65    0.65</time>
   <energy>
    <i name="e_fr_energy">   -140.45802240 </i>
    <i name="e_wo_entrp">   -140.45802240 </i>
    <i name="e_0_energy">   -140.45802240 </i>
   </energy>
  </scstep>
  <scstep>
   <time name="dav">    0.24    0.25</time>
   <time name="total">    0.63    0.63</time>
   <energy>
    <i name="e_fr_energy">   -140.45802270 </i>
    <i name="e_wo_entrp">   -140.45802270 </i>
    <i name="e_0_energy">   -140.45802270 </i>
   </energy>
  </scstep>
  <scstep>
   <time name="dav">    0.25    0.25</time>
   <time name="total">    0.63    0.64</time>
   <energy>
    <i name="e_fr_energy">   -140.45802190 </i>
    <i name="e_wo_entrp">   -140.45802190 </i>
    <i name="e_0_energy">   -140.45802190 </i>
   </energy>
  </scstep>
  <scstep>
   <time name="dav">    0.18    0.18</time>
   <time name="total">    0.57    0.58</time>
   <energy>
    <i name="e_fr_energy">   -140.45802150 </i>
    <i name="e_wo_entrp">   -140.45802150 </i>
    <i name="e_0_energy">   -140.45802150 </i>
   </energy>
  </scstep>
  <scstep>
   <time name="dav">    0.17    0.17</time>
   <time name="total">    0.57    0.57</time>
   <energy>
    <i name="e_fr_energy">   -140.45802124 </i>
    <i name="e_wo_entrp">   -140.45802124 </i>
    <i name="e_0_energy">   -140.45802124 </i>
   </energy>
  </scstep>
  <scstep>
   <time name="dav">    0.17    0.17</time>
   <time name="total">    0.50    0.51</time>
   <energy>
    <i name="alphaZ">    173.97324413 </i>
    <i name="ewald">  -6611.83585123 </i>
    <i name="hartreedc">  -2105.06612437 </i>
    <i name="XCdc">    401.15057857 </i>
    <i name="pawpsdc">  22349.80324732 </i>
    <i name="pawaedc"> -22241.61198555 </i>
    <i name="eentropy">      0.00000000 </i>
    <i name="bandstr">   -939.23788507 </i>
    <i name="atom">   8832.36675497 </i>
    <i name="e_fr_energy">   -140.45802125 </i>
    <i name="e_wo_entrp">   -140.45802125 </i>
    <i name="e_0_energy">   -140.45802125 </i>
   </energy>
  </scstep>
  <structure>
   <crystal>
    <varray name="basis" >
     <v>       8.58385684       0.00057748       0.00007171 </v>
     <v>      -1.77963079       8.39724365       0.00010308 </v>
     <v>      -3.40746165      -4.19395043      12.32565910 </v>
    </varray>
    <i name="volume">    888.46156164 </i>
    <varray name="rec_basis" >
     <v>       0.11649575       0.02468849       0.04060611 </v>
     <v>      -0.00000835       0.11908443       0.04051757 </v>
     <v>      -0.00000068      -0.00000114       0.08113099 </v>
    </varray>
   </crystal>
   <varray name="positions" >
    <v>       0.04567697       0.64606694       0.90295194 </v>
    <v>       0.74111261       0.64248959       0.59572627 </v>
    <v>       0.85227717       0.45267184       0.59643039 </v>
    <v>       0.85662618       0.75853261       0.90257810 </v>
    <v>       0.95266581       0.35361057       0.09549769 </v>
    <v>       0.25659470       0.35738115       0.40275491 </v>
    <v>       0.14374769       0.54609252       0.40274249 </v>
    <v>       0.14286130       0.24278254       0.09577388 </v>
    <v>       0.26877805       0.81439413       0.00919892 </v>
    <v>       0.80507549       0.75904754       0.48980954 </v>
    <v>       0.68311361       0.22971462       0.49067458 </v>
    <v>       0.73834016       0.69553803       0.00795576 </v>
    <v>       0.72995914       0.18375752       0.98988378 </v>
    <v>       0.19434068       0.23990487       0.50868434 </v>
    <v>       0.31186523       0.76948580       0.50868665 </v>
    <v>       0.25981343       0.30638639       0.98996109 </v>
    <v>       0.31462131       0.76567773       0.15411974 </v>
    <v>       0.61186626       0.66136938       0.34467490 </v>
    <v>       0.73201991       0.18160432       0.34586251 </v>
    <v>       0.83556687       0.88884752       0.15295226 </v>
    <v>       0.68162153       0.23161620       0.84467729 </v>
    <v>       0.38816123       0.33805136       0.65351696 </v>
    <v>       0.26340459       0.81574970       0.65364679 </v>
    <v>       0.16240126       0.11309502       0.84495126 </v>
    <v>       0.24670556       0.93473041       0.26040519 </v>
    <v>       0.67375183       0.48623121       0.23845984 </v>
    <v>       0.56390608       0.24939576       0.23874746 </v>
    <v>       0.00902281       0.82631660       0.26002118 </v>
    <v>       0.75023275       0.06363111       0.73819758 </v>
    <v>       0.32562751       0.51148594       0.76044140 </v>
    <v>       0.43325711       0.74911245       0.76039510 </v>
    <v>       0.98705117       0.17429563       0.73826021 </v>
   </varray>
  </structure>
  <varray name="forces" >
   <v>      -0.01046570       0.02193279       0.00834203 </v>
   <v>       0.02252617      -0.00469408      -0.00540128 </v>
   <v>      -0.02308825       0.00812814      -0.01360439 </v>
   <v>       0.01021010      -0.02355716       0.00863693 </v>
   <v>       0.00917184      -0.02316613      -0.00782876 </v>
   <v>      -0.02420489       0.00555045       0.00820648 </v>
   <v>       0.02344791      -0.00491191       0.01068513 </v>
   <v>      -0.01137609       0.02255942      -0.00845236 </v>
   <v>      -0.00153987      -0.04598666      -0.01370063 </v>
   <v>      -0.04434964      -0.01125056       0.01274094 </v>
   <v>       0.04512672       0.00981628       0.01313783 </v>
   <v>      -0.00194835       0.04559389      -0.01331491 </v>
   <v>      -0.00009051       0.04481451       0.01420453 </v>
   <v>       0.04585314       0.00811845      -0.01258892 </v>
   <v>      -0.04305865      -0.01036687      -0.01235650 </v>
   <v>      -0.00397630      -0.04520810       0.00984091 </v>
   <v>      -0.00176708       0.04670041       0.00990131 </v>
   <v>       0.04673174       0.00981755      -0.01041754 </v>
   <v>      -0.04456808      -0.00847278      -0.00959506 </v>
   <v>       0.00093487      -0.04567455       0.00888841 </v>
   <v>      -0.00286838      -0.04464250      -0.00817002 </v>
   <v>      -0.04469269      -0.01164505       0.00994236 </v>
   <v>       0.04436052       0.01110371       0.00878135 </v>
   <v>       0.00322747       0.04478016      -0.01131949 </v>
   <v>      -0.00952280      -0.02167600      -0.00815867 </v>
   <v>      -0.01769038      -0.01564845       0.01122834 </v>
   <v>       0.01744895       0.01532318       0.01250838 </v>
   <v>       0.01316579       0.02170720      -0.01357186 </v>
   <v>       0.01212511       0.02325464       0.01554156 </v>
   <v>       0.01942367       0.01533629      -0.01284737 </v>
   <v>      -0.01941107      -0.01489592      -0.01258278 </v>
   <v>      -0.00913528      -0.02274035       0.01132405 </v>
  </varray>
  <varray name="stress" >
   <v>      -2.69706781       0.21482934       0.00041308 </v>
   <v>       0.21483024      -2.60144492      -0.00668513 </v>
   <v>       0.00041305      -0.00668480      -3.15474951 </v>
  </varray>
  <energy>
   <i name="e_fr_energy">   -140.45802125 </i>
   <i name="e_wo_entrp">   -140.45802125 </i>
   <i name="e_0_energy">   -140.45802125 </i>
  </energy>
  <time name="totalsc">    8.61    8.63</time>
 </calculation>
 <calculation>
  <scstep>
   <time name="dav">    0.23    0.23</time>
   <time name="total">    0.61    0.62</time>
   <energy>
    <i name="alphaZ">    174.02699491 </i>
    <i name="ewald">  -6608.28634959 </i>
    <i name="hartreedc">  -2108.65601873 </i>
    <i name="XCdc">    401.28723165 </i>
    <i name="pawpsdc">  22349.35031903 </i>
    <i name="pawaedc"> -22241.15917605 </i>
    <i name="eentropy">      0.00000000 </i>
    <i name="bandstr">   -939.38815678 </i>
    <i name="atom">   8832.36675497 </i>
    <i name="e_fr_energy">   -140.45840059 </i>
    <i name="e_wo_entrp">   -140.45840059 </i>
    <i name="e_0_energy">   -140.45840059 </i>
   </energy>
  </scstep>
  <scstep>
   <time name="dav">    0.26    0.26</time>
   <time name="total">    0.64    0.65</time>
   <energy>
    <i name="e_fr_energy">   -140.45881645 </i>
    <i name="e_wo_entrp">   -140.45881645 </i>
    <i name="e_0_energy">   -140.45881645 </i>
   </energy>
  </scstep>
  <scstep>
   <time name="dav">    0.26    0.26</time>
   <time name="total">    0.64    0.64</time>
   <energy>
    <i name="e_fr_energy">   -140.45878808 </i>
    <i name="e_wo_entrp">   -140.45878808 </i>
    <i name="e_0_energy">   -140.45878808 </i>
   </energy>
  </scstep>
  <scstep>
   <time name="dav">    0.25    0.25</time>
   <time name="total">    0.63    0.63</time>
   <energy>
    <i name="e_fr_energy">   -140.45878714 </i>
    <i name="e_wo_entrp">   -140.45878714 </i>
    <i name="e_0_energy">   -140.45878714 </i>
   </energy>
  </scstep>
  <scstep>
   <time name="dav">    0.25    0.25</time>
   <time name="total">    0.64    0.64</time>
   <energy>
    <i name="e_fr_energy">   -140.45878493 </i>
    <i name="e_wo_entrp">   -140.45878493 </i>
    <i name="e_0_energy">   -140.45878493 </i>
   </energy>
  </scstep>
  <scstep>
   <time name="dav">    0.26    0.26</time>
   <time name="total">    0.65    0.65</time>
   <energy>
    <i name="e_fr_energy">   -140.45878531 </i>
    <i name="e_wo_entrp">   -140.45878531 </i>
    <i name="e_0_energy">   -140.45878531 </i>
   </energy>
  </scstep>
  <scstep>
   <time name="dav">    0.19    0.19</time>
   <time name="total">    0.58    0.58</time>
   <energy>
    <i name="e_fr_energy">   -140.45878566 </i>
    <i name="e_wo_entrp">   -140.45878566 </i>
    <i name="e_0_energy">   -140.45878566 </i>
   </energy>
  </scstep>
  <scstep>
   <time name="dav">    0.17    0.17</time>
   <time name="total">    0.56    0.56</time>
   <energy>
    <i name="e_fr_energy">   -140.45878600 </i>
    <i name="e_wo_entrp">   -140.45878600 </i>
    <i name="e_0_energy">   -140.45878600 </i>
   </energy>
  </scstep>
  <scstep>
   <time name="dav">    0.17    0.17</time>
   <time name="total">    0.50    0.50</time>
   <energy>
    <i name="alphaZ">    174.02699491 </i>
    <i name="ewald">  -6608.28634959 </i>
    <i name="hartreedc">  -2108.37555295 </i>
    <i name="XCdc">    401.27589523 </i>
    <i name="pawpsdc">  22439.41529463 </i>
    <i name="pawaedc"> -22331.25149693 </i>
    <i name="eentropy">      0.00000000 </i>
    <i name="bandstr">   -939.63032632 </i>
    <i name="atom">   8832.36675497 </i>
    <i name="e_fr_energy">   -140.45878604 </i>
    <i name="e_wo_entrp">   -140.45878604 </i>
    <i name="e_0_energy">   -140.45878604 </i>
   </energy>
  </scstep>
  <structure>
   <crystal>
    <varray name="basis" >
     <v>       8.58261988       0.00039451       0.00004899 </v>
     <v>      -1.77955326       8.39603569       0.00007042 </v>
     <v>      -3.40691390      -4.19331043      12.32548438 </v>
    </varray>
    <i name="volume">    888.18714729 </i>
    <varray name="rec_basis" >
     <v>       0.11651317       0.02469481       0.04060720 </v>
     <v>      -0.00000571       0.11910228       0.04051876 </v>
     <v>      -0.00000046      -0.00000078       0.08113232 </v>
    </varray>
   </crystal>
   <varray name="positions" >
    <v>       0.04568127       0.64622952       0.90299341 </v>
    <v>       0.74123043       0.64244437       0.59568385 </v>
    <v>       0.85211982       0.45266726       0.59639852 </v>
    <v>       0.85666404       0.75841517       0.90261552 </v>
    <v>       0.95266823       0.35345232       0.09545761 </v>
    <v>       0.25647853       0.35741787       0.40279288 </v>
    <v>       0.14390592       0.54609697       0.40278009 </v>
    <v>       0.14282129       0.24290081       0.09573429 </v>
    <v>       0.26870789       0.81432284       0.00924122 </v>
    <v>       0.80496475       0.75894350       0.48976552 </v>
    <v>       0.68318443       0.22978532       0.49063248 </v>
    <v>       0.73845729       0.69565095       0.00799984 </v>
    <v>       0.73002800       0.18382773       0.98984246 </v>
    <v>       0.19445171       0.24001861       0.50872929 </v>
    <v>       0.31179019       0.76941411       0.50872698 </v>
    <v>       0.25971394       0.30627531       0.98992184 </v>
    <v>       0.31455219       0.76576125       0.15408895 </v>
    <v>       0.61197619       0.66132653       0.34470778 </v>
    <v>       0.73193594       0.18167588       0.34589327 </v>
    <v>       0.83560880       0.88873344       0.15292270 </v>
    <v>       0.68170225       0.23153232       0.84470523 </v>
    <v>       0.38804457       0.33809870       0.65348527 </v>
    <v>       0.26349070       0.81567362       0.65361712 </v>
    <v>       0.16235072       0.11321394       0.84498503 </v>
    <v>       0.24660593       0.93455377       0.26035506 </v>
    <v>       0.67362442       0.48618834       0.23850318 </v>
    <v>       0.56407574       0.24948132       0.23878821 </v>
    <v>       0.00907004       0.82644654       0.25998187 </v>
    <v>       0.75031355       0.06379295       0.73823402 </v>
    <v>       0.32575429       0.51153286       0.76039899 </v>
    <v>       0.43308789       0.74902165       0.76035316 </v>
    <v>       0.98700502       0.17417122       0.73830436 </v>
   </varray>
  </structure>
  <varray name="forces" >
   <v>       0.00090742      -0.00960709      -0.00485170 </v>
   <v>      -0.01012339       0.00089787       0.00710510 </v>
   <v>       0.00968270       0.00365829      -0.00120181 </v>
   <v>      -0.00135202       0.00749230      -0.00361780 </v>
   <v>      -0.00273878       0.00812727       0.00484365 </v>
   <v>       0.00805594       0.00077497      -0.00404737 </v>
   <v>      -0.00919073      -0.00093315      -0.00225964 </v>
   <v>       0.00080881      -0.00851800       0.00429704 </v>
   <v>       0.01173923      -0.01543769      -0.02015913 </v>
   <v>      -0.01764407       0.00652406       0.01993948 </v>
   <v>       0.01795578      -0.00918765       0.01972421 </v>
   <v>      -0.01484447       0.01543295      -0.02035228 </v>
   <v>      -0.01259159       0.01491234       0.02025637 </v>
   <v>       0.01904190      -0.01027099      -0.02006959 </v>
   <v>      -0.01595432       0.00883047      -0.01873424 </v>
   <v>       0.00806765      -0.01507028       0.01673524 </v>
   <v>       0.01194736       0.01481234       0.01462242 </v>
   <v>       0.01323591       0.01699945      -0.01550439 </v>
   <v>      -0.01082387      -0.01554023      -0.01440331 </v>
   <v>      -0.01306738      -0.01403960       0.01360961 </v>
   <v>      -0.01739443      -0.01358543      -0.01270326 </v>
   <v>      -0.01039347      -0.01893005       0.01487252 </v>
   <v>       0.01021266       0.01822555       0.01356608 </v>
   <v>       0.01792195       0.01295293      -0.01634777 </v>
   <v>       0.00106985       0.01145756       0.00716923 </v>
   <v>       0.01196439       0.00043054      -0.00333888 </v>
   <v>      -0.01213453      -0.00077500      -0.00179990 </v>
   <v>       0.00270177      -0.01108568       0.00070963 </v>
   <v>       0.00254017      -0.00899474       0.00136991 </v>
   <v>      -0.01045525      -0.00126530       0.00199397 </v>
   <v>       0.01044125       0.00187423       0.00205544 </v>
   <v>       0.00041354       0.00983776      -0.00347884 </v>
  </varray>
  <varray name="stress" >
   <v>      -1.67217764       0.17236713       0.00391182 </v>
   <v>       0.17236781      -1.60223133       0.00102660 </v>
   <v>       0.00391189       0.00102635      -2.13999090 </v>
  </varray>
  <energy>
   <i name="e_fr_energy">   -140.45878604 </i>
   <i name="e_wo_entrp">   -140.45878604 </i>
   <i name="e_0_energy">   -140.45878604 </i>
  </energy>
  <time name="totalsc">    7.34    7.36</time>
 </calculation>
 <calculation>
  <scstep>
   <time name="dav">    0.23    0.23</time>
   <time name="total">    0.61    0.61</time>
   <energy>
    <i name="alphaZ">    174.68779184 </i>
    <i name="ewald">  -6623.54538296 </i>
    <i name="hartreedc">  -2105.37672436 </i>
    <i name="XCdc">    401.68085992 </i>
    <i name="pawpsdc">  22439.59855171 </i>
    <i name="pawaedc"> -22331.43471621 </i>
    <i name="eentropy">      0.00000000 </i>
    <i name="bandstr">   -928.44900988 </i>
    <i name="atom">   8832.36675497 </i>
    <i name="e_fr_energy">   -140.47187497 </i>
    <i name="e_wo_entrp">   -140.47187497 </i>
    <i name="e_0_energy">   -140.47187497 </i>
   </energy>
  </scstep>
  <scstep>
   <time name="dav">    0.24    0.24</time>
   <time name="total">    0.62    0.63</time>
   <energy>
    <i name="e_fr_energy">   -140.46540173 </i>
    <i name="e_wo_entrp">   -140.46540173 </i>
    <i name="e_0_energy">   -140.46540173 </i>
   </energy>
  </scstep>
  <scstep>
   <time name="dav">    0.25    0.25</time>
   <time name="total">    0.64    0.64</time>
   <energy>
    <i name="e_fr_energy">   -140.46360241 </i>
    <i name="e_wo_entrp">   -140.46360241 </i>
    <i name="e_0_energy">   -140.46360241 </i>
   </energy>
  </scstep>
  <scstep>
   <time name="dav">    0.24    0.24</time>
   <time name="total">    0.63    0.63</time>
   <energy>
    <i name="e_fr_energy">   -140.46314720 </i>
    <i name="e_wo_entrp">   -140.46314720 </i>
    <i name="e_0_energy">   -140.46314720 </i>
   </energy>
  </scstep>
  <scstep>
   <time name="dav">    0.27    0.27</time>
   <time name="total">    0.66    0.66</time>
   <energy>
    <i name="e_fr_energy">   -140.46315645 </i>
    <i name="e_wo_entrp">   -140.46315645 </i>
    <i name="e_0_energy">   -140.46315645 </i>
   </energy>
  </scstep>
  <scstep>
   <time name="dav">    0.25    0.25</time>
   <time name="total">    0.64    0.64</time>
   <energy>
    <i name="e_fr_energy">   -140.46316595 </i>
    <i name="e_wo_entrp">   -140.46316595 </i>
    <i name="e_0_energy">   -140.46316595 </i>
   </energy>
  </scstep>
  <scstep>
   <time name="dav">    0.26    0.26</time>
   <time name="total">    0.65    0.65</time>
   <energy>
    <i name="e_fr_energy">   -140.46316938 </i>
    <i name="e_wo_entrp">   -140.46316938 </i>
    <i name="e_0_energy">   -140.46316938 </i>
   </energy>
  </scstep>
  <scstep>
   <time name="dav">    0.21    0.21</time>
   <time name="total">    0.60    0.60</time>
   <energy>
    <i name="e_fr_energy">   -140.46317003 </i>
    <i name="e_wo_entrp">   -140.46317003 </i>
    <i name="e_0_energy">   -140.46317003 </i>
   </energy>
  </scstep>
  <scstep>
   <time name="dav">    0.18    0.18</time>
   <time name="total">    0.51    0.51</time>
   <energy>
    <i name="alphaZ">    174.68779184 </i>
    <i name="ewald">  -6623.54538296 </i>
    <i name="hartreedc">  -2098.79849109 </i>
    <i name="XCdc">    401.36373034 </i>
    <i name="pawpsdc">  22472.60994160 </i>
    <i name="pawaedc"> -22364.45390395 </i>
    <i name="eentropy">      0.00000000 </i>
    <i name="bandstr">   -934.69361072 </i>
    <i name="atom">   8832.36675497 </i>
    <i name="e_fr_energy">   -140.46316998 </i>
    <i name="e_wo_entrp">   -140.46316998 </i>
    <i name="e_0_energy">   -140.46316998 </i>
   </energy>
  </scstep>
  <structure>
   <crystal>
    <varray name="basis" >
     <v>       8.57319125       0.00181921       0.00010836 </v>
     <v>      -1.77620414       8.38702851       0.00011927 </v>
     <v>      -3.40378204      -4.18943519      12.30507842 </v>
    </varray>
    <i name="volume">    884.82737419 </i>
    <varray name="rec_basis" >
     <v>       0.11663692       0.02470078       0.04067337 </v>
     <v>      -0.00002581       0.11922570       0.04058491 </v>
     <v>      -0.00000103      -0.00000137       0.08126651 </v>
    </varray>
   </crystal>
   <varray name="positions" >
    <v>       0.04566015       0.64593167       0.90291511 </v>
    <v>       0.74101921       0.64252820       0.59577180 </v>
    <v>       0.85240232       0.45269143       0.59644062 </v>
    <v>       0.85660340       0.75862027       0.90254765 </v>
    <v>       0.95266824       0.35373589       0.09553385 </v>
    <v>       0.25668393       0.35736105       0.40272264 </v>
    <v>       0.14362142       0.54608131       0.40271693 </v>
    <v>       0.14288231       0.24269022       0.09580782 </v>
    <v>       0.26881788       0.81430689       0.00910559 </v>
    <v>       0.80507734       0.75916696       0.48990286 </v>
    <v>       0.68320154       0.22966879       0.49076622 </v>
    <v>       0.73818807       0.69553195       0.00786090 </v>
    <v>       0.72991502       0.18384260       0.98997702 </v>
    <v>       0.19434163       0.23976059       0.50859012 </v>
    <v>       0.31179120       0.76953197       0.50859945 </v>
    <v>       0.25991550       0.30638696       0.99004047 </v>
    <v>       0.31475933       0.76574584       0.15418749 </v>
    <v>       0.61187596       0.66145216       0.34460296 </v>
    <v>       0.73195774       0.18146145       0.34579558 </v>
    <v>       0.83548811       0.88884929       0.15301573 </v>
    <v>       0.68145441       0.23155836       0.84461789 </v>
    <v>       0.38816627       0.33795496       0.65358604 </v>
    <v>       0.26346402       0.81590757       0.65371015 </v>
    <v>       0.16250329       0.11308016       0.84487581 </v>
    <v>       0.24678290       0.93488635       0.26045450 </v>
    <v>       0.67386771       0.48624711       0.23842769 </v>
    <v>       0.56376007       0.24934899       0.23872215 </v>
    <v>       0.00900426       0.82619853       0.26004184 </v>
    <v>       0.75020148       0.06351086       0.73818587 </v>
    <v>       0.32551645       0.51146122       0.76046819 </v>
    <v>       0.43339569       0.74916802       0.76042190 </v>
    <v>       0.98707915       0.17439937       0.73822718 </v>
   </varray>
  </structure>
  <varray name="forces" >
   <v>      -0.00550304      -0.00351256      -0.01777484 </v>
   <v>      -0.00348723      -0.00572593       0.02033155 </v>
   <v>       0.00306867       0.00787694       0.01472936 </v>
   <v>       0.00522646       0.00238158      -0.01873033 </v>
   <v>       0.00427100       0.00252248       0.01885097 </v>
   <v>       0.00251776       0.00598279      -0.01874861 </v>
   <v>      -0.00277662      -0.00483282      -0.01600095 </v>
   <v>      -0.00678772      -0.00306775       0.01781148 </v>
   <v>       0.02188622      -0.01686961      -0.01870451 </v>
   <v>      -0.02021998       0.01929664       0.01777089 </v>
   <v>       0.02122137      -0.01877874       0.01825791 </v>
   <v>      -0.02500259       0.01617385      -0.01848964 </v>
   <v>      -0.02408497       0.01495136       0.02018954 </v>
   <v>       0.02187668      -0.02154187      -0.01728390 </v>
   <v>      -0.01967793       0.01885373      -0.01803841 </v>
   <v>       0.02096299      -0.01551603       0.01547790 </v>
   <v>       0.02250548       0.01847578       0.01673157 </v>
   <v>       0.01367163       0.02744899      -0.01686196 </v>
   <v>      -0.01215925      -0.02623363      -0.01639707 </v>
   <v>      -0.02269469      -0.01715270       0.01572339 </v>
   <v>      -0.02557966      -0.01627322      -0.01500377 </v>
   <v>      -0.01228075      -0.02824457       0.01626076 </v>
   <v>       0.01220297       0.02772645       0.01570852 </v>
   <v>       0.02573846       0.01710412      -0.01755434 </v>
   <v>      -0.00772850      -0.00110374       0.01538025 </v>
   <v>       0.00287420      -0.00863378      -0.01367069 </v>
   <v>      -0.00286943       0.00789074      -0.01307041 </v>
   <v>       0.01035686       0.00049429       0.01229549 </v>
   <v>       0.00896266       0.00110240      -0.01037377 </v>
   <v>      -0.00079009       0.00822133       0.01214203 </v>
   <v>       0.00063411      -0.00781972       0.01236507 </v>
   <v>      -0.00633505      -0.00119679      -0.01332349 </v>
  </varray>
  <varray name="stress" >
   <v>      -1.44779751       0.10608750       0.00088248 </v>
   <v>       0.10608767      -1.39121609      -0.01156220 </v>
   <v>       0.00088234      -0.01156157      -1.23370025 </v>
  </varray>
  <energy>
   <i name="e_fr_energy">   -140.46316998 </i>
   <i name="e_wo_entrp">   -140.46316998 </i>
   <i name="e_0_energy">   -140.46316998 </i>
  </energy>
  <time name="totalsc">    7.44    7.47</time>
 </calculation>
 <calculation>
  <scstep>
   <time name="dav">    0.22    0.23</time>
   <time name="total">    0.61    0.61</time>
   <energy>
    <i name="alphaZ">    176.69067055 </i>
    <i name="ewald">  -6669.43042580 </i>
    <i name="hartreedc">  -2089.86185423 </i>
    <i name="XCdc">    402.58381850 </i>
    <i name="pawpsdc">  22472.30059827 </i>
    <i name="pawaedc"> -22364.14459994 </i>
    <i name="eentropy">      0.00000000 </i>
    <i name="bandstr">   -901.05355808 </i>
    <i name="atom">   8832.36675497 </i>
    <i name="e_fr_energy">   -140.54859576 </i>
    <i name="e_wo_entrp">   -140.54859576 </i>
    <i name="e_0_energy">   -140.54859576 </i>
   </energy>
  </scstep>
  <scstep>
   <time name="dav">    0.24    0.24</time>
   <time name="total">    0.63    0.63</time>
   <energy>
    <i name="e_fr_energy">   -140.49022588 </i>
    <i name="e_wo_entrp">   -140.49022588 </i>
    <i name="e_0_energy">   -140.49022588 </i>
   </energy>
  </scstep>
  <scstep>
   <time name="dav">    0.25    0.25</time>
   <time name="total">    0.64    0.64</time>
   <energy>
    <i name="e_fr_energy">   -140.47388937 </i>
    <i name="e_wo_entrp">   -140.47388937 </i>
    <i name="e_0_energy">   -140.47388937 </i>
   </energy>
  </scstep>
  <scstep>
   <time name="dav">    0.24    0.25</time>
   <time name="total">    0.63    0.63</time>
   <energy>
    <i name="e_fr_energy">   -140.46979669 </i>
    <i name="e_wo_entrp">   -140.46979669 </i>
    <i name="e_0_energy">   -140.46979669 </i>
   </energy>
  </scstep>
  <scstep>
   <time name="dav">    0.27    0.27</time>
   <time name="total">    0.66    0.66</time>
   <energy>
    <i name="e_fr_energy">   -140.46976917 </i>
    <i name="e_wo_entrp">   -140.46976917 </i>
    <i name="e_0_energy">   -140.46976917 </i>
   </energy>
  </scstep>
  <scstep>
   <time name="dav">    0.25    0.25</time>
   <time name="total">    0.64    0.64</time>
   <energy>
    <i name="e_fr_energy">   -140.46978635 </i>
    <i name="e_wo_entrp">   -140.46978635 </i>
    <i name="e_0_energy">   -140.46978635 </i>
   </energy>
  </scstep>
  <scstep>
   <time name="dav">    0.26    0.26</time>
   <time name="total">    0.65    0.65</time>
   <energy>
    <i name="e_fr_energy">   -140.46979790 </i>
    <i name="e_wo_entrp">   -140.46979790 </i>
    <i name="e_0_energy">   -140.46979790 </i>
   </energy>
  </scstep>
  <scstep>
   <time name="dav">    0.26    0.26</time>
   <time name="total">    0.65    0.65</time>
   <energy>
    <i name="e_fr_energy">   -140.46980021 </i>
    <i name="e_wo_entrp">   -140.46980021 </i>
    <i name="e_0_energy">   -140.46980021 </i>
   </energy>
  </scstep>
  <scstep>
   <time name="dav">    0.25    0.26</time>
   <time name="total">    0.64    0.65</time>
   <energy>
    <i name="e_fr_energy">   -140.46980017 </i>
    <i name="e_wo_entrp">   -140.46980017 </i>
    <i name="e_0_energy">   -140.46980017 </i>
   </energy>
  </scstep>
  <scstep>
   <time name="dav">    0.19    0.19</time>
   <time name="total">    0.58    0.58</time>
   <energy>
    <i name="e_fr_energy">   -140.46980042 </i>
    <i name="e_wo_entrp">   -140.46980042 </i>
    <i name="e_0_energy">   -140.46980042 </i>
   </energy>
  </scstep>
  <scstep>
   <time name="dav">    0.17    0.17</time>
   <time name="total">    0.57    0.57</time>
   <energy>
    <i name="e_fr_energy">   -140.46980029 </i>
    <i name="e_wo_entrp">   -140.46980029 </i>
    <i name="e_0_energy">   -140.46980029 </i>
   </energy>
  </scstep>
  <scstep>
   <time name="dav">    0.17    0.17</time>
   <time name="total">    0.56    0.57</time>
   <energy>
    <i name="e_fr_energy">   -140.46980044 </i>
    <i name="e_wo_entrp">   -140.46980044 </i>
    <i name="e_0_energy">   -140.46980044 </i>
   </energy>
  </scstep>
  <scstep>
   <time name="dav">    0.17    0.17</time>
   <time name="total">    0.50    0.51</time>
   <energy>
    <i name="alphaZ">    176.69067055 </i>
    <i name="ewald">  -6669.43042580 </i>
    <i name="hartreedc">  -2070.11795190 </i>
    <i name="XCdc">    401.63120195 </i>
    <i name="pawpsdc">  22570.17354710 </i>
    <i name="pawaedc"> -22462.04177451 </i>
    <i name="eentropy">      0.00000000 </i>
    <i name="bandstr">   -919.74182279 </i>
    <i name="atom">   8832.36675497 </i>
    <i name="e_fr_energy">   -140.46980043 </i>
    <i name="e_wo_entrp">   -140.46980043 </i>
    <i name="e_0_energy">   -140.46980043 </i>
   </energy>
  </scstep>
  <structure>
   <crystal>
    <varray name="basis" >
     <v>       8.54490537       0.00609332       0.00028648 </v>
     <v>      -1.76615678       8.36000697       0.00026584 </v>
     <v>      -3.39438648      -4.17780946      12.24386053 </v>
    </varray>
    <i name="volume">    874.79740541 </i>
    <varray name="rec_basis" >
     <v>       0.11700980       0.02471849       0.04087319 </v>
     <v>      -0.00008665       0.11959752       0.04078465 </v>
     <v>      -0.00000274      -0.00000318       0.08167174 </v>
    </varray>
   </crystal>
   <varray name="positions" >
    <v>       0.04559678       0.64503707       0.90267981 </v>
    <v>       0.74038494       0.64278017       0.59603607 </v>
    <v>       0.85325077       0.45276394       0.59656713 </v>
    <v>       0.85642108       0.75923616       0.90234368 </v>
    <v>       0.95266821       0.35458759       0.09576295 </v>
    <v>       0.25730073       0.35719024       0.40251158 </v>
    <v>       0.14276692       0.54603435       0.40252715 </v>
    <v>       0.14306574       0.24205782       0.09602879 </v>
    <v>       0.26914806       0.81425879       0.00869803 </v>
    <v>       0.80541549       0.75983814       0.49031554 </v>
    <v>       0.68325311       0.22931895       0.49116810 </v>
    <v>       0.73737944       0.69517456       0.00744339 </v>
    <v>       0.72957585       0.18388746       0.99038134 </v>
    <v>       0.19401102       0.23898561       0.50817191 </v>
    <v>       0.31179404       0.76988579       0.50821623 </v>
    <v>       0.26052091       0.30672228       0.99039693 </v>
    <v>       0.31538152       0.76569955       0.15448360 </v>
    <v>       0.61157475       0.66182940       0.34428800 </v>
    <v>       0.73202321       0.18081736       0.34550203 </v>
    <v>       0.83512567       0.88919739       0.15329527 </v>
    <v>       0.68070996       0.23163660       0.84435542 </v>
    <v>       0.38853195       0.33752333       0.65388884 </v>
    <v>       0.26338389       0.81661031       0.65398973 </v>
    <v>       0.16296143       0.11267817       0.84454761 </v>
    <v>       0.24731433       0.93588517       0.26075332 </v>
    <v>       0.67459824       0.48642341       0.23820084 </v>
    <v>       0.56281204       0.24895168       0.23852363 </v>
    <v>       0.00880693       0.82545381       0.26022204 </v>
    <v>       0.74986502       0.06266369       0.73804117 </v>
    <v>       0.32480231       0.51124627       0.76067615 </v>
    <v>       0.43432009       0.74960750       0.76062846 </v>
    <v>       0.98730158       0.17508446       0.73799525 </v>
   </varray>
  </structure>
  <varray name="forces" >
   <v>      -0.02488586       0.01422535      -0.05685466 </v>
   <v>       0.01586867      -0.02608902       0.06038239 </v>
   <v>      -0.01639548       0.02092639       0.06289684 </v>
   <v>       0.02520830      -0.01229225      -0.06436658 </v>
   <v>       0.02555328      -0.01361911       0.06117705 </v>
   <v>      -0.01366748       0.02211863      -0.06312022 </v>
   <v>       0.01599264      -0.01679564      -0.05749694 </v>
   <v>      -0.02986597       0.01279795       0.05867713 </v>
   <v>       0.05268042      -0.02049105      -0.01425564 </v>
   <v>      -0.02713237       0.05843026       0.01110956 </v>
   <v>       0.03039348      -0.04825954       0.01382767 </v>
   <v>      -0.05596259       0.01761618      -0.01288624 </v>
   <v>      -0.05903471       0.01430244       0.01984982 </v>
   <v>       0.02967545      -0.05608920      -0.00885090 </v>
   <v>      -0.03028677       0.04949166      -0.01592304 </v>
   <v>       0.06020686      -0.01595186       0.01154658 </v>
   <v>       0.05448513       0.02877706       0.02283804 </v>
   <v>       0.01425864       0.05897420      -0.02072577 </v>
   <v>      -0.01552712      -0.05867357      -0.02215708 </v>
   <v>      -0.05191691      -0.02590774       0.02188703 </v>
   <v>      -0.05051794      -0.02380126      -0.02184382 </v>
   <v>      -0.01721776      -0.05636792       0.02025407 </v>
   <v>       0.01753564       0.05638324       0.02205702 </v>
   <v>       0.04953104       0.02900331      -0.02094671 </v>
   <v>      -0.03401993      -0.03848638       0.04035639 </v>
   <v>      -0.02393855      -0.03583990      -0.04495595 </v>
   <v>       0.02456732       0.03389632      -0.04717036 </v>
   <v>       0.03332043       0.03481243       0.04733564 </v>
   <v>       0.02827858       0.03096913      -0.04584236 </v>
   <v>       0.02786403       0.03650674       0.04277139 </v>
   <v>      -0.02849859      -0.03680513       0.04353202 </v>
   <v>      -0.02655189      -0.03376172      -0.04310238 </v>
  </varray>
  <varray name="stress" >
   <v>      -0.71323275      -0.10099346      -0.01016712 </v>
   <v>      -0.10099280      -0.70141328      -0.05023902 </v>
   <v>      -0.01016676      -0.05023882       1.59147801 </v>
  </varray>
  <energy>
   <i name="e_fr_energy">   -140.46980043 </i>
   <i name="e_wo_entrp">   -140.46980043 </i>
   <i name="e_0_energy">   -140.46980043 </i>
  </energy>
  <time name="totalsc">    9.87    9.90</time>
 </calculation>
 <calculation>
  <scstep>
   <time name="dav">    0.23    0.23</time>
   <time name="total">    0.62    0.62</time>
   <energy>
    <i name="alphaZ">    177.14925726 </i>
    <i name="ewald">  -6682.52653531 </i>
    <i name="hartreedc">  -2065.91871707 </i>
    <i name="XCdc">    401.88501190 </i>
    <i name="pawpsdc">  22570.18226520 </i>
    <i name="pawaedc"> -22462.05048591 </i>
    <i name="eentropy">      0.00000000 </i>
    <i name="bandstr">   -911.56480113 </i>
    <i name="atom">   8832.36675497 </i>
    <i name="e_fr_energy">   -140.47725010 </i>
    <i name="e_wo_entrp">   -140.47725010 </i>
    <i name="e_0_energy">   -140.47725010 </i>
   </energy>
  </scstep>
  <scstep>
   <time name="dav">    0.25    0.25</time>
   <time name="total">    0.64    0.64</time>
   <energy>
    <i name="e_fr_energy">   -140.47482267 </i>
    <i name="e_wo_entrp">   -140.47482267 </i>
    <i name="e_0_energy">   -140.47482267 </i>
   </energy>
  </scstep>
  <scstep>
   <time name="dav">    0.27    0.27</time>
   <time name="total">    0.66    0.66</time>
   <energy>
    <i name="e_fr_energy">   -140.47392946 </i>
    <i name="e_wo_entrp">   -140.47392946 </i>
    <i name="e_0_energy">   -140.47392946 </i>
   </energy>
  </scstep>
  <scstep>
   <time name="dav">    0.24    0.24</time>
   <time name="total">    0.63    0.63</time>
   <energy>
    <i name="e_fr_energy">   -140.47358149 </i>
    <i name="e_wo_entrp">   -140.47358149 </i>
    <i name="e_0_energy">   -140.47358149 </i>
   </energy>
  </scstep>
  <scstep>
   <time name="dav">    0.25    0.25</time>
   <time name="total">    0.64    0.64</time>
   <energy>
    <i name="e_fr_energy">   -140.47359580 </i>
    <i name="e_wo_entrp">   -140.47359580 </i>
    <i name="e_0_energy">   -140.47359580 </i>
   </energy>
  </scstep>
  <scstep>
   <time name="dav">    0.26    0.26</time>
   <time name="total">    0.65    0.65</time>
   <energy>
    <i name="e_fr_energy">   -140.47360170 </i>
    <i name="e_wo_entrp">   -140.47360170 </i>
    <i name="e_0_energy">   -140.47360170 </i>
   </energy>
  </scstep>
  <scstep>
   <time name="dav">    0.25    0.25</time>
   <time name="total">    0.64    0.64</time>
   <energy>
    <i name="e_fr_energy">   -140.47360248 </i>
    <i name="e_wo_entrp">   -140.47360248 </i>
    <i name="e_0_energy">   -140.47360248 </i>
   </energy>
  </scstep>
  <scstep>
   <time name="dav">    0.25    0.25</time>
   <time name="total">    0.64    0.64</time>
   <energy>
    <i name="e_fr_energy">   -140.47360336 </i>
    <i name="e_wo_entrp">   -140.47360336 </i>
    <i name="e_0_energy">   -140.47360336 </i>
   </energy>
  </scstep>
  <scstep>
   <time name="dav">    0.18    0.18</time>
   <time name="total">    0.51    0.51</time>
   <energy>
    <i name="alphaZ">    177.14925726 </i>
    <i name="ewald">  -6682.52653531 </i>
    <i name="hartreedc">  -2061.06919481 </i>
    <i name="XCdc">    401.65280076 </i>
    <i name="pawpsdc">  22570.21918401 </i>
    <i name="pawaedc"> -22462.08415326 </i>
    <i name="eentropy">      0.00000000 </i>
    <i name="bandstr">   -916.18171704 </i>
    <i name="atom">   8832.36675497 </i>
    <i name="e_fr_energy">   -140.47360343 </i>
    <i name="e_wo_entrp">   -140.47360343 </i>
    <i name="e_0_energy">   -140.47360343 </i>
   </energy>
  </scstep>
  <structure>
   <crystal>
    <varray name="basis" >
     <v>       8.53597166       0.00675141       0.00029437 </v>
     <v>      -1.76366035       8.35152475       0.00014533 </v>
     <v>      -3.39115052      -4.17407684      12.23721796 </v>
    </varray>
    <i name="volume">    872.53281529 </i>
    <varray name="rec_basis" >
     <v>       0.11713031       0.02473466       0.04089580 </v>
     <v>      -0.00009610       0.11971761       0.04080867 </v>
     <v>      -0.00000282      -0.00000202       0.08171645 </v>
    </varray>
   </crystal>
   <varray name="positions" >
    <v>       0.04547186       0.64481312       0.90251981 </v>
    <v>       0.74031903       0.64282462       0.59620938 </v>
    <v>       0.85347635       0.45289516       0.59671267 </v>
    <v>       0.85637849       0.75928836       0.90217721 </v>
    <v>       0.95278433       0.35480707       0.09592945 </v>
    <v>       0.25736362       0.35715164       0.40234573 </v>
    <v>       0.14254612       0.54592521       0.40237667 </v>
    <v>       0.14309135       0.24199790       0.09618878 </v>
    <v>       0.26933986       0.81417890       0.00857593 </v>
    <v>       0.80546613       0.76016356       0.49043304 </v>
    <v>       0.68333138       0.22911947       0.49128807 </v>
    <v>       0.73703988       0.69512640       0.00732149 </v>
    <v>       0.72936688       0.18395505       0.99051298 </v>
    <v>       0.19397225       0.23864420       0.50805727 </v>
    <v>       0.31172759       0.77008759       0.50809679 </v>
    <v>       0.26082363       0.30676851       0.99050202 </v>
    <v>       0.31570844       0.76578715       0.15459528 </v>
    <v>       0.61155528       0.66205782       0.34417577 </v>
    <v>       0.73194452       0.18048755       0.34539221 </v>
    <v>       0.83490941       0.88922961       0.15340131 </v>
    <v>       0.68036849       0.23157085       0.84425349 </v>
    <v>       0.38855977       0.33728873       0.65399735 </v>
    <v>       0.26346306       0.81694762       0.65409608 </v>
    <v>       0.16319645       0.11264250       0.84443186 </v>
    <v>       0.24736506       0.93605308       0.26089789 </v>
    <v>       0.67464513       0.48632675       0.23806473 </v>
    <v>       0.56262970       0.24890643       0.23839010 </v>
    <v>       0.00891163       0.82541634       0.26035156 </v>
    <v>       0.74983570       0.06250610       0.73792275 </v>
    <v>       0.32476797       0.51133363       0.76080379 </v>
    <v>       0.43448154       0.74965147       0.76075718 </v>
    <v>       0.98722509       0.17511462       0.73786136 </v>
   </varray>
  </structure>
  <varray name="forces" >
   <v>      -0.00978483       0.01087390      -0.05173552 </v>
   <v>       0.01184568      -0.01004374       0.05246014 </v>
   <v>      -0.01098876       0.00651627       0.05853793 </v>
   <v>       0.00859304      -0.01008440      -0.05821714 </v>
   <v>       0.00948561      -0.01102306       0.05568697 </v>
   <v>      -0.00977216       0.00663171      -0.05573914 </v>
   <v>       0.01093066      -0.00409240      -0.05272384 </v>
   <v>      -0.01288518       0.01082217       0.05199397 </v>
   <v>       0.04946405      -0.02679699      -0.00445015 </v>
   <v>      -0.03475689       0.05227355       0.00334595 </v>
   <v>       0.03667037      -0.04340852       0.00439517 </v>
   <v>      -0.05126832       0.02551402      -0.00409872 </v>
   <v>      -0.05569675       0.02282334       0.00906789 </v>
   <v>       0.03629038      -0.04914151      -0.00221957 </v>
   <v>      -0.03607263       0.04510412      -0.00656931 </v>
   <v>       0.05665608      -0.02353622       0.00419930 </v>
   <v>       0.05487523       0.03225286       0.00961537 </v>
   <v>       0.01930263       0.05901934      -0.00809917 </v>
   <v>      -0.02071190      -0.05871468      -0.01047029 </v>
   <v>      -0.05111746      -0.03056275       0.00946274 </v>
   <v>      -0.04853831      -0.03004206      -0.00817655 </v>
   <v>      -0.02063967      -0.05661285       0.00775420 </v>
   <v>       0.02170266       0.05645582       0.00982392 </v>
   <v>       0.04858011       0.03325010      -0.00809815 </v>
   <v>      -0.01385446      -0.02853168       0.03824219 </v>
   <v>      -0.02027887      -0.01558357      -0.04231324 </v>
   <v>       0.02106056       0.01338515      -0.04454567 </v>
   <v>       0.01181479       0.02541910       0.04511736 </v>
   <v>       0.00820969       0.02269082      -0.04366587 </v>
   <v>       0.02253680       0.01573007       0.04108803 </v>
   <v>      -0.02359386      -0.01568953       0.04152925 </v>
[...]
        <r>  0.0024  0.0055  0.0000 </r>
        <r>  0.0024  0.0056  0.0000 </r>
        <r>  0.0024  0.0062  0.0000 </r>
        <r>  0.0025  0.0056  0.0000 </r>
        <r>  0.0024  0.0061  0.0000 </r>
        <r>  0.0024  0.0061  0.0000 </r>
        <r>  0.0024  0.0055  0.0000 </r>
        <r>  0.0012  0.0168  0.0000 </r>
        <r>  0.0011  0.0160  0.0000 </r>
        <r>  0.0010  0.0154  0.0000 </r>
        <r>  0.0012  0.0164  0.0000 </r>
        <r>  0.0010  0.0156  0.0000 </r>
        <r>  0.0012  0.0163  0.0000 </r>
        <r>  0.0013  0.0170  0.0000 </r>
        <r>  0.0011  0.0160  0.0000 </r>
        <r>  0.0056  0.0228  0.0000 </r>
        <r>  0.0053  0.0213  0.0000 </r>
        <r>  0.0051  0.0209  0.0000 </r>
        <r>  0.0055  0.0225  0.0000 </r>
        <r>  0.0051  0.0211  0.0000 </r>
        <r>  0.0055  0.0225  0.0000 </r>
        <r>  0.0057  0.0228  0.0000 </r>
        <r>  0.0053  0.0213  0.0000 </r>
       </set>
       <set comment="band 104">
        <r>  0.0031  0.0160  0.0000 </r>
        <r>  0.0030  0.0165  0.0000 </r>
        <r>  0.0030  0.0157  0.0000 </r>
        <r>  0.0032  0.0159  0.0000 </r>
        <r>  0.0028  0.0144  0.0000 </r>
        <r>  0.0034  0.0183  0.0000 </r>
        <r>  0.0035  0.0184  0.0000 </r>
        <r>  0.0028  0.0138  0.0000 </r>
        <r>  0.0030  0.0188  0.0000 </r>
        <r>  0.0033  0.0201  0.0000 </r>
        <r>  0.0030  0.0187  0.0000 </r>
        <r>  0.0030  0.0188  0.0000 </r>
        <r>  0.0030  0.0185  0.0000 </r>
        <r>  0.0033  0.0204  0.0000 </r>
        <r>  0.0033  0.0208  0.0000 </r>
        <r>  0.0027  0.0174  0.0000 </r>
        <r>  0.0015  0.0128  0.0000 </r>
        <r>  0.0019  0.0147  0.0000 </r>
        <r>  0.0017  0.0135  0.0000 </r>
        <r>  0.0016  0.0123  0.0000 </r>
        <r>  0.0017  0.0139  0.0000 </r>
        <r>  0.0017  0.0135  0.0000 </r>
        <r>  0.0018  0.0134  0.0000 </r>
        <r>  0.0015  0.0129  0.0000 </r>
        <r>  0.0004  0.0051  0.0000 </r>
        <r>  0.0007  0.0060  0.0000 </r>
        <r>  0.0007  0.0058  0.0000 </r>
        <r>  0.0004  0.0049  0.0000 </r>
        <r>  0.0007  0.0056  0.0000 </r>
        <r>  0.0004  0.0056  0.0000 </r>
        <r>  0.0004  0.0055  0.0000 </r>
        <r>  0.0007  0.0052  0.0000 </r>
       </set>
       <set comment="band 105">
        <r>  0.0015  0.0244  0.0000 </r>
        <r>  0.0010  0.0189  0.0000 </r>
        <r>  0.0014  0.0193  0.0000 </r>
        <r>  0.0018  0.0238  0.0000 </r>
        <r>  0.0011  0.0205  0.0000 </r>
        <r>  0.0012  0.0216  0.0000 </r>
        <r>  0.0015  0.0211  0.0000 </r>
        <r>  0.0016  0.0209  0.0000 </r>
        <r>  0.0030  0.0173  0.0000 </r>
        <r>  0.0021  0.0127  0.0000 </r>
        <r>  0.0027  0.0169  0.0000 </r>
        <r>  0.0033  0.0196  0.0000 </r>
        <r>  0.0024  0.0142  0.0000 </r>
        <r>  0.0027  0.0157  0.0000 </r>
        <r>  0.0029  0.0180  0.0000 </r>
        <r>  0.0030  0.0186  0.0000 </r>
        <r>  0.0026  0.0078  0.0000 </r>
        <r>  0.0020  0.0055  0.0000 </r>
        <r>  0.0027  0.0077  0.0000 </r>
        <r>  0.0030  0.0093  0.0000 </r>
        <r>  0.0022  0.0064  0.0000 </r>
        <r>  0.0024  0.0072  0.0000 </r>
        <r>  0.0029  0.0084  0.0000 </r>
        <r>  0.0030  0.0087  0.0000 </r>
        <r>  0.0000  0.0082  0.0000 </r>
        <r>  0.0000  0.0059  0.0000 </r>
        <r>  0.0002  0.0057  0.0000 </r>
        <r>  0.0002  0.0080  0.0000 </r>
        <r>  0.0000  0.0067  0.0000 </r>
        <r>  0.0000  0.0082  0.0000 </r>
        <r>  0.0002  0.0079  0.0000 </r>
        <r>  0.0002  0.0067  0.0000 </r>
       </set>
       <set comment="band 106">
        <r>  0.0014  0.0072  0.0000 </r>
        <r>  0.0017  0.0088  0.0000 </r>
        <r>  0.0012  0.0086  0.0000 </r>
        <r>  0.0010  0.0075  0.0000 </r>
        <r>  0.0017  0.0094  0.0000 </r>
        <r>  0.0014  0.0076  0.0000 </r>
        <r>  0.0011  0.0078  0.0000 </r>
        <r>  0.0013  0.0092  0.0000 </r>
        <r>  0.0006  0.0096  0.0000 </r>
        <r>  0.0008  0.0105  0.0000 </r>
        <r>  0.0003  0.0071  0.0000 </r>
        <r>  0.0002  0.0064  0.0000 </r>
        <r>  0.0008  0.0105  0.0000 </r>
        <r>  0.0006  0.0094  0.0000 </r>
        <r>  0.0002  0.0064  0.0000 </r>
        <r>  0.0003  0.0071  0.0000 </r>
        <r>  0.0018  0.0102  0.0000 </r>
        <r>  0.0019  0.0099  0.0000 </r>
        <r>  0.0013  0.0083  0.0000 </r>
        <r>  0.0012  0.0084  0.0000 </r>
        <r>  0.0018  0.0097  0.0000 </r>
        <r>  0.0018  0.0103  0.0000 </r>
        <r>  0.0012  0.0084  0.0000 </r>
        <r>  0.0012  0.0079  0.0000 </r>
        <r>  0.0058  0.0303  0.0000 </r>
        <r>  0.0056  0.0306  0.0000 </r>
        <r>  0.0055  0.0309  0.0000 </r>
        <r>  0.0056  0.0305  0.0000 </r>
        <r>  0.0056  0.0301  0.0000 </r>
        <r>  0.0059  0.0302  0.0000 </r>
        <r>  0.0056  0.0303  0.0000 </r>
        <r>  0.0055  0.0302  0.0000 </r>
       </set>
       <set comment="band 107">
        <r>  0.0030  0.0084  0.0000 </r>
        <r>  0.0032  0.0113  0.0000 </r>
        <r>  0.0031  0.0118  0.0000 </r>
        <r>  0.0029  0.0088  0.0000 </r>
        <r>  0.0031  0.0111  0.0000 </r>
        <r>  0.0030  0.0085  0.0000 </r>
        <r>  0.0030  0.0088  0.0000 </r>
        <r>  0.0031  0.0116  0.0000 </r>
        <r>  0.0017  0.0132  0.0000 </r>
        <r>  0.0022  0.0151  0.0000 </r>
        <r>  0.0024  0.0155  0.0000 </r>
        <r>  0.0018  0.0135  0.0000 </r>
        <r>  0.0022  0.0150  0.0000 </r>
        <r>  0.0017  0.0131  0.0000 </r>
        <r>  0.0018  0.0136  0.0000 </r>
        <r>  0.0024  0.0155  0.0000 </r>
        <r>  0.0004  0.0146  0.0000 </r>
        <r>  0.0005  0.0157  0.0000 </r>
        <r>  0.0006  0.0161  0.0000 </r>
        <r>  0.0004  0.0150  0.0000 </r>
        <r>  0.0005  0.0158  0.0000 </r>
        <r>  0.0004  0.0143  0.0000 </r>
        <r>  0.0004  0.0150  0.0000 </r>
        <r>  0.0006  0.0164  0.0000 </r>
        <r>  0.0016  0.0136  0.0000 </r>
        <r>  0.0016  0.0150  0.0000 </r>
        <r>  0.0016  0.0152  0.0000 </r>
        <r>  0.0017  0.0136  0.0000 </r>
        <r>  0.0016  0.0152  0.0000 </r>
        <r>  0.0016  0.0132  0.0000 </r>
        <r>  0.0016  0.0135  0.0000 </r>
        <r>  0.0016  0.0156  0.0000 </r>
       </set>
       <set comment="band 108">
        <r>  0.0010  0.0076  0.0000 </r>
        <r>  0.0010  0.0078  0.0000 </r>
        <r>  0.0010  0.0080  0.0000 </r>
        <r>  0.0010  0.0081  0.0000 </r>
        <r>  0.0010  0.0079  0.0000 </r>
        <r>  0.0010  0.0078  0.0000 </r>
        <r>  0.0010  0.0078  0.0000 </r>
        <r>  0.0010  0.0077  0.0000 </r>
        <r>  0.0032  0.0215  0.0000 </r>
        <r>  0.0032  0.0213  0.0000 </r>
        <r>  0.0031  0.0213  0.0000 </r>
        <r>  0.0033  0.0218  0.0000 </r>
        <r>  0.0031  0.0214  0.0000 </r>
        <r>  0.0032  0.0215  0.0000 </r>
        <r>  0.0033  0.0216  0.0000 </r>
        <r>  0.0031  0.0212  0.0000 </r>
        <r>  0.0029  0.0243  0.0000 </r>
        <r>  0.0029  0.0241  0.0000 </r>
        <r>  0.0030  0.0241  0.0000 </r>
        <r>  0.0029  0.0244  0.0000 </r>
        <r>  0.0029  0.0239  0.0000 </r>
        <r>  0.0029  0.0242  0.0000 </r>
        <r>  0.0029  0.0244  0.0000 </r>
        <r>  0.0029  0.0240  0.0000 </r>
        <r>  0.0006  0.0093  0.0000 </r>
        <r>  0.0006  0.0095  0.0000 </r>
        <r>  0.0006  0.0098  0.0000 </r>
        <r>  0.0006  0.0095  0.0000 </r>
        <r>  0.0006  0.0096  0.0000 </r>
        <r>  0.0006  0.0095  0.0000 </r>
        <r>  0.0006  0.0093  0.0000 </r>
        <r>  0.0006  0.0096  0.0000 </r>
       </set>
       <set comment="band 109">
        <r>  0.0004  0.0173  0.0000 </r>
        <r>  0.0004  0.0169  0.0000 </r>
        <r>  0.0004  0.0172  0.0000 </r>
        <r>  0.0004  0.0172  0.0000 </r>
        <r>  0.0004  0.0171  0.0000 </r>
        <r>  0.0004  0.0173  0.0000 </r>
        <r>  0.0004  0.0170  0.0000 </r>
        <r>  0.0004  0.0173  0.0000 </r>
        <r>  0.0017  0.0145  0.0000 </r>
        <r>  0.0016  0.0142  0.0000 </r>
        <r>  0.0017  0.0148  0.0000 </r>
        <r>  0.0016  0.0150  0.0000 </r>
        <r>  0.0016  0.0146  0.0000 </r>
        <r>  0.0017  0.0149  0.0000 </r>
        <r>  0.0016  0.0145  0.0000 </r>
        <r>  0.0016  0.0144  0.0000 </r>
        <r>  0.0014  0.0068  0.0000 </r>
        <r>  0.0014  0.0068  0.0000 </r>
        <r>  0.0014  0.0073  0.0000 </r>
        <r>  0.0015  0.0077  0.0000 </r>
        <r>  0.0014  0.0073  0.0000 </r>
        <r>  0.0014  0.0075  0.0000 </r>
        <r>  0.0014  0.0070  0.0000 </r>
        <r>  0.0014  0.0066  0.0000 </r>
        <r>  0.0013  0.0063  0.0000 </r>
        <r>  0.0013  0.0067  0.0000 </r>
        <r>  0.0013  0.0069  0.0000 </r>
        <r>  0.0014  0.0068  0.0000 </r>
        <r>  0.0013  0.0069  0.0000 </r>
        <r>  0.0013  0.0066  0.0000 </r>
        <r>  0.0013  0.0065  0.0000 </r>
        <r>  0.0013  0.0066  0.0000 </r>
       </set>
       <set comment="band 110">
        <r>  0.0007  0.0036  0.0000 </r>
        <r>  0.0007  0.0035  0.0000 </r>
        <r>  0.0007  0.0034  0.0000 </r>
        <r>  0.0007  0.0032  0.0000 </r>
        <r>  0.0007  0.0034  0.0000 </r>
        <r>  0.0006  0.0033  0.0000 </r>
        <r>  0.0007  0.0034  0.0000 </r>
        <r>  0.0007  0.0037  0.0000 </r>
        <r>  0.0031  0.0162  0.0000 </r>
        <r>  0.0031  0.0163  0.0000 </r>
        <r>  0.0030  0.0166  0.0000 </r>
        <r>  0.0030  0.0165  0.0000 </r>
        <r>  0.0031  0.0157  0.0000 </r>
        <r>  0.0030  0.0158  0.0000 </r>
        <r>  0.0031  0.0168  0.0000 </r>
        <r>  0.0031  0.0167  0.0000 </r>
        <r>  0.0001  0.0254  0.0000 </r>
        <r>  0.0001  0.0253  0.0000 </r>
        <r>  0.0001  0.0258  0.0000 </r>
        <r>  0.0001  0.0264  0.0000 </r>
        <r>  0.0001  0.0250  0.0000 </r>
        <r>  0.0001  0.0250  0.0000 </r>
        <r>  0.0001  0.0265  0.0000 </r>
        <r>  0.0001  0.0258  0.0000 </r>
        <r>  0.0005  0.0085  0.0000 </r>
        <r>  0.0005  0.0080  0.0000 </r>
        <r>  0.0005  0.0083  0.0000 </r>
        <r>  0.0006  0.0091  0.0000 </r>
        <r>  0.0005  0.0081  0.0000 </r>
        <r>  0.0005  0.0085  0.0000 </r>
        <r>  0.0006  0.0090  0.0000 </r>
        <r>  0.0005  0.0082  0.0000 </r>
       </set>
       <set comment="band 111">
        <r>  0.0006  0.0332  0.0000 </r>
        <r>  0.0006  0.0334  0.0000 </r>
        <r>  0.0006  0.0329  0.0000 </r>
        <r>  0.0006  0.0330  0.0000 </r>
        <r>  0.0006  0.0331  0.0000 </r>
        <r>  0.0006  0.0333  0.0000 </r>
        <r>  0.0006  0.0336  0.0000 </r>
        <r>  0.0006  0.0331  0.0000 </r>
        <r>  0.0028  0.0088  0.0000 </r>
        <r>  0.0028  0.0087  0.0000 </r>
        <r>  0.0027  0.0085  0.0000 </r>
        <r>  0.0027  0.0086  0.0000 </r>
        <r>  0.0027  0.0084  0.0000 </r>
        <r>  0.0028  0.0087  0.0000 </r>
        <r>  0.0028  0.0088  0.0000 </r>
        <r>  0.0027  0.0087  0.0000 </r>
        <r>  0.0005  0.0039  0.0000 </r>
        <r>  0.0005  0.0036  0.0000 </r>
        <r>  0.0005  0.0041  0.0000 </r>
        <r>  0.0005  0.0039  0.0000 </r>
        <r>  0.0005  0.0038  0.0000 </r>
        <r>  0.0005  0.0042  0.0000 </r>
        <r>  0.0005  0.0037  0.0000 </r>
        <r>  0.0005  0.0038  0.0000 </r>
        <r>  0.0011  0.0029  0.0000 </r>
        <r>  0.0011  0.0028  0.0000 </r>
        <r>  0.0011  0.0032  0.0000 </r>
        <r>  0.0011  0.0031  0.0000 </r>
        <r>  0.0011  0.0030  0.0000 </r>
        <r>  0.0011  0.0032  0.0000 </r>
        <r>  0.0011  0.0028  0.0000 </r>
        <r>  0.0011  0.0029  0.0000 </r>
       </set>
       <set comment="band 112">
        <r>  0.0014  0.0148  0.0000 </r>
        <r>  0.0014  0.0156  0.0000 </r>
        <r>  0.0014  0.0155  0.0000 </r>
        <r>  0.0014  0.0146  0.0000 </r>
        <r>  0.0014  0.0155  0.0000 </r>
        <r>  0.0014  0.0147  0.0000 </r>
        <r>  0.0014  0.0147  0.0000 </r>
        <r>  0.0014  0.0155  0.0000 </r>
        <r>  0.0000  0.0184  0.0000 </r>
        <r>  0.0001  0.0199  0.0000 </r>
        <r>  0.0001  0.0191  0.0000 </r>
        <r>  0.0000  0.0175  0.0000 </r>
        <r>  0.0001  0.0198  0.0000 </r>
        <r>  0.0001  0.0184  0.0000 </r>
        <r>  0.0000  0.0176  0.0000 </r>
        <r>  0.0001  0.0191  0.0000 </r>
        <r>  0.0015  0.0125  0.0000 </r>
        <r>  0.0015  0.0140  0.0000 </r>
        <r>  0.0014  0.0133  0.0000 </r>
        <r>  0.0014  0.0118  0.0000 </r>
        <r>  0.0014  0.0143  0.0000 </r>
        <r>  0.0015  0.0128  0.0000 </r>
        <r>  0.0015  0.0117  0.0000 </r>
        <r>  0.0014  0.0132  0.0000 </r>
        <r>  0.0008  0.0027  0.0000 </r>
        <r>  0.0005  0.0033  0.0000 </r>
        <r>  0.0005  0.0032  0.0000 </r>
        <r>  0.0007  0.0026  0.0000 </r>
        <r>  0.0005  0.0035  0.0000 </r>
        <r>  0.0008  0.0028  0.0000 </r>
        <r>  0.0007  0.0025  0.0000 </r>
        <r>  0.0005  0.0031  0.0000 </r>
       </set>
       <set comment="band 113">
        <r>  0.0002  0.0039  0.0000 </r>
        <r>  0.0001  0.0025  0.0000 </r>
        <r>  0.0001  0.0021  0.0000 </r>
        <r>  0.0001  0.0032  0.0000 </r>
        <r>  0.0001  0.0026  0.0000 </r>
        <r>  0.0001  0.0040  0.0000 </r>
        <r>  0.0001  0.0031  0.0000 </r>
        <r>  0.0001  0.0020  0.0000 </r>
        <r>  0.0006  0.0098  0.0000 </r>
        <r>  0.0006  0.0076  0.0000 </r>
        <r>  0.0005  0.0063  0.0000 </r>
        <r>  0.0005  0.0082  0.0000 </r>
        <r>  0.0007  0.0077  0.0000 </r>
        <r>  0.0006  0.0097  0.0000 </r>
        <r>  0.0005  0.0080  0.0000 </r>
        <r>  0.0005  0.0062  0.0000 </r>
        <r>  0.0004  0.0153  0.0000 </r>
        <r>  0.0004  0.0137  0.0000 </r>
        <r>  0.0006  0.0120  0.0000 </r>
        <r>  0.0006  0.0140  0.0000 </r>
        <r>  0.0004  0.0136  0.0000 </r>
        <r>  0.0004  0.0150  0.0000 </r>
        <r>  0.0006  0.0142  0.0000 </r>
        <r>  0.0006  0.0124  0.0000 </r>
        <r>  0.0011  0.0319  0.0000 </r>
        <r>  0.0012  0.0308  0.0000 </r>
        <r>  0.0014  0.0304  0.0000 </r>
        <r>  0.0012  0.0319  0.0000 </r>
        <r>  0.0013  0.0306  0.0000 </r>
        <r>  0.0012  0.0317  0.0000 </r>
        <r>  0.0012  0.0330  0.0000 </r>
        <r>  0.0013  0.0314  0.0000 </r>
       </set>
       <set comment="band 114">
        <r>  0.0005  0.0061  0.0000 </r>
        <r>  0.0004  0.0059  0.0000 </r>
        <r>  0.0004  0.0063  0.0000 </r>
        <r>  0.0005  0.0067  0.0000 </r>
        <r>  0.0004  0.0057  0.0000 </r>
        <r>  0.0005  0.0060  0.0000 </r>
        <r>  0.0005  0.0067  0.0000 </r>
        <r>  0.0005  0.0063  0.0000 </r>
        <r>  0.0004  0.0115  0.0000 </r>
        <r>  0.0004  0.0114  0.0000 </r>
        <r>  0.0005  0.0124  0.0000 </r>
        <r>  0.0005  0.0128  0.0000 </r>
        <r>  0.0004  0.0114  0.0000 </r>
        <r>  0.0004  0.0114  0.0000 </r>
        <r>  0.0005  0.0130  0.0000 </r>
        <r>  0.0005  0.0126  0.0000 </r>
        <r>  0.0035  0.0125  0.0000 </r>
        <r>  0.0034  0.0134  0.0000 </r>
        <r>  0.0031  0.0141  0.0000 </r>
        <r>  0.0032  0.0135  0.0000 </r>
        <r>  0.0034  0.0132  0.0000 </r>
        <r>  0.0035  0.0124  0.0000 </r>
        <r>  0.0032  0.0135  0.0000 </r>
        <r>  0.0031  0.0141  0.0000 </r>
        <r>  0.0006  0.0209  0.0000 </r>
        <r>  0.0007  0.0214  0.0000 </r>
        <r>  0.0006  0.0203  0.0000 </r>
        <r>  0.0005  0.0201  0.0000 </r>
        <r>  0.0007  0.0209  0.0000 </r>
        <r>  0.0006  0.0207  0.0000 </r>
        <r>  0.0005  0.0199  0.0000 </r>
        <r>  0.0006  0.0200  0.0000 </r>
       </set>
       <set comment="band 115">
        <r>  0.0019  0.0239  0.0000 </r>
        <r>  0.0019  0.0237  0.0000 </r>
        <r>  0.0020  0.0232  0.0000 </r>
        <r>  0.0020  0.0229  0.0000 </r>
        <r>  0.0019  0.0237  0.0000 </r>
        <r>  0.0019  0.0238  0.0000 </r>
        <r>  0.0020  0.0228  0.0000 </r>
        <r>  0.0020  0.0231  0.0000 </r>
        <r>  0.0016  0.0140  0.0000 </r>
        <r>  0.0015  0.0137  0.0000 </r>
        <r>  0.0015  0.0138  0.0000 </r>
        <r>  0.0016  0.0136  0.0000 </r>
        <r>  0.0014  0.0139  0.0000 </r>
        <r>  0.0016  0.0141  0.0000 </r>
        <r>  0.0017  0.0135  0.0000 </r>
        <r>  0.0015  0.0136  0.0000 </r>
        <r>  0.0017  0.0059  0.0000 </r>
        <r>  0.0015  0.0052  0.0000 </r>
        <r>  0.0014  0.0049  0.0000 </r>
        <r>  0.0017  0.0057  0.0000 </r>
        <r>  0.0015  0.0053  0.0000 </r>
        <r>  0.0018  0.0060  0.0000 </r>
        <r>  0.0016  0.0053  0.0000 </r>
        <r>  0.0014  0.0046  0.0000 </r>
        <r>  0.0006  0.0171  0.0000 </r>
        <r>  0.0005  0.0160  0.0000 </r>
        <r>  0.0006  0.0156  0.0000 </r>
        <r>  0.0007  0.0168  0.0000 </r>
        <r>  0.0005  0.0165  0.0000 </r>
        <r>  0.0006  0.0175  0.0000 </r>
        <r>  0.0007  0.0165  0.0000 </r>
        <r>  0.0006  0.0155  0.0000 </r>
       </set>
      </set>
     </set>
    </set>
   </array>
  </projected>
 </calculation>
 <structure name="finalpos" >
  <crystal>
   <varray name="basis" >
    <v>       8.33369998       0.04439350       0.00204116 </v>
    <v>      -1.68488040       8.16190365      -0.00204959 </v>
    <v>      -3.32677963      -4.10087479      12.13426973 </v>
   </varray>
   <i name="volume">    826.26654719 </i>
   <varray name="rec_basis" >
    <v>       0.11985277       0.02475183       0.04122439 </v>
    <v>      -0.00066208       0.12239410       0.04118256 </v>
    <v>      -0.00002027       0.00001651       0.08241124 </v>
   </varray>
  </crystal>
  <varray name="positions" >
   <v>       0.04520344       0.63979322       0.89876659 </v>
   <v>       0.73988228       0.64678244       0.59971757 </v>
   <v>       0.85825183       0.45316562       0.60006915 </v>
   <v>       0.85232990       0.75928402       0.89849856 </v>
   <v>       0.95264951       0.35921636       0.09996796 </v>
   <v>       0.25817194       0.35319813       0.39850519 </v>
   <v>       0.13848974       0.54590881       0.39860487 </v>
   <v>       0.14647731       0.24106817       0.09996646 </v>
   <v>       0.27477044       0.81038600       0.00522334 </v>
   <v>       0.80546463       0.76967347       0.49351775 </v>
   <v>       0.68679419       0.22368125       0.49417972 </v>
   <v>       0.72831985       0.69513890       0.00456539 </v>
   <v>       0.72338957       0.18754563       0.99393607 </v>
   <v>       0.19403080       0.22962967       0.50475995 </v>
   <v>       0.30886439       0.77569261       0.50494177 </v>
   <v>       0.26960130       0.30675158       0.99389401 </v>
   <v>       0.32259792       0.76226492       0.15320814 </v>
   <v>       0.60987507       0.67064252       0.34529590 </v>
   <v>       0.73437900       0.17360010       0.34601795 </v>
   <v>       0.82750584       0.89118865       0.15258605 </v>
   <v>       0.67355880       0.23479036       0.84566562 </v>
   <v>       0.39010672       0.32917623       0.65277147 </v>
   <v>       0.26089028       0.82385753       0.65297873 </v>
   <v>       0.17102448       0.11109331       0.84569548 </v>
   <v>       0.25024249       0.93569882       0.26060521 </v>
   <v>       0.67500471       0.48950577       0.23822630 </v>
   <v>       0.56205631       0.24681077       0.23847010 </v>
   <v>       0.00652650       0.82497260       0.26033593 </v>
   <v>       0.74713022       0.06238999       0.73839851 </v>
   <v>       0.32401813       0.50845407       0.76044925 </v>
   <v>       0.43464653       0.75205872       0.76052372 </v>
   <v>       0.98981189       0.17564676       0.73829729 </v>
  </varray>
 </structure>
</modeling>
