 vasp.6.5.1 10Mar25 (build May 13 2025 11:33:44) complex                         
 executed on              LinuxNV date 2026.05.13  15:25:28
 running    2 mpi-ranks, on    1 nodes
 distrk:  each k-point on    2 cores,    1 groups
 distr:  one band on NCORE=   1 cores,    2 groups
 Offloading initialized ...    2 GPUs detected


--------------------------------------------------------------------------------------------------------


 INCAR:
   ALGO = Normal
   PREC = Normal
   LREAL = Auto
   EDIFF = 1e-05
   ENCUT = 262.472
   LASPH = True
   NELM = 100
   ISIF = 2
   IBRION = 2
   EDIFFG = -0.03
   NSW = 300
   ISMEAR = 0
   SIGMA = 0.1
   ISPIN = 2
   LWAVE = False
   LCHARG = False
   LORBIT = 10
   GGA = Ps
   NELECT = 422.0
   KPAR = 1

 POTCAR:    PAW_PBE Cs_sv 08Apr2002               
 POTCAR:    PAW_PBE Cl 06Sep2000                  
 -----------------------------------------------------------------------------
|                                                                             |
|           W    W    AA    RRRRR   N    N  II  N    N   GGGG   !!!           |
|           W    W   A  A   R    R  NN   N  II  NN   N  G    G  !!!           |
|           W    W  A    A  R    R  N N  N  II  N N  N  G       !!!           |
|           W WW W  AAAAAA  RRRRR   N  N N  II  N  N N  G  GGG   !            |
|           WW  WW  A    A  R   R   N   NN  II  N   NN  G    G                |
|           W    W  A    A  R    R  N    N  II  N    N   GGGG   !!!           |
|                                                                             |
|     You requested a magnetic or noncollinear calculation, but did not       |
|     specify the initial magnetic moment with the MAGMOM tag. Note that      |
|     a default of 1 will be used for all atoms. This ferromagnetic setup     |
|     may break the symmetry of the crystal, in particular it may rule        |
|     out finding an antiferromagnetic solution. Thence, we recommend         |
|     setting the initial magnetic moment manually or verifying carefully     |
|     that this magnetic setup is desired.                                    |
|                                                                             |
 -----------------------------------------------------------------------------

 POTCAR:    PAW_PBE Cs_sv 08Apr2002               
   SHA256 =  c1463496f0f6037ed62c6012a8013a89ee9ad6ffb38599dcd6c079e7ed31779b Cs_sv/POTCAR          
   COPYR  = (c) Copyright 08Apr2002 Georg Kresse                                                    
   COPYR  = This file is part of the software VASP. Any use, copying, and all other rights are regul
   COPYR  = If you do not have a valid VASP license, you may not use, copy or distribute this file. 
   VRHFIN =Cs: 5s5p6s                                                                               
   LEXCH  = PE                                                                                      
   EATOM  =   555.6835 eV,   40.8416 Ry                                                             
                                                                                                    
   TITEL  = PAW_PBE Cs_sv 08Apr2002                                                                 
   LULTRA =        F    use ultrasoft PP ?                                                          
   IUNSCR =        1    unscreen: 0-lin 1-nonlin 2-no                                               
   RPACOR =    2.200    partial core radius                                                         
   POMASS =  132.900; ZVAL   =    9.000    mass and valenz                                          
   RCORE  =    2.500    outmost cutoff radius                                                       
   RWIGS  =    2.500; RWIGS  =    1.323    wigner-seitz radius (au A)                               
   ENMAX  =  220.318; ENMIN  =  165.238 eV                                                          
   RCLOC  =    2.207    cutoff for local pot                                                        
   LCOR   =        T    correct aug charges                                                         
   LPAW   =        T    paw PP                                                                      
   EAUG   =  407.933                                                                                
   DEXC   =    0.000                                                                                
   RMAX   =    2.554    core radius for proj-oper                                                   
   RAUG   =    1.300    factor for augmentation sphere                                              
   RDEP   =    2.590    radius for radial grids                                                     
   RDEPT  =    2.117    core radius for aug-charge                                                  
                                                                                                    
   Atomic configuration                                                                             
   13 entries                                                                                       
     n  l   j            E        occ.                                                              
     1  0  0.50    -35790.1377   2.0000                                                             
     2  0  0.50     -5613.6201   2.0000                                                             
     2  1  1.50     -5035.0101   6.0000                                                             
     3  0  0.50     -1167.0767   2.0000                                                             
     3  1  1.50      -980.9754   6.0000                                                             
     3  2  2.50      -708.0703  10.0000                                                             
     4  0  0.50      -220.2386   2.0000                                                             
     4  1  1.50      -160.7596   6.0000                                                             
     4  2  2.50       -74.2354  10.0000                                                             
     5  0  0.50       -26.7287   2.0000                                                             
     6  0  0.50        -2.0862   1.0000                                                             
     5  1  1.50       -13.5159   6.0000                                                             
     5  2  2.50        -0.4136   0.0000                                                             
   Description                                                                                      
     l       E           TYP  RCUT    TYP  RCUT                                                     
     0    -26.7287425     23  1.900                                                                 
     0     -2.0862306     23  1.900                                                                 
     1    -13.5158719     23  2.500                                                                 
     1     -2.7211652     23  2.500                                                                 
     2     -0.4136171     23  2.500                                                                 
  local pseudopotential read in
  partial core-charges read in
  partial kinetic energy density read in
  atomic valenz-charges read in
  non local Contribution for L=            0  read in
    real space projection operators read in
  non local Contribution for L=            0  read in
    real space projection operators read in
  non local Contribution for L=            1  read in
    real space projection operators read in
  non local Contribution for L=            1  read in
    real space projection operators read in
  non local Contribution for L=            2  read in
    real space projection operators read in
    PAW grid and wavefunctions read in
 
   number of l-projection  operators is LMAX  =            5
   number of lm-projection operators is LMMAX =           13
 
 POTCAR:    PAW_PBE Cl 06Sep2000                  
   SHA256 =  9f1b6e6ed4247ac726a768b330d26d7667cc3c95a39ff49c1d064c2d9dcce931 Cl/POTCAR             
   COPYR  = (c) Copyright 06Sep2000 Georg Kresse                                                    
   COPYR  = This file is part of the software VASP. Any use, copying, and all other rights are regul
   COPYR  = If you do not have a valid VASP license, you may not use, copy or distribute this file. 
   VRHFIN =Cl: s2p5                                                                                 
   LEXCH  = PE                                                                                      
   EATOM  =   409.7259 eV,   30.1140 Ry                                                             
                                                                                                    
   TITEL  = PAW_PBE Cl 06Sep2000                                                                    
   LULTRA =        F    use ultrasoft PP ?                                                          
   IUNSCR =        1    unscreen: 0-lin 1-nonlin 2-no                                               
   RPACOR =    1.500    partial core radius                                                         
   POMASS =   35.453; ZVAL   =    7.000    mass and valenz                                          
   RCORE  =    1.900    outmost cutoff radius                                                       
   RWIGS  =    2.100; RWIGS  =    1.111    wigner-seitz radius (au A)                               
   ENMAX  =  262.472; ENMIN  =  196.854 eV                                                          
   ICORE  =        2    local potential                                                             
   LCOR   =        T    correct aug charges                                                         
   LPAW   =        T    paw PP                                                                      
   EAUG   =  356.192                                                                                
   DEXC   =    0.000                                                                                
   RMAX   =    1.945    core radius for proj-oper                                                   
   RAUG   =    1.300    factor for augmentation sphere                                              
   RDEP   =    2.020    radius for radial grids                                                     
   RDEPT  =    1.678    core radius for aug-charge                                                  
                                                                                                    
   Atomic configuration                                                                             
    6 entries                                                                                       
     n  l   j            E        occ.                                                              
     1  0  0.50     -2751.1850   2.0000                                                             
     2  0  0.50      -252.6861   2.0000                                                             
     2  1  1.50      -191.6157   6.0000                                                             
     3  0  0.50       -20.6916   2.0000                                                             
     3  1  0.50        -8.5949   5.0000                                                             
     3  2  1.50        -8.1635   0.0000                                                             
   Description                                                                                      
     l       E           TYP  RCUT    TYP  RCUT                                                     
     0    -20.6915656     23  1.900                                                                 
     0    -22.0521482     23  1.900                                                                 
     1     -8.5948577     23  1.900                                                                 
     1     -5.3847331     23  1.900                                                                 
     2     -8.1634956     23  1.900                                                                 
  local pseudopotential read in
  partial core-charges read in
  partial kinetic energy density read in
  atomic valenz-charges read in
  non local Contribution for L=            0  read in
    real space projection operators read in
  non local Contribution for L=            0  read in
    real space projection operators read in
  non local Contribution for L=            1  read in
    real space projection operators read in
  non local Contribution for L=            1  read in
    real space projection operators read in
    PAW grid and wavefunctions read in
 
   number of l-projection  operators is LMAX  =            4
   number of lm-projection operators is LMMAX =            8
 
 Optimization of the real space projectors (new method)

 maximal supplied QI-value         = 15.12
 optimisation between [QCUT,QGAM] = [  8.16, 16.48] = [ 18.66, 76.04] Ry 
 Optimized for a Real-space Cutoff    1.70 Angstroem

   l    n(q)    QCUT    max X(q) W(low)/X(q) W(high)/X(q)  e(spline) 
   0      8     8.164    25.322    0.15E-03    0.18E-03    0.41E-06
   0      8     8.164    99.187    0.15E-03    0.17E-03    0.40E-06
   1      8     8.164    11.761    0.31E-03    0.25E-03    0.22E-06
   1      8     8.164     8.275    0.36E-03    0.24E-03    0.25E-06
   2      7     8.164     3.829    0.38E-03    0.57E-03    0.14E-06
 Optimization of the real space projectors (new method)

 maximal supplied QI-value         = 19.84
 optimisation between [QCUT,QGAM] = [  8.14, 16.47] = [ 18.53, 75.95] Ry 
 Optimized for a Real-space Cutoff    1.51 Angstroem

   l    n(q)    QCUT    max X(q) W(low)/X(q) W(high)/X(q)  e(spline) 
   0      7     8.135   168.010    0.81E-04    0.25E-03    0.15E-06
   0      7     8.135   164.674    0.79E-04    0.25E-03    0.14E-06
   1      7     8.135    69.222    0.47E-03    0.95E-03    0.99E-07
   1      7     8.135    56.786    0.47E-03    0.93E-03    0.97E-07
 -----------------------------------------------------------------------------
|                                                                             |
|               ----> ADVICE to this user running VASP <----                  |
|                                                                             |
|     You enforced a specific xc type in the INCAR file but a different       |
|     type was found in the POTCAR file.                                      |
|     I HOPE YOU KNOW WHAT YOU ARE DOING!                                     |
|                                                                             |
 -----------------------------------------------------------------------------

  PAW_PBE Cs_sv 08Apr2002               :
 energy of atom  1       EATOM= -555.6835
 kinetic energy error for atom=    0.0137 (will be added to EATOM!!)
  PAW_PBE Cl 06Sep2000                  :
 energy of atom  2       EATOM= -409.7259
 kinetic energy error for atom=    0.0483 (will be added to EATOM!!)
 
 
 POSCAR: Cs26 Cl27
  positions in direct lattice
  No initial velocities read in


 exchange-correlation table for PS
   RHO(1)=    0.500       N(1)  =     2000
   RHO(2)=  100.500       N(2)  =     4000
 


--------------------------------------------------------------------------------------------------------


 ion  position               nearest neighbor table
   1  0.995  0.997  0.336-
   2  0.999  0.999  0.665-
   3  0.998  0.338  0.001-
   4  0.000  0.333  0.333-
   5  0.000  0.333  0.667-
   6  0.991  0.656  0.999-
   7  0.000  0.667  0.333-
   8  0.000  0.667  0.667-
   9  0.344  0.001  0.001-
  10  0.333  0.000  0.333-
  11  0.333  0.000  0.667-
  12  0.333  0.333  0.000-
  13  0.333  0.333  0.333-
  14  0.333  0.333  0.667-
  15  0.333  0.667  0.000-
  16  0.333  0.667  0.333-
  17  0.333  0.667  0.667-
  18  0.678  1.000  0.998-
  19  0.667  0.000  0.333-
  20  0.667  0.000  0.667-
  21  0.667  0.333  0.000-
  22  0.667  0.333  0.333-
  23  0.667  0.333  0.667-
  24  0.667  0.667  0.000-
  25  0.667  0.667  0.333-
  26  0.667  0.667  0.667-
  27  0.167  0.166  0.169-
  28  0.167  0.167  0.500-
  29  0.165  0.172  0.834-
  30  0.167  0.500  0.167-
  31  0.167  0.500  0.500-
  32  0.167  0.500  0.833-
  33  0.170  0.834  0.164-
  34  0.167  0.833  0.500-
  35  0.171  0.830  0.832-
  36  0.500  0.167  0.167-
  37  0.500  0.167  0.500-
  38  0.500  0.167  0.833-
  39  0.500  0.500  0.167-
  40  0.500  0.500  0.500-
  41  0.500  0.500  0.833-
  42  0.500  0.833  0.167-
  43  0.500  0.833  0.500-
  44  0.500  0.833  0.833-
  45  0.825  0.159  0.163-
  46  0.833  0.167  0.500-
  47  0.831  0.166  0.835-
  48  0.833  0.500  0.167-
  49  0.833  0.500  0.500-
  50  0.833  0.500  0.833-
  51  0.829  0.828  0.162-
  52  0.833  0.833  0.500-
  53  0.826  0.841  0.845-
 
  LATTYP: Found a simple cubic cell.
 ALAT       =    12.2263459172
  
  Lattice vectors:
  
 A1 = (  12.2263459172,   0.0000000000,   0.0000000000)
 A2 = (   0.0000000000,  12.2263459172,   0.0000000000)
 A3 = (   0.0000000000,   0.0000000000,  12.2263459172)


Analysis of symmetry for initial positions (statically):
=====================================================================
 Subroutine PRICEL returns:
 Original cell was already a primitive cell.
 

 Routine SETGRP: Setting up the symmetry group for a 
 simple cubic supercell.


 Subroutine GETGRP returns: Found  1 space group operations
 (whereof  1 operations were pure point group operations)
 out of a pool of 48 trial point group operations.


The static configuration has the point symmetry C_1 .


Analysis of symmetry for dynamics (positions and initial velocities):
=====================================================================
 Subroutine PRICEL returns:
 Original cell was already a primitive cell.
 

 Routine SETGRP: Setting up the symmetry group for a 
 simple cubic supercell.


 Subroutine GETGRP returns: Found  1 space group operations
 (whereof  1 operations were pure point group operations)
 out of a pool of 48 trial point group operations.


The dynamic configuration has the point symmetry C_1 .


Analysis of structural, dynamic, and magnetic symmetry:
=====================================================================
 Subroutine PRICEL returns:
 Original cell was already a primitive cell.
 

 Routine SETGRP: Setting up the symmetry group for a 
 simple cubic supercell.


 Subroutine GETGRP returns: Found  1 space group operations
 (whereof  1 operations were pure point group operations)
 out of a pool of 48 trial point group operations.


The overall configuration has the point symmetry C_1 .


 Subroutine INISYM returns: Found  1 space group operations
 (whereof  1 operations are pure point group operations),
 and found     1 'primitive' translations


----------------------------------------------------------------------------------------

                                     Primitive cell                                     

  volume of cell :    1827.6374

  direct lattice vectors                    reciprocal lattice vectors
    12.226345917  0.000000000  0.000000000     0.081790586  0.000000000  0.000000000
     0.000000000 12.226345917  0.000000000     0.000000000  0.081790586  0.000000000
     0.000000000  0.000000000 12.226345917     0.000000000  0.000000000  0.081790586

  length of vectors
    12.226345917 12.226345917 12.226345917     0.081790586  0.081790586  0.081790586

  position of ions in fractional coordinates (direct lattice)
     0.995469652  0.996711088  0.335831783
     0.998748126  0.999109919  0.665313174
     0.998156918  0.337962587  0.000672032
     0.000000000  0.333333333  0.333333333
     0.000000000  0.333333333  0.666666667
     0.990674722  0.655881392  0.999215958
     0.000000000  0.666666667  0.333333333
     0.000000000  0.666666667  0.666666667
     0.343786117  0.001092181  0.001435634
     0.333333333  0.000000000  0.333333333
     0.333333333  0.000000000  0.666666667
     0.333333333  0.333333333  0.000000000
     0.333333333  0.333333333  0.333333333
     0.333333333  0.333333333  0.666666667
     0.333333333  0.666666667  0.000000000
     0.333333333  0.666666667  0.333333333
     0.333333333  0.666666667  0.666666667
     0.678308818  0.999663981  0.998032722
     0.666666667  0.000000000  0.333333333
     0.666666667  0.000000000  0.666666667
     0.666666667  0.333333333  0.000000000
     0.666666667  0.333333333  0.333333333
     0.666666667  0.333333333  0.666666667
     0.666666667  0.666666667  0.000000000
     0.666666667  0.666666667  0.333333333
     0.666666667  0.666666667  0.666666667
     0.166674587  0.166108731  0.169311158
     0.166666667  0.166666667  0.500000000
     0.164901329  0.171915759  0.833550266
     0.166666667  0.500000000  0.166666667
     0.166666667  0.500000000  0.500000000
     0.166666667  0.500000000  0.833333333
     0.170274814  0.833912218  0.163796392
     0.166666667  0.833333333  0.500000000
     0.171466453  0.830095837  0.831517070
     0.500000000  0.166666667  0.166666667
     0.500000000  0.166666667  0.500000000
     0.500000000  0.166666667  0.833333333
     0.500000000  0.500000000  0.166666667
     0.500000000  0.500000000  0.500000000
     0.500000000  0.500000000  0.833333333
     0.500000000  0.833333333  0.166666667
     0.500000000  0.833333333  0.500000000
     0.500000000  0.833333333  0.833333333
     0.825420049  0.159251579  0.162702158
     0.833333333  0.166666667  0.500000000
     0.830753839  0.166193087  0.834515214
     0.833333333  0.500000000  0.166666667
     0.833333333  0.500000000  0.500000000
     0.833333333  0.500000000  0.833333333
     0.829272302  0.828417974  0.162153457
     0.833333333  0.833333333  0.500000000
     0.825559417  0.840842457  0.845397509

  ion indices of the primitive-cell ions
   primitive index   ion index
                 1           1
                 2           2
                 3           3
                 4           4
                 5           5
                 6           6
                 7           7
                 8           8
                 9           9
                10          10
                11          11
                12          12
                13          13
                14          14
                15          15
                16          16
                17          17
                18          18
                19          19
                20          20
                21          21
                22          22
                23          23
                24          24
                25          25
                26          26
                27          27
                28          28
                29          29
                30          30
                31          31
                32          32
                33          33
                34          34
                35          35
                36          36
                37          37
                38          38
                39          39
                40          40
                41          41
                42          42
                43          43
                44          44
                45          45
                46          46
                47          47
                48          48
                49          49
                50          50
                51          51
                52          52
                53          53

----------------------------------------------------------------------------------------

 
 
 KPOINTS: Num irrep kpoints: 1                    

Automatic generation of k-mesh.
 Grid dimensions read from file:
 generate k-points for:    1    1    1

 Generating k-lattice:

  Cartesian coordinates                     Fractional coordinates (reciprocal lattice)
     0.081790586  0.000000000  0.000000000     1.000000000  0.000000000  0.000000000
     0.000000000  0.081790586  0.000000000     0.000000000  1.000000000  0.000000000
     0.000000000  0.000000000  0.081790586     0.000000000  0.000000000  1.000000000

  Length of vectors
     0.081790586  0.081790586  0.081790586

  Shift w.r.t. Gamma in fractional coordinates (k-lattice)
     0.000000000  0.000000000  0.000000000

 
 Subroutine IBZKPT returns following result:
 ===========================================
 
 Found      1 irreducible k-points:
 
 Following reciprocal coordinates:
            Coordinates               Weight
  0.000000  0.000000  0.000000      1.000000
 
 Following cartesian coordinates:
            Coordinates               Weight
  0.000000  0.000000  0.000000      1.000000
 


--------------------------------------------------------------------------------------------------------




 Dimension of arrays:
   k-points           NKPTS =      1   k-points in BZ     NKDIM =      1   number of bands    NBANDS=    280
   number of dos      NEDOS =    301   number of ions     NIONS =     53
   non local maximal  LDIM  =      5   non local SUM 2l+1 LMDIM =     13
   total plane-waves  NPLWV = 110592
   max r-space proj   IRMAX =   1304   max aug-charges    IRDMAX=   3224
   dimension x,y,z NGX =    48 NGY =   48 NGZ =   48
   dimension x,y,z NGXF=    96 NGYF=   96 NGZF=   96
   support grid    NGXF=    96 NGYF=   96 NGZF=   96
   ions per type =              26  27
   NGX,Y,Z   is equivalent  to a cutoff of   6.53,  6.53,  6.53 a.u.
   NGXF,Y,Z  is equivalent  to a cutoff of  13.05, 13.05, 13.05 a.u.

 SYSTEM =  unknown system                          
 POSCAR =  Cs26 Cl27                               

 Startparameter for this run:
   NWRITE =      2    write-flag & timer
   PREC   = normal    normal or accurate (medium, high low for compatibility)
   ISTART =      0    job   : 0-new  1-cont  2-samecut
   ICHARG =      2    charge: 1-file 2-atom 10-const
   ISPIN  =      2    spin polarized calculation?
   LNONCOLLINEAR =      F non collinear calculations
   LSORBIT =      F    spin-orbit coupling
   INIWAV =      1    electr: 0-lowe 1-rand  2-diag
   LASPH  =      T    aspherical Exc in radial PAW
 Electronic Relaxation 1
   ENCUT  =  262.5 eV  19.29 Ry    4.39 a.u.  16.15 16.15 16.15*2*pi/ulx,y,z
   ENINI  =  262.5     initial cutoff
   ENAUG  =  407.9 eV  augmentation charge cutoff
   NELM   =    100;   NELMIN=  2; NELMDL= -5     # of ELM steps 
   EDIFF  = 0.1E-04   stopping-criterion for ELM
   LREAL  =      T    real-space projection
   NLSPLINE    = F    spline interpolate recip. space projectors
   LCOMPAT=      F    compatible to vasp.4.4
   GGA_COMPAT  = T    GGA compatible to vasp.4.4-vasp.4.6
   LMAXPAW     = -100 max onsite density
   LMAXMIX     =    2 max onsite mixed and CHGCAR
   VOSKOWN=      0    Vosko Wilk Nusair interpolation
   ROPT   =   -0.00050  -0.00050
 Ionic relaxation
   EDIFFG = -.3E-01   stopping-criterion for IOM
   NSW    =    300    number of steps for IOM
   NBLOCK =      1;   KBLOCK =    300    inner block; outer block 
   IBRION =      2    ionic relax: 0-MD 1-quasi-New 2-CG
   NFREE  =      1    steps in history (QN), initial steepest desc. (CG)
   ISIF   =      2    stress and relaxation
   IWAVPR =     11    prediction:  0-non 1-charg 2-wave 3-comb
   ISYM   =      2    0-nonsym 1-usesym 2-fastsym
   LCORR  =      T    Harris-Foulkes like correction to forces

   POTIM  = 0.5000    time-step for ionic-motion
   TEIN   =    0.0    initial temperature
   TEBEG  =    0.0;   TEEND  =   0.0 temperature during run
   SMASS  =  -3.00    Nose mass-parameter (am)
   estimated Nose-frequenzy (Omega)   =  0.10E-29 period in steps = 0.13E+47 mass=  -0.342E-26a.u.
   SCALEE = 1.0000    scale energy and forces
   NPACO  =    256;   APACO  = 10.0  distance and # of slots for P.C.
   PSTRESS=    0.0 pullay stress

  Mass of Ions in am
   POMASS = 132.90 35.45
  Ionic Valenz
   ZVAL   =   9.00  7.00
  Atomic Wigner-Seitz radii
   RWIGS  =  -1.00 -1.00
  virtual crystal weights 
   VCA    =   1.00  1.00
   NELECT =     422.0000    total number of electrons
   NUPDOWN=      -1.0000    fix difference up-down

 DOS related values:
   EMIN   =  10.00;   EMAX   =-10.00  energy-range for DOS
   EFERMI =   0.00;   METHOD = LEGACY      
   ISMEAR =     0;   SIGMA  =   0.10  broadening in eV -4-tet -1-fermi 0-gaus
   EFERMI_NEDOS =   21; number of points for ismear=-14 and -15

 Electronic relaxation 2 (details)
   IALGO  =     38    algorithm
   LDIAG  =      T    sub-space diagonalisation (order eigenvalues)
   LSUBROT=      F    optimize rotation matrix (better conditioning)
   LROBUST=      F    robust break criterion during scf (extrapolated energy error)
   ISEARCH=      0    line search for conjugate gradient (0, 1=use gradient)
   TURBO    =      0    0=normal 1=particle mesh
   IRESTART =      0    0=no restart 2=restart with 2 vectors
   NREBOOT  =      0    no. of reboots
   NMIN     =      0    reboot dimension
   EREF     =   0.00    reference energy to select bands
   IMIX   =      4    mixing-type and parameters
     AMIX     =   0.40;   BMIX     =  1.00
     AMIX_MAG =   1.60;   BMIX_MAG =  1.00
     AMIN     =   0.10
     WC   =   100.;   INIMIX=   1;  MIXPRE=   1;  MAXMIX= -45

 Intra band minimization:
   WEIMIN = 0.0010     energy-eigenvalue tresh-hold
   EBREAK =  0.89E-08  absolut break condition
   DEPER  =   0.30     relativ break condition  

   TIME   =   0.40     timestep for ELM

  volume/ion in A,a.u.               =      34.48       232.71
  Fermi-wavevector in a.u.,A,eV,Ry     =   1.004344  1.897934 13.724278  1.008706
  Thomas-Fermi vector in A             =   2.136953
 
 Write flags
   LWAVE        =      F    write WAVECAR
   LDOWNSAMPLE  =      F    k-point downsampling of WAVECAR
   LCHARG       =      F    write CHGCAR
   LVTOT        =      F    write LOCPOT, total local potential
   LVHAR        =      F    write LOCPOT, Hartree potential only
   WRT_POTENTIAL= false  ! write potential to hdf5 file
   LELF         =      F    write electronic localiz. function (ELF)
   LORBIT       =     10    0 simple, 1 ext, 2 COOP (PROOUT), +10 PAW based schemes


 Python interface
   PLUGINS active      =      F    recompile with -DPLUGINS to activate
 
 Dipole corrections
   LMONO      =      F    monopole corrections only (constant potential shift)
   LDIPOL     =      F    correct potential (dipole corrections)
   IDIPOL     =      0    1-x, 2-y, 3-z, 4-all directions 
   EPSILON    =  1.0000000 bulk dielectric constant
   LVACPOTAV  =      F  vacuum potentials using an averaging scheme for the charge density
   VACPOTFLAT =  0.1000000 required flatness to determine vacuum potential
 
Coulomb truncation method
  LTRUNCATE          =      F  Coulomb kernel truncation to be used

 
 Exchange correlation treatment:
   GGA     = PS    functional components
   XC_C    = 1    coefficients multiplying the functional components
   LIBXC   =     F    Libxc                    
   VOSKOWN =     0    Vosko Wilk Nusair interpolation
   LHFCALC =     F    Hartree Fock is set to
   LHFONE  =     F    Hartree Fock one center treatment
   AEXX    =    0.0000 exact exchange contribution

 Parameters of functionals:
   PS:
     No parameter
 
 Van der Waals corrections
   IVDW    =     0    specifies the selected vdW correction

 Linear response parameters
   LEPSILON=     F    determine dielectric tensor
   LRPA    =     F    only Hartree local field effects (RPA)
   LNABLA  =     F    use nabla operator in PAW spheres
   LVEL    =     F    velocity operator in full k-point grid
   CSHIFT  =0.1000    complex shift for real part using Kramers Kronig
   OMEGAMAX=  -1.0    maximum frequency
   DEG_THRESHOLD= 0.2000000E-02 threshold for treating states as degnerate
   RTIME   =   -0.100 relaxation time in fs
  (WPLASMAI=    0.000 imaginary part of plasma frequency in eV, 0.658/RTIME)
   DFIELD  = 0.0000000 0.0000000 0.0000000 field for delta impulse in time
 
  Optional k-point grid parameters
   LKPOINTS_OPT  =     F    use optional k-point grid
   KPOINTS_OPT_MODE=     1    mode for optional k-point grid
 
 Orbital magnetization related:
   ORBITALMAG=     F  switch on orbital magnetization
   LCHIMAG   =     F  perturbation theory with respect to B field
   DQ        =  0.001000  dq finite difference perturbation B field
   LLRAUG    =     F  two centre corrections for induced B field
   LBONE     =     F  B-component reconstruction in AE one-centre
   LVGVCALC  =     T  calculate vGv susceptibility
   LVGVAPPL  =     F  apply vGv susceptibility instead of pGv for G=0

 Random number generation:
   RANDOM_GENERATOR = DEFAULT
   PCG_SEED         = not used


--------------------------------------------------------------------------------------------------------


 conjugate gradient relaxation of ions
 charge density and potential will be updated during run
 spin polarized calculation
 Variant of blocked Davidson
 Davidson routine will perform the subspace rotation
 perform sub-space diagonalisation
    after iterative eigenvector-optimisation
 modified Broyden-mixing scheme, WC =      100.0
 initial mixing is a Kerker type mixing with AMIX =  0.4000 and BMIX =      1.0000
 Hartree-type preconditioning will be used
 using additional bands            69
 real space projection scheme for non local part
 use partial core corrections
 calculate Harris-corrections to forces 
   (improved forces if not selfconsistent)
 use gradient corrections 
 use of overlap-Matrix (Vanderbilt PP)
 Gauss-broadening in eV      SIGMA  =   0.10


--------------------------------------------------------------------------------------------------------


  energy-cutoff  :      262.47
  volume of cell :     1827.64
      direct lattice vectors                 reciprocal lattice vectors
    12.226345917  0.000000000  0.000000000     0.081790586  0.000000000  0.000000000
     0.000000000 12.226345917  0.000000000     0.000000000  0.081790586  0.000000000
     0.000000000  0.000000000 12.226345917     0.000000000  0.000000000  0.081790586

  length of vectors
    12.226345917 12.226345917 12.226345917     0.081790586  0.081790586  0.081790586


 
 k-points in units of 2pi/SCALE and weight: Num irrep kpoints: 1                    
   0.00000000  0.00000000  0.00000000       1.000
 
 k-points in reciprocal lattice and weights: Num irrep kpoints: 1                    
   0.00000000  0.00000000  0.00000000       1.000
 
 position of ions in fractional coordinates (direct lattice) 
   0.99546965  0.99671109  0.33583178
   0.99874813  0.99910992  0.66531317
   0.99815692  0.33796259  0.00067203
   0.00000000  0.33333333  0.33333333
   0.00000000  0.33333333  0.66666667
   0.99067472  0.65588139  0.99921596
   0.00000000  0.66666667  0.33333333
   0.00000000  0.66666667  0.66666667
   0.34378612  0.00109218  0.00143563
   0.33333333  0.00000000  0.33333333
   0.33333333  0.00000000  0.66666667
   0.33333333  0.33333333  0.00000000
   0.33333333  0.33333333  0.33333333
   0.33333333  0.33333333  0.66666667
   0.33333333  0.66666667  0.00000000
   0.33333333  0.66666667  0.33333333
   0.33333333  0.66666667  0.66666667
   0.67830882  0.99966398  0.99803272
   0.66666667  0.00000000  0.33333333
   0.66666667  0.00000000  0.66666667
   0.66666667  0.33333333  0.00000000
   0.66666667  0.33333333  0.33333333
   0.66666667  0.33333333  0.66666667
   0.66666667  0.66666667  0.00000000
   0.66666667  0.66666667  0.33333333
   0.66666667  0.66666667  0.66666667
   0.16667459  0.16610873  0.16931116
   0.16666667  0.16666667  0.50000000
   0.16490133  0.17191576  0.83355027
   0.16666667  0.50000000  0.16666667
   0.16666667  0.50000000  0.50000000
   0.16666667  0.50000000  0.83333333
   0.17027481  0.83391222  0.16379639
   0.16666667  0.83333333  0.50000000
   0.17146645  0.83009584  0.83151707
   0.50000000  0.16666667  0.16666667
   0.50000000  0.16666667  0.50000000
   0.50000000  0.16666667  0.83333333
   0.50000000  0.50000000  0.16666667
   0.50000000  0.50000000  0.50000000
   0.50000000  0.50000000  0.83333333
   0.50000000  0.83333333  0.16666667
   0.50000000  0.83333333  0.50000000
   0.50000000  0.83333333  0.83333333
   0.82542005  0.15925158  0.16270216
   0.83333333  0.16666667  0.50000000
   0.83075384  0.16619309  0.83451521
   0.83333333  0.50000000  0.16666667
   0.83333333  0.50000000  0.50000000
   0.83333333  0.50000000  0.83333333
   0.82927230  0.82841797  0.16215346
   0.83333333  0.83333333  0.50000000
   0.82555942  0.84084246  0.84539751
 
 position of ions in cartesian coordinates  (Angst):
  12.17095632 12.18613455  4.10599555
  12.21104007 12.21546348  8.13434901
  12.20381176  4.13204749  0.00821650
   0.00000000  4.07544864  4.07544864
   0.00000000  4.07544864  8.15089728
  12.11233184  8.01903278 12.21675995
   0.00000000  8.15089728  4.07544864
   0.00000000  8.15089728  8.15089728
   4.20324799  0.01335339  0.01755256
   4.07544864  0.00000000  4.07544864
   4.07544864  0.00000000  8.15089728
   4.07544864  4.07544864  0.00000000
   4.07544864  4.07544864  4.07544864
   4.07544864  4.07544864  8.15089728
   4.07544864  8.15089728  0.00000000
   4.07544864  8.15089728  4.07544864
   4.07544864  8.15089728  8.15089728
   8.29323825 12.22223763 12.20229329
   8.15089728  0.00000000  4.07544864
   8.15089728  0.00000000  8.15089728
   8.15089728  4.07544864  0.00000000
   8.15089728  4.07544864  4.07544864
   8.15089728  4.07544864  8.15089728
   8.15089728  8.15089728  0.00000000
   8.15089728  8.15089728  4.07544864
   8.15089728  8.15089728  8.15089728
   2.03782115  2.03090280  2.07005678
   2.03772432  2.03772432  6.11317296
   2.01614069  2.10190153 10.19127389
   2.03772432  6.11317296  2.03772432
   2.03772432  6.11317296  6.11317296
   2.03772432  6.11317296 10.18862160
   2.08183878 10.19569924  2.00263135
   2.03772432 10.18862160  6.11317296
   2.09640817 10.14903885 10.16641534
   6.11317296  2.03772432  2.03772432
   6.11317296  2.03772432  6.11317296
   6.11317296  2.03772432 10.18862160
   6.11317296  6.11317296  2.03772432
   6.11317296  6.11317296  6.11317296
   6.11317296  6.11317296 10.18862160
   6.11317296 10.18862160  2.03772432
   6.11317296 10.18862160  6.11317296
   6.11317296 10.18862160 10.18862160
  10.09187105  1.94706489  1.98925287
  10.18862160  2.03772432  6.11317296
  10.15708381  2.03193417 10.20307168
  10.18862160  6.11317296  2.03772432
  10.18862160  6.11317296  6.11317296
  10.18862160  6.11317296 10.18862160
  10.13897002 10.12852471  1.98254425
  10.18862160 10.18862160  6.11317296
  10.09357500 10.28043075 10.33612238
 


--------------------------------------------------------------------------------------------------------


 k-point     1 :   0.0000 0.0000 0.0000  plane waves:   17557

 maximum and minimum number of plane-waves per node :     17557    17557

 maximum number of plane-waves:     17557
 maximum index in each direction: 
   IXMAX=   16   IYMAX=   16   IZMAX=   16
   IXMIN=  -16   IYMIN=  -16   IZMIN=  -16


 serial   3D FFT for wavefunctions
 parallel 3D FFT for charge:
    minimum data exchange during FFTs selected (reduces bandwidth)


 total amount of memory used by VASP MPI-rank0   178875. kBytes
=======================================================================

   base                                    :      30000. kBytes
   nonlr-proj                              :       6377. kBytes
   fftplans                                :      15598. kBytes
   grid                                    :      44900. kBytes
   one-center                              :        859. kBytes
   wavefun                                 :      81141. kBytes
 
     INWAV:  cpu time      0.0001: real time      0.0002
 Broyden mixing: mesh for mixing (old mesh)
   NGX = 33   NGY = 33   NGZ = 33
  (NGX  = 96   NGY  = 96   NGZ  = 96)
  gives a total of  35937 points

 initial charge density was supplied:
 charge density of overlapping atoms calculated
 number of electron     423.0000000 magnetization      53.0000000
 keeping initial charge density in first step


--------------------------------------------------------------------------------------------------------


 Maximum index for non-local projection operator          1234
 Maximum index for augmentation-charges          1473 (set IRDMAX)


--------------------------------------------------------------------------------------------------------


 First call to EWALD:  gamma=   0.145
 Maximum number of real-space cells   3x   3x   3
 Maximum number of reciprocal cells   3x   3x   3

    FEWALD:  cpu time      0.0424: real time      0.0425


--------------------------------------- Ionic step        1  -------------------------------------------




--------------------------------------- Iteration      1(   1)  ---------------------------------------


    POTLOK:  cpu time      0.4347: real time      0.4618
    SETDIJ:  cpu time      2.2866: real time      2.2925
     EDDAV:  cpu time      0.5699: real time      0.5714
       DOS:  cpu time      0.0005: real time      0.0005
    --------------------------------------------
      LOOP:  cpu time      3.2917: real time      3.3263

 eigenvalue-minimisations  :  1136
 total energy-change (2. order) : 0.2325267E+04  (-0.1220482E+05)
 number of electron     423.0000000 magnetization      53.0000000
 augmentation part      423.0000000 magnetization      53.0000000

 Free energy of the ion-electron system (eV)
  ---------------------------------------------------
  alpha Z        PSCENC =      1390.48224925
  Ewald energy   TEWEN  =    -21532.55444335
  -Hartree energ DENC   =     -3628.34317722
  -exchange      EXHF   =         0.00000000
  -V(xc)+E(xc)   XCENC  =       840.77292165
  PAW double counting   =     19806.45903776   -19618.38849467
  entropy T*S    EENTRO =        -0.08603630
  eigenvalues    EBANDS =      -416.06705864
  atomic energy  EATOM  =     25482.99243790
  Solvation  Ediel_sol  =         0.00000000
  ---------------------------------------------------
  free energy    TOTEN  =      2325.26743639 eV

  energy without entropy =     2325.35347269  energy(sigma->0) =     2325.31045454


--------------------------------------------------------------------------------------------------------




--------------------------------------- Iteration      1(   2)  ---------------------------------------


     EDDAV:  cpu time      0.5376: real time      0.5389
       DOS:  cpu time      0.0004: real time      0.0004
    --------------------------------------------
      LOOP:  cpu time      0.5380: real time      0.5393

 eigenvalue-minimisations  :  1392
 total energy-change (2. order) :-0.2291518E+04  (-0.2219291E+04)
 number of electron     423.0000000 magnetization      53.0000000
 augmentation part      423.0000000 magnetization      53.0000000

 Free energy of the ion-electron system (eV)
  ---------------------------------------------------
  alpha Z        PSCENC =      1390.48224925
  Ewald energy   TEWEN  =    -21532.55444335
  -Hartree energ DENC   =     -3628.34317722
  -exchange      EXHF   =         0.00000000
  -V(xc)+E(xc)   XCENC  =       840.77292165
  PAW double counting   =     19806.45903776   -19618.38849467
  entropy T*S    EENTRO =        -0.05276217
  eigenvalues    EBANDS =     -2707.61813649
  atomic energy  EATOM  =     25482.99243790
  Solvation  Ediel_sol  =         0.00000000
  ---------------------------------------------------
  free energy    TOTEN  =        33.74963266 eV

  energy without entropy =       33.80239484  energy(sigma->0) =       33.77601375


--------------------------------------------------------------------------------------------------------




--------------------------------------- Iteration      1(   3)  ---------------------------------------


     EDDAV:  cpu time      0.5264: real time      0.5278
       DOS:  cpu time      0.0004: real time      0.0004
    --------------------------------------------
      LOOP:  cpu time      0.5268: real time      0.5283

 eigenvalue-minimisations  :  1344
 total energy-change (2. order) :-0.2074849E+03  (-0.2060207E+03)
 number of electron     423.0000000 magnetization      53.0000000
 augmentation part      423.0000000 magnetization      53.0000000

 Free energy of the ion-electron system (eV)
  ---------------------------------------------------
  alpha Z        PSCENC =      1390.48224925
  Ewald energy   TEWEN  =    -21532.55444335
  -Hartree energ DENC   =     -3628.34317722
  -exchange      EXHF   =         0.00000000
  -V(xc)+E(xc)   XCENC  =       840.77292165
  PAW double counting   =     19806.45903776   -19618.38849467
  entropy T*S    EENTRO =        -0.15816326
  eigenvalues    EBANDS =     -2914.99765461
  atomic energy  EATOM  =     25482.99243790
  Solvation  Ediel_sol  =         0.00000000
  ---------------------------------------------------
  free energy    TOTEN  =      -173.73528654 eV

  energy without entropy =     -173.57712329  energy(sigma->0) =     -173.65620491


--------------------------------------------------------------------------------------------------------




--------------------------------------- Iteration      1(   4)  ---------------------------------------


     EDDAV:  cpu time      0.5211: real time      0.5226
       DOS:  cpu time      0.0004: real time      0.0004
    --------------------------------------------
      LOOP:  cpu time      0.5215: real time      0.5230

 eigenvalue-minimisations  :  1328
 total energy-change (2. order) :-0.3457129E+01  (-0.3448418E+01)
 number of electron     423.0000000 magnetization      53.0000000
 augmentation part      423.0000000 magnetization      53.0000000

 Free energy of the ion-electron system (eV)
  ---------------------------------------------------
  alpha Z        PSCENC =      1390.48224925
  Ewald energy   TEWEN  =    -21532.55444335
  -Hartree energ DENC   =     -3628.34317722
  -exchange      EXHF   =         0.00000000
  -V(xc)+E(xc)   XCENC  =       840.77292165
  PAW double counting   =     19806.45903776   -19618.38849467
  entropy T*S    EENTRO =        -0.15844182
  eigenvalues    EBANDS =     -2918.45450503
  atomic energy  EATOM  =     25482.99243790
  Solvation  Ediel_sol  =         0.00000000
  ---------------------------------------------------
  free energy    TOTEN  =      -177.19241552 eV

  energy without entropy =     -177.03397370  energy(sigma->0) =     -177.11319461


--------------------------------------------------------------------------------------------------------




--------------------------------------- Iteration      1(   5)  ---------------------------------------


     EDDAV:  cpu time      0.5151: real time      0.5164
       DOS:  cpu time      0.0004: real time      0.0004
    CHARGE:  cpu time      0.0534: real time      0.0535
    MIXING:  cpu time      0.0106: real time      0.0106
    --------------------------------------------
      LOOP:  cpu time      0.5794: real time      0.5809

 eigenvalue-minimisations  :  1312
 total energy-change (2. order) :-0.7888666E-01  (-0.7883673E-01)
 number of electron     422.0000282 magnetization      35.9519176
 augmentation part      -77.5879456 magnetization      33.7123968

 Broyden mixing:
  rms(total) = 0.24483E+01    rms(broyden)= 0.24477E+01
  rms(prec ) = 0.26788E+01
  weight for this iteration     100.00

 Free energy of the ion-electron system (eV)
  ---------------------------------------------------
  alpha Z        PSCENC =      1390.48224925
  Ewald energy   TEWEN  =    -21532.55444335
  -Hartree energ DENC   =     -3628.34317722
  -exchange      EXHF   =         0.00000000
  -V(xc)+E(xc)   XCENC  =       840.77292165
  PAW double counting   =     19806.45903776   -19618.38849467
  entropy T*S    EENTRO =        -0.15846943
  eigenvalues    EBANDS =     -2918.53336407
  atomic energy  EATOM  =     25482.99243790
  Solvation  Ediel_sol  =         0.00000000
  ---------------------------------------------------
  free energy    TOTEN  =      -177.27130218 eV

  energy without entropy =     -177.11283275  energy(sigma->0) =     -177.19206746


--------------------------------------------------------------------------------------------------------




--------------------------------------- Iteration      1(   6)  ---------------------------------------


    POTLOK:  cpu time      0.0097: real time      0.0098
    SETDIJ:  cpu time      2.2328: real time      2.2371
     EDDAV:  cpu time      0.4952: real time      0.4962
       DOS:  cpu time      0.0004: real time      0.0004
    CHARGE:  cpu time      0.0477: real time      0.0478
    MIXING:  cpu time      0.0107: real time      0.0107
    --------------------------------------------
      LOOP:  cpu time      2.7964: real time      2.8021

 eigenvalue-minimisations  :  1240
 total energy-change (2. order) : 0.5143960E+01  (-0.2822576E+01)
 number of electron     422.0000323 magnetization      25.2231677
 augmentation part      -77.4892860 magnetization      23.7215034

 Broyden mixing:
  rms(total) = 0.13682E+01    rms(broyden)= 0.13678E+01
  rms(prec ) = 0.14763E+01
  weight for this iteration     100.00

 eigenvalues of (default mixing * dielectric matrix)
  average eigenvalue GAMMA=   0.8354
  0.8354

 Free energy of the ion-electron system (eV)
  ---------------------------------------------------
  alpha Z        PSCENC =      1390.48224925
  Ewald energy   TEWEN  =    -21532.55444335
  -Hartree energ DENC   =     -3708.22435019
  -exchange      EXHF   =         0.00000000
  -V(xc)+E(xc)   XCENC  =       847.14631734
  PAW double counting   =     21172.74877608   -20986.93196468
  entropy T*S    EENTRO =        -0.14348636
  eigenvalues    EBANDS =     -2837.64287859
  atomic energy  EATOM  =     25482.99243790
  Solvation  Ediel_sol  =         0.00000000
  ---------------------------------------------------
  free energy    TOTEN  =      -172.12734260 eV

  energy without entropy =     -171.98385624  energy(sigma->0) =     -172.05559942


--------------------------------------------------------------------------------------------------------




--------------------------------------- Iteration      1(   7)  ---------------------------------------


    POTLOK:  cpu time      0.0094: real time      0.0096
    SETDIJ:  cpu time      2.1108: real time      2.1150
     EDDAV:  cpu time      0.5106: real time      0.5118
       DOS:  cpu time      0.0004: real time      0.0004
    CHARGE:  cpu time      0.0477: real time      0.0478
    MIXING:  cpu time      0.0109: real time      0.0110
    --------------------------------------------
      LOOP:  cpu time      2.6900: real time      2.6956

 eigenvalue-minimisations  :  1296
 total energy-change (2. order) :-0.2590050E+01  (-0.6528774E+00)
 number of electron     422.0000344 magnetization      16.6844860
 augmentation part      -77.6438424 magnetization      15.0590024

 Broyden mixing:
  rms(total) = 0.98023E+00    rms(broyden)= 0.98013E+00
  rms(prec ) = 0.10541E+01
  weight for this iteration     100.00

 eigenvalues of (default mixing * dielectric matrix)
  average eigenvalue GAMMA=   0.8162
  0.9811  0.6514

 Free energy of the ion-electron system (eV)
  ---------------------------------------------------
  alpha Z        PSCENC =      1390.48224925
  Ewald energy   TEWEN  =    -21532.55444335
  -Hartree energ DENC   =     -3728.86536325
  -exchange      EXHF   =         0.00000000
  -V(xc)+E(xc)   XCENC  =       845.94086195
  PAW double counting   =     22230.64542103   -22045.89380625
  entropy T*S    EENTRO =        -0.14784568
  eigenvalues    EBANDS =     -2817.31690428
  atomic energy  EATOM  =     25482.99243790
  Solvation  Ediel_sol  =         0.00000000
  ---------------------------------------------------
  free energy    TOTEN  =      -174.71739268 eV

  energy without entropy =     -174.56954700  energy(sigma->0) =     -174.64346984


--------------------------------------------------------------------------------------------------------




--------------------------------------- Iteration      1(   8)  ---------------------------------------


    POTLOK:  cpu time      0.0090: real time      0.0095
    SETDIJ:  cpu time      2.0670: real time      2.0710
     EDDAV:  cpu time      0.5143: real time      0.5154
       DOS:  cpu time      0.0004: real time      0.0004
    CHARGE:  cpu time      0.0479: real time      0.0481
    MIXING:  cpu time      0.0113: real time      0.0113
    --------------------------------------------
      LOOP:  cpu time      2.6500: real time      2.6556

 eigenvalue-minimisations  :  1304
 total energy-change (2. order) :-0.1926939E+01  (-0.1960070E+00)
 number of electron     422.0000351 magnetization       6.9792820
 augmentation part      -77.6670297 magnetization       5.3630334

 Broyden mixing:
  rms(total) = 0.58518E+00    rms(broyden)= 0.58514E+00
  rms(prec ) = 0.62289E+00
  weight for this iteration     100.00

 eigenvalues of (default mixing * dielectric matrix)
  average eigenvalue GAMMA=   1.1774
  2.0610  0.9117  0.5593

 Free energy of the ion-electron system (eV)
  ---------------------------------------------------
  alpha Z        PSCENC =      1390.48224925
  Ewald energy   TEWEN  =    -21532.55444335
  -Hartree energ DENC   =     -3739.84766874
  -exchange      EXHF   =         0.00000000
  -V(xc)+E(xc)   XCENC  =       846.01428649
  PAW double counting   =     23064.35531712   -22881.01105992
  entropy T*S    EENTRO =        -0.17135006
  eigenvalues    EBANDS =     -2806.90410050
  atomic energy  EATOM  =     25482.99243790
  Solvation  Ediel_sol  =         0.00000000
  ---------------------------------------------------
  free energy    TOTEN  =      -176.64433181 eV

  energy without entropy =     -176.47298175  energy(sigma->0) =     -176.55865678


--------------------------------------------------------------------------------------------------------




--------------------------------------- Iteration      1(   9)  ---------------------------------------


    POTLOK:  cpu time      0.0091: real time      0.0094
    SETDIJ:  cpu time      2.0626: real time      2.0666
     EDDAV:  cpu time      0.5093: real time      0.5103
       DOS:  cpu time      0.0004: real time      0.0004
    CHARGE:  cpu time      0.0478: real time      0.0479
    MIXING:  cpu time      0.0116: real time      0.0116
    --------------------------------------------
      LOOP:  cpu time      2.6408: real time      2.6464

 eigenvalue-minimisations  :  1288
 total energy-change (2. order) :-0.1597939E+01  (-0.1537292E+00)
 number of electron     422.0000352 magnetization       4.6944624
 augmentation part      -77.7124120 magnetization       3.9424048

 Broyden mixing:
  rms(total) = 0.38289E+00    rms(broyden)= 0.38273E+00
  rms(prec ) = 0.59858E+00
  weight for this iteration     100.00

 eigenvalues of (default mixing * dielectric matrix)
  average eigenvalue GAMMA=   1.1504
  2.5361  0.9056  0.5801  0.5801

 Free energy of the ion-electron system (eV)
  ---------------------------------------------------
  alpha Z        PSCENC =      1390.48224925
  Ewald energy   TEWEN  =    -21532.55444335
  -Hartree energ DENC   =     -3744.94144035
  -exchange      EXHF   =         0.00000000
  -V(xc)+E(xc)   XCENC  =       846.25828447
  PAW double counting   =     23937.03053715   -23755.24683502
  entropy T*S    EENTRO =        -0.17132200
  eigenvalues    EBANDS =     -2802.09173877
  atomic energy  EATOM  =     25482.99243790
  Solvation  Ediel_sol  =         0.00000000
  ---------------------------------------------------
  free energy    TOTEN  =      -178.24227073 eV

  energy without entropy =     -178.07094872  energy(sigma->0) =     -178.15660972


--------------------------------------------------------------------------------------------------------




--------------------------------------- Iteration      1(  10)  ---------------------------------------


    POTLOK:  cpu time      0.0094: real time      0.0099
    SETDIJ:  cpu time      2.0647: real time      2.0689
     EDDAV:  cpu time      0.5497: real time      0.5512
       DOS:  cpu time      0.0004: real time      0.0004
    CHARGE:  cpu time      0.0479: real time      0.0480
    MIXING:  cpu time      0.0127: real time      0.0127
    --------------------------------------------
      LOOP:  cpu time      2.6849: real time      2.6912

 eigenvalue-minimisations  :  1424
 total energy-change (2. order) :-0.2178055E+00  (-0.2611561E+00)
 number of electron     422.0000351 magnetization       3.4630363
 augmentation part      -77.7283104 magnetization       2.1029466

 Broyden mixing:
  rms(total) = 0.21290E+00    rms(broyden)= 0.21261E+00
  rms(prec ) = 0.29384E+00
  weight for this iteration     100.00

 eigenvalues of (default mixing * dielectric matrix)
  average eigenvalue GAMMA=   1.0176
  2.6055  0.9641  0.6602  0.4836  0.3747

 Free energy of the ion-electron system (eV)
  ---------------------------------------------------
  alpha Z        PSCENC =      1390.48224925
  Ewald energy   TEWEN  =    -21532.55444335
  -Hartree energ DENC   =     -3745.29050410
  -exchange      EXHF   =         0.00000000
  -V(xc)+E(xc)   XCENC  =       846.27448059
  PAW double counting   =     24082.17630606   -23900.71439265
  entropy T*S    EENTRO =        -0.18647389
  eigenvalues    EBANDS =     -2801.63973602
  atomic energy  EATOM  =     25482.99243790
  Solvation  Ediel_sol  =         0.00000000
  ---------------------------------------------------
  free energy    TOTEN  =      -178.46007620 eV

  energy without entropy =     -178.27360231  energy(sigma->0) =     -178.36683925


--------------------------------------------------------------------------------------------------------




--------------------------------------- Iteration      1(  11)  ---------------------------------------


    POTLOK:  cpu time      0.0091: real time      0.0095
    SETDIJ:  cpu time      1.9127: real time      1.9168
     EDDAV:  cpu time      0.5188: real time      0.5201
       DOS:  cpu time      0.0004: real time      0.0004
    CHARGE:  cpu time      0.0476: real time      0.0477
    MIXING:  cpu time      0.0126: real time      0.0126
    --------------------------------------------
      LOOP:  cpu time      2.5012: real time      2.5072

 eigenvalue-minimisations  :  1320
 total energy-change (2. order) :-0.8623293E-01  (-0.3174549E-01)
 number of electron     422.0000351 magnetization       3.0004867
 augmentation part      -77.7318455 magnetization       1.8407986

 Broyden mixing:
  rms(total) = 0.14037E+00    rms(broyden)= 0.14030E+00
  rms(prec ) = 0.18552E+00
  weight for this iteration     100.00

 eigenvalues of (default mixing * dielectric matrix)
  average eigenvalue GAMMA=   0.9458
  2.5752  1.0092  0.6513  0.6513  0.3938  0.3938

 Free energy of the ion-electron system (eV)
  ---------------------------------------------------
  alpha Z        PSCENC =      1390.48224925
  Ewald energy   TEWEN  =    -21532.55444335
  -Hartree energ DENC   =     -3743.96147884
  -exchange      EXHF   =         0.00000000
  -V(xc)+E(xc)   XCENC  =       846.15632187
  PAW double counting   =     24101.67861694   -23920.33675607
  entropy T*S    EENTRO =        -0.19181591
  eigenvalues    EBANDS =     -2802.81144093
  atomic energy  EATOM  =     25482.99243790
  Solvation  Ediel_sol  =         0.00000000
  ---------------------------------------------------
  free energy    TOTEN  =      -178.54630913 eV

  energy without entropy =     -178.35449322  energy(sigma->0) =     -178.45040117


--------------------------------------------------------------------------------------------------------




--------------------------------------- Iteration      1(  12)  ---------------------------------------


    POTLOK:  cpu time      0.0094: real time      0.0098
    SETDIJ:  cpu time      1.9115: real time      1.9156
     EDDAV:  cpu time      0.5268: real time      0.5282
       DOS:  cpu time      0.0004: real time      0.0004
    CHARGE:  cpu time      0.0481: real time      0.0482
    MIXING:  cpu time      0.0131: real time      0.0131
    --------------------------------------------
      LOOP:  cpu time      2.5093: real time      2.5153

 eigenvalue-minimisations  :  1352
 total energy-change (2. order) : 0.1381353E-02  (-0.5965408E-02)
 number of electron     422.0000351 magnetization       2.4548372
 augmentation part      -77.7331192 magnetization       1.2370934

 Broyden mixing:
  rms(total) = 0.87786E-01    rms(broyden)= 0.87764E-01
  rms(prec ) = 0.12216E+00
  weight for this iteration     100.00

 eigenvalues of (default mixing * dielectric matrix)
  average eigenvalue GAMMA=   0.9487
  2.4580  1.3337  0.8129  0.6066  0.6066  0.4115  0.4115

 Free energy of the ion-electron system (eV)
  ---------------------------------------------------
  alpha Z        PSCENC =      1390.48224925
  Ewald energy   TEWEN  =    -21532.55444335
  -Hartree energ DENC   =     -3743.20514811
  -exchange      EXHF   =         0.00000000
  -V(xc)+E(xc)   XCENC  =       846.10377992
  PAW double counting   =     24079.56852591   -23898.26145378
  entropy T*S    EENTRO =        -0.19174671
  eigenvalues    EBANDS =     -2803.47912881
  atomic energy  EATOM  =     25482.99243790
  Solvation  Ediel_sol  =         0.00000000
  ---------------------------------------------------
  free energy    TOTEN  =      -178.54492778 eV

  energy without entropy =     -178.35318106  energy(sigma->0) =     -178.44905442


--------------------------------------------------------------------------------------------------------




--------------------------------------- Iteration      1(  13)  ---------------------------------------


    POTLOK:  cpu time      0.0094: real time      0.0097
    SETDIJ:  cpu time      1.9117: real time      1.9159
     EDDAV:  cpu time      0.5358: real time      0.5371
       DOS:  cpu time      0.0004: real time      0.0004
    CHARGE:  cpu time      0.0479: real time      0.0481
    MIXING:  cpu time      0.0138: real time      0.0139
    --------------------------------------------
      LOOP:  cpu time      2.5191: real time      2.5251

 eigenvalue-minimisations  :  1384
 total energy-change (2. order) :-0.1054722E-01  (-0.3077722E-02)
 number of electron     422.0000350 magnetization       2.0179792
 augmentation part      -77.7336521 magnetization       0.7436000

 Broyden mixing:
  rms(total) = 0.62551E-01    rms(broyden)= 0.62527E-01
  rms(prec ) = 0.82887E-01
  weight for this iteration     100.00

 eigenvalues of (default mixing * dielectric matrix)
  average eigenvalue GAMMA=   0.9633
  2.3113  1.7607  0.8970  0.8970  0.6112  0.4356  0.4356  0.3584

 Free energy of the ion-electron system (eV)
  ---------------------------------------------------
  alpha Z        PSCENC =      1390.48224925
  Ewald energy   TEWEN  =    -21532.55444335
  -Hartree energ DENC   =     -3742.42089879
  -exchange      EXHF   =         0.00000000
  -V(xc)+E(xc)   XCENC  =       846.05128850
  PAW double counting   =     24032.63292625   -23851.34921585
  entropy T*S    EENTRO =        -0.19586409
  eigenvalues    EBANDS =     -2804.19395483
  atomic energy  EATOM  =     25482.99243790
  Solvation  Ediel_sol  =         0.00000000
  ---------------------------------------------------
  free energy    TOTEN  =      -178.55547499 eV

  energy without entropy =     -178.35961091  energy(sigma->0) =     -178.45754295


--------------------------------------------------------------------------------------------------------




--------------------------------------- Iteration      1(  14)  ---------------------------------------


    POTLOK:  cpu time      0.0093: real time      0.0098
    SETDIJ:  cpu time      1.9102: real time      1.9146
     EDDAV:  cpu time      0.5406: real time      0.5422
       DOS:  cpu time      0.0004: real time      0.0004
    CHARGE:  cpu time      0.0471: real time      0.0472
    MIXING:  cpu time      0.0145: real time      0.0145
    --------------------------------------------
      LOOP:  cpu time      2.5222: real time      2.5287

 eigenvalue-minimisations  :  1400
 total energy-change (2. order) :-0.1115757E-01  (-0.2664120E-02)
 number of electron     422.0000350 magnetization       1.7667737
 augmentation part      -77.7324709 magnetization       0.4931072

 Broyden mixing:
  rms(total) = 0.60146E-01    rms(broyden)= 0.60091E-01
  rms(prec ) = 0.83900E-01
  weight for this iteration     100.00

 eigenvalues of (default mixing * dielectric matrix)
  average eigenvalue GAMMA=   0.9314
  2.1947  2.1947  0.8663  0.8663  0.5389  0.5389  0.4051  0.4051  0.3727

 Free energy of the ion-electron system (eV)
  ---------------------------------------------------
  alpha Z        PSCENC =      1390.48224925
  Ewald energy   TEWEN  =    -21532.55444335
  -Hartree energ DENC   =     -3742.50841746
  -exchange      EXHF   =         0.00000000
  -V(xc)+E(xc)   XCENC  =       846.05887317
  PAW double counting   =     24006.16730438   -23824.91462463
  entropy T*S    EENTRO =        -0.19848723
  eigenvalues    EBANDS =     -2804.09152460
  atomic energy  EATOM  =     25482.99243790
  Solvation  Ediel_sol  =         0.00000000
  ---------------------------------------------------
  free energy    TOTEN  =      -178.56663256 eV

  energy without entropy =     -178.36814533  energy(sigma->0) =     -178.46738895


--------------------------------------------------------------------------------------------------------




--------------------------------------- Iteration      1(  15)  ---------------------------------------


    POTLOK:  cpu time      0.0094: real time      0.0097
    SETDIJ:  cpu time      1.9106: real time      1.9155
     EDDAV:  cpu time      0.5007: real time      0.5021
       DOS:  cpu time      0.0004: real time      0.0004
    CHARGE:  cpu time      0.0479: real time      0.0481
    MIXING:  cpu time      0.0154: real time      0.0155
    --------------------------------------------
      LOOP:  cpu time      2.4845: real time      2.4913

 eigenvalue-minimisations  :  1256
 total energy-change (2. order) :-0.1819758E-02  (-0.6898765E-03)
 number of electron     422.0000350 magnetization       1.5834147
 augmentation part      -77.7316060 magnetization       0.2958353

 Broyden mixing:
  rms(total) = 0.40542E-01    rms(broyden)= 0.40532E-01
  rms(prec ) = 0.51726E-01
  weight for this iteration     100.00

 eigenvalues of (default mixing * dielectric matrix)
  average eigenvalue GAMMA=   0.9338
  2.1746  2.1746  0.9862  0.9862  0.6656  0.6656  0.5690  0.3883  0.3883  0.3389

 Free energy of the ion-electron system (eV)
  ---------------------------------------------------
  alpha Z        PSCENC =      1390.48224925
  Ewald energy   TEWEN  =    -21532.55444335
  -Hartree energ DENC   =     -3742.63260194
  -exchange      EXHF   =         0.00000000
  -V(xc)+E(xc)   XCENC  =       846.06875627
  PAW double counting   =     23990.32832013   -23809.09393129
  entropy T*S    EENTRO =        -0.19720188
  eigenvalues    EBANDS =     -2803.96203742
  atomic energy  EATOM  =     25482.99243790
  Solvation  Ediel_sol  =         0.00000000
  ---------------------------------------------------
  free energy    TOTEN  =      -178.56845232 eV

  energy without entropy =     -178.37125044  energy(sigma->0) =     -178.46985138


--------------------------------------------------------------------------------------------------------




--------------------------------------- Iteration      1(  16)  ---------------------------------------


    POTLOK:  cpu time      0.0103: real time      0.0106
    SETDIJ:  cpu time      2.1044: real time      2.1097
     EDDAV:  cpu time      0.5307: real time      0.5322
       DOS:  cpu time      0.0004: real time      0.0004
    CHARGE:  cpu time      0.0490: real time      0.0491
    MIXING:  cpu time      0.0158: real time      0.0159
    --------------------------------------------
      LOOP:  cpu time      2.7106: real time      2.7180

 eigenvalue-minimisations  :  1368
 total energy-change (2. order) :-0.5939887E-03  (-0.5221053E-03)
 number of electron     422.0000350 magnetization       1.3693812
 augmentation part      -77.7309227 magnetization       0.0859990

 Broyden mixing:
  rms(total) = 0.20295E-01    rms(broyden)= 0.20288E-01
  rms(prec ) = 0.23700E-01
  weight for this iteration     100.00

 eigenvalues of (default mixing * dielectric matrix)
  average eigenvalue GAMMA=   0.9686
  2.5571  1.8561  1.6266  0.8999  0.6958  0.6958  0.6758  0.5160  0.3968  0.3968
  0.3376

 Free energy of the ion-electron system (eV)
  ---------------------------------------------------
  alpha Z        PSCENC =      1390.48224925
  Ewald energy   TEWEN  =    -21532.55444335
  -Hartree energ DENC   =     -3742.80519997
  -exchange      EXHF   =         0.00000000
  -V(xc)+E(xc)   XCENC  =       846.08431815
  PAW double counting   =     23983.73668936   -23802.51250597
  entropy T*S    EENTRO =        -0.19702100
  eigenvalues    EBANDS =     -2803.79557068
  atomic energy  EATOM  =     25482.99243790
  Solvation  Ediel_sol  =         0.00000000
  ---------------------------------------------------
  free energy    TOTEN  =      -178.56904631 eV

  energy without entropy =     -178.37202531  energy(sigma->0) =     -178.47053581


--------------------------------------------------------------------------------------------------------




--------------------------------------- Iteration      1(  17)  ---------------------------------------


    POTLOK:  cpu time      0.0097: real time      0.0098
    SETDIJ:  cpu time      2.0992: real time      2.1045
     EDDAV:  cpu time      0.5094: real time      0.5109
       DOS:  cpu time      0.0004: real time      0.0004
    CHARGE:  cpu time      0.0479: real time      0.0480
    MIXING:  cpu time      0.0164: real time      0.0164
    --------------------------------------------
      LOOP:  cpu time      2.6829: real time      2.6901

 eigenvalue-minimisations  :  1288
 total energy-change (2. order) :-0.9927835E-03  (-0.2668341E-03)
 number of electron     422.0000350 magnetization       1.2864152
 augmentation part      -77.7313887 magnetization       0.0080117

 Broyden mixing:
  rms(total) = 0.11950E-01    rms(broyden)= 0.11934E-01
  rms(prec ) = 0.15817E-01
  weight for this iteration     100.00

 eigenvalues of (default mixing * dielectric matrix)
  average eigenvalue GAMMA=   0.9617
  2.7004  1.9266  1.7023  0.8074  0.8074  0.6829  0.6829  0.5487  0.5487  0.3981
  0.3981  0.3367

 Free energy of the ion-electron system (eV)
  ---------------------------------------------------
  alpha Z        PSCENC =      1390.48224925
  Ewald energy   TEWEN  =    -21532.55444335
  -Hartree energ DENC   =     -3742.97542752
  -exchange      EXHF   =         0.00000000
  -V(xc)+E(xc)   XCENC  =       846.10245852
  PAW double counting   =     23978.74775450   -23797.53547378
  entropy T*S    EENTRO =        -0.19738392
  eigenvalues    EBANDS =     -2803.63221069
  atomic energy  EATOM  =     25482.99243790
  Solvation  Ediel_sol  =         0.00000000
  ---------------------------------------------------
  free energy    TOTEN  =      -178.57003909 eV

  energy without entropy =     -178.37265518  energy(sigma->0) =     -178.47134714


--------------------------------------------------------------------------------------------------------




--------------------------------------- Iteration      1(  18)  ---------------------------------------


    POTLOK:  cpu time      0.0097: real time      0.0100
    SETDIJ:  cpu time      2.0922: real time      2.0975
     EDDAV:  cpu time      0.5122: real time      0.5136
       DOS:  cpu time      0.0004: real time      0.0004
    CHARGE:  cpu time      0.0481: real time      0.0483
    MIXING:  cpu time      0.0169: real time      0.0170
    --------------------------------------------
      LOOP:  cpu time      2.6794: real time      2.6867

 eigenvalue-minimisations  :  1296
 total energy-change (2. order) :-0.2095580E-03  (-0.5866597E-04)
 number of electron     422.0000350 magnetization       1.2426750
 augmentation part      -77.7312768 magnetization      -0.0244700

 Broyden mixing:
  rms(total) = 0.98765E-02    rms(broyden)= 0.98706E-02
  rms(prec ) = 0.13837E-01
  weight for this iteration     100.00

 eigenvalues of (default mixing * dielectric matrix)
  average eigenvalue GAMMA=   0.9617
  2.8686  2.0246  1.7262  0.8534  0.8534  0.7907  0.6943  0.6015  0.6015  0.3929
  0.3929  0.3674  0.3346

 Free energy of the ion-electron system (eV)
  ---------------------------------------------------
  alpha Z        PSCENC =      1390.48224925
  Ewald energy   TEWEN  =    -21532.55444335
  -Hartree energ DENC   =     -3743.01481168
  -exchange      EXHF   =         0.00000000
  -V(xc)+E(xc)   XCENC  =       846.10680851
  PAW double counting   =     23976.24904688   -23795.03935799
  entropy T*S    EENTRO =        -0.19756544
  eigenvalues    EBANDS =     -2803.59461274
  atomic energy  EATOM  =     25482.99243790
  Solvation  Ediel_sol  =         0.00000000
  ---------------------------------------------------
  free energy    TOTEN  =      -178.57024865 eV

  energy without entropy =     -178.37268321  energy(sigma->0) =     -178.47146593


--------------------------------------------------------------------------------------------------------




--------------------------------------- Iteration      1(  19)  ---------------------------------------


    POTLOK:  cpu time      0.0096: real time      0.0099
    SETDIJ:  cpu time      2.1269: real time      2.1322
     EDDAV:  cpu time      0.4953: real time      0.4967
       DOS:  cpu time      0.0004: real time      0.0004
    CHARGE:  cpu time      0.0482: real time      0.0483
    MIXING:  cpu time      0.0179: real time      0.0180
    --------------------------------------------
      LOOP:  cpu time      2.6983: real time      2.7056

 eigenvalue-minimisations  :  1240
 total energy-change (2. order) : 0.7798531E-05  (-0.1976794E-04)
 number of electron     422.0000350 magnetization       1.2240032
 augmentation part      -77.7311895 magnetization      -0.0345766

 Broyden mixing:
  rms(total) = 0.56008E-02    rms(broyden)= 0.55965E-02
  rms(prec ) = 0.69874E-02
  weight for this iteration     100.00

 eigenvalues of (default mixing * dielectric matrix)
  average eigenvalue GAMMA=   0.9389
  2.9298  2.1951  1.5487  0.9366  0.9366  0.7543  0.7543  0.5664  0.5465  0.5465
  0.3959  0.3959  0.3312  0.3062

 Free energy of the ion-electron system (eV)
  ---------------------------------------------------
  alpha Z        PSCENC =      1390.48224925
  Ewald energy   TEWEN  =    -21532.55444335
  -Hartree energ DENC   =     -3743.02962255
  -exchange      EXHF   =         0.00000000
  -V(xc)+E(xc)   XCENC  =       846.10821549
  PAW double counting   =     23974.57089743   -23793.36178560
  entropy T*S    EENTRO =        -0.19778421
  eigenvalues    EBANDS =     -2803.58040522
  atomic energy  EATOM  =     25482.99243790
  Solvation  Ediel_sol  =         0.00000000
  ---------------------------------------------------
  free energy    TOTEN  =      -178.57024085 eV

  energy without entropy =     -178.37245665  energy(sigma->0) =     -178.47134875


--------------------------------------------------------------------------------------------------------




--------------------------------------- Iteration      1(  20)  ---------------------------------------


    POTLOK:  cpu time      0.0097: real time      0.0101
    SETDIJ:  cpu time      2.1242: real time      2.1296
     EDDAV:  cpu time      0.4528: real time      0.4541
       DOS:  cpu time      0.0004: real time      0.0004
    --------------------------------------------
      LOOP:  cpu time      2.5871: real time      2.5941

 eigenvalue-minimisations  :  1088
 total energy-change (2. order) :-0.9002580E-05  (-0.9945366E-05)
 number of electron     422.0000350 magnetization       1.2240032
 augmentation part      -77.7311895 magnetization      -0.0345766

 Free energy of the ion-electron system (eV)
  ---------------------------------------------------
  alpha Z        PSCENC =      1390.48224925
  Ewald energy   TEWEN  =    -21532.55444335
  -Hartree energ DENC   =     -3743.02217828
  -exchange      EXHF   =         0.00000000
  -V(xc)+E(xc)   XCENC  =       846.10774664
  PAW double counting   =     23973.80878790   -23792.59901152
  entropy T*S    EENTRO =        -0.19789155
  eigenvalues    EBANDS =     -2803.58794685
  atomic energy  EATOM  =     25482.99243790
  Solvation  Ediel_sol  =         0.00000000
  ---------------------------------------------------
  free energy    TOTEN  =      -178.57024986 eV

  energy without entropy =     -178.37235831  energy(sigma->0) =     -178.47130408


--------------------------------------------------------------------------------------------------------




 average (electrostatic) potential at core
  the test charge radii are     1.1312  0.9406
  (the norm of the test charge is              1.0000)
       1 -49.0279       2 -49.0681       3 -49.0158       4 -49.1871       5 -49.1345
       6 -49.0239       7 -49.1898       8 -49.2288       9 -48.9516      10 -49.1109
      11 -49.1357      12 -49.1249      13 -49.1443      14 -49.1365      15 -49.0666
      16 -49.1491      17 -49.1210      18 -48.7700      19 -49.1200      20 -49.1302
      21 -49.1122      22 -49.1625      23 -49.1486      24 -49.0773      25 -49.1430
      26 -49.1926      27 -93.2267      28 -93.2219      29 -93.2169      30 -93.2335
      31 -93.1989      32 -93.2298      33 -93.2308      34 -93.2381      35 -93.2248
      36 -93.2218      37 -93.1909      38 -93.2131      39 -93.1876      40 -93.2235
      41 -93.1870      42 -93.2129      43 -93.1899      44 -93.2215      45 -93.1931
      46 -93.2296      47 -93.1978      48 -93.2443      49 -93.2027      50 -93.2502
      51 -93.2113      52 -93.2486      53 -93.2088
 
 
 
 E-fermi :  -0.2589     XC(G=0):  -8.3497     alpha+bet : -8.6728

 val. band max:       -0.2914278667   @ k =   0.0000   0.0000   0.0000
 cond. band min:       4.9791831557   @ k =   0.0000   0.0000   0.0000
 fundamental gap:      5.2706110223
 Fermi energy:        -0.2588944068

 spin component 1

 k-point     1 :       0.0000    0.0000    0.0000
  band No.  band energies     occupation 
      1     -19.5927      1.00000
      2     -19.5475      1.00000
      3     -19.5328      1.00000
      4     -19.5172      1.00000
      5     -19.5086      1.00000
      6     -19.4882      1.00000
      7     -19.4849      1.00000
      8     -19.4799      1.00000
      9     -19.4617      1.00000
     10     -19.4546      1.00000
     11     -19.4526      1.00000
     12     -19.4494      1.00000
     13     -19.4309      1.00000
     14     -19.4295      1.00000
     15     -19.4177      1.00000
     16     -19.4126      1.00000
     17     -19.4030      1.00000
     18     -19.3972      1.00000
     19     -19.3832      1.00000
     20     -19.3801      1.00000
     21     -19.3658      1.00000
     22     -19.3532      1.00000
     23     -19.3285      1.00000
     24     -19.3014      1.00000
     25     -19.2600      1.00000
     26     -19.0991      1.00000
     27     -12.6563      1.00000
     28     -12.6447      1.00000
     29     -12.6338      1.00000
     30     -12.6309      1.00000
     31     -12.6240      1.00000
     32     -12.6179      1.00000
     33     -12.5937      1.00000
     34     -12.5904      1.00000
     35     -12.5834      1.00000
     36     -12.5749      1.00000
     37     -12.5631      1.00000
     38     -12.5597      1.00000
     39     -12.5561      1.00000
[...]
     0.000000000  0.000000000 12.226345917     0.000000000  0.000000000  0.081790586

  length of vectors
    12.226345917 12.226345917 12.226345917     0.081790586  0.081790586  0.081790586


 FORCES acting on ions
    electron-ion (+dipol)            ewald-force                    non-local-force                 convergence-correction
 -----------------------------------------------------------------------------------------------
   0.397E+00 0.467E+00 0.425E+02   -.400E+00 -.465E+00 -.428E+02   0.239E-02 0.898E-03 0.392E+00   0.805E-03 0.176E-02 -.897E-02
   0.371E+00 0.235E+00 -.424E+02   -.371E+00 -.234E+00 0.428E+02   -.248E-02 -.226E-02 -.378E+00   0.185E-02 -.225E-02 0.731E-02
   0.226E+00 0.418E+02 0.539E+00   -.226E+00 -.422E+02 -.535E+00   0.395E-02 0.389E+00 -.860E-02   -.559E-03 -.751E-02 0.288E-02
   -.322E+00 0.161E+02 0.162E+02   0.316E+00 -.162E+02 -.163E+02   0.135E-01 0.471E-01 0.488E-01   -.578E-02 -.207E-02 -.252E-02
   0.144E+00 0.165E+02 -.167E+02   -.146E+00 -.165E+02 0.168E+02   0.474E-02 0.336E-01 -.401E-01   -.305E-02 0.154E-02 -.814E-03
   0.141E+01 -.420E+02 -.452E+00   -.143E+01 0.424E+02 0.445E+00   -.489E-03 -.389E+00 0.109E-01   0.882E-02 0.668E-02 -.356E-02
   0.282E+00 -.165E+02 0.170E+02   -.281E+00 0.166E+02 -.170E+02   -.176E-03 -.362E-01 0.352E-01   -.149E-02 -.512E-03 0.227E-02
   -.132E+00 -.163E+02 -.166E+02   0.125E+00 0.163E+02 0.166E+02   0.622E-02 -.532E-01 -.402E-01   -.349E-02 0.216E-02 0.128E-02
   0.431E+02 0.231E+00 -.151E+00   -.435E+02 -.229E+00 0.154E+00   0.355E+00 -.127E-02 0.206E-02   -.439E-02 0.239E-03 -.257E-02
   0.155E+02 0.160E+00 0.159E+02   -.156E+02 -.157E+00 -.160E+02   0.569E-01 -.338E-02 0.433E-01   -.273E-02 0.398E-03 -.938E-03
   0.156E+02 0.398E+00 -.159E+02   -.156E+02 -.394E+00 0.159E+02   0.514E-01 -.621E-02 -.404E-01   -.357E-02 0.350E-03 0.365E-02
   0.156E+02 0.157E+02 0.926E-01   -.156E+02 -.158E+02 -.918E-01   0.553E-01 0.460E-01 -.281E-02   -.528E-03 -.199E-02 -.408E-04
   0.751E+01 0.777E+01 0.753E+01   -.760E+01 -.786E+01 -.764E+01   0.900E-01 0.884E-01 0.987E-01   0.235E-02 -.120E-02 -.253E-02
   0.751E+01 0.766E+01 -.758E+01   -.761E+01 -.775E+01 0.768E+01   0.925E-01 0.940E-01 -.104E+00   0.206E-02 -.121E-02 0.260E-02
   0.153E+02 -.159E+02 0.379E-02   -.154E+02 0.159E+02 -.397E-02   0.751E-01 -.472E-01 0.364E-02   -.439E-02 0.162E-02 -.140E-02
   0.747E+01 -.774E+01 0.770E+01   -.756E+01 0.784E+01 -.781E+01   0.895E-01 -.954E-01 0.992E-01   0.107E-02 0.604E-03 -.904E-03
   0.755E+01 -.785E+01 -.790E+01   -.764E+01 0.795E+01 0.800E+01   0.856E-01 -.934E-01 -.872E-01   -.101E-03 0.128E-02 0.202E-02
   -.441E+02 0.288E+00 0.880E-01   0.445E+02 -.293E+00 -.860E-01   -.369E+00 0.203E-03 -.990E-02   -.413E-02 0.501E-02 0.323E-02
   -.159E+02 0.186E+00 0.166E+02   0.159E+02 -.190E+00 -.166E+02   -.441E-01 0.846E-02 0.255E-01   -.458E-03 0.177E-03 0.314E-02
   -.158E+02 0.947E-01 -.163E+02   0.158E+02 -.917E-01 0.164E+02   -.495E-01 -.330E-02 -.420E-01   0.296E-03 -.184E-03 -.359E-02
   -.156E+02 0.161E+02 -.710E-01   0.156E+02 -.162E+02 0.676E-01   -.577E-01 0.344E-01 0.552E-02   0.995E-04 0.238E-02 -.555E-04
   -.700E+01 0.781E+01 0.792E+01   0.710E+01 -.792E+01 -.804E+01   -.104E+00 0.102E+00 0.107E+00   0.313E-02 0.208E-02 0.402E-03
   -.743E+01 0.805E+01 -.804E+01   0.752E+01 -.815E+01 0.815E+01   -.966E-01 0.888E-01 -.100E+00   0.827E-03 0.273E-02 -.381E-03
   -.171E+02 -.159E+02 -.419E+00   0.171E+02 0.160E+02 0.422E+00   -.242E-01 -.489E-01 0.167E-02   -.827E-02 -.510E-02 -.185E-02
   -.726E+01 -.823E+01 0.858E+01   0.736E+01 0.833E+01 -.869E+01   -.107E+00 -.851E-01 0.904E-01   0.108E-02 -.310E-02 0.399E-02
   -.691E+01 -.781E+01 -.810E+01   0.702E+01 0.792E+01 0.821E+01   -.116E+00 -.101E+00 -.100E+00   0.381E-02 -.172E-02 -.146E-02
   0.377E+02 0.375E+02 0.372E+02   -.379E+02 -.376E+02 -.374E+02   0.130E+00 0.144E+00 0.152E+00   -.206E-02 -.980E-02 -.128E-01
   0.165E+02 0.162E+02 0.123E+00   -.166E+02 -.163E+02 -.122E+00   0.466E-01 0.559E-01 -.448E-02   0.597E-02 -.498E-02 0.793E-03
   0.380E+02 0.373E+02 -.371E+02   -.382E+02 -.374E+02 0.373E+02   0.126E+00 0.146E+00 -.150E+00   0.171E-02 -.119E-01 0.155E-01
   0.167E+02 -.111E+00 0.162E+02   -.167E+02 0.108E+00 -.162E+02   0.430E-01 0.452E-02 0.487E-01   0.844E-02 -.877E-03 -.539E-02
   0.564E+01 -.141E+00 -.279E-01   -.564E+01 0.139E+00 0.253E-01   0.539E-02 0.567E-03 0.365E-02   -.402E-02 0.130E-02 0.488E-03
   0.166E+02 0.581E-01 -.161E+02   -.167E+02 -.630E-01 0.162E+02   0.438E-01 0.269E-02 -.524E-01   0.846E-02 0.215E-02 0.533E-02
   0.382E+02 -.375E+02 0.372E+02   -.383E+02 0.377E+02 -.373E+02   0.134E+00 -.149E+00 0.156E+00   -.858E-03 0.119E-01 -.176E-01
   0.166E+02 -.163E+02 -.329E+00   -.167E+02 0.164E+02 0.328E+00   0.445E-01 -.525E-01 0.488E-02   0.646E-02 0.367E-02 0.483E-03
   0.379E+02 -.373E+02 -.372E+02   -.380E+02 0.375E+02 0.374E+02   0.136E+00 -.148E+00 -.151E+00   -.520E-03 0.983E-02 0.131E-01
   -.735E+00 0.158E+02 0.157E+02   0.739E+00 -.159E+02 -.158E+02   0.739E-02 0.391E-01 0.428E-01   -.550E-02 0.486E-02 -.142E-02
   -.163E+00 0.608E+01 -.859E-01   0.158E+00 -.608E+01 0.875E-01   0.493E-02 0.130E-01 0.170E-02   0.140E-02 -.446E-02 -.153E-02
   -.589E+00 0.157E+02 -.155E+02   0.593E+00 -.157E+02 0.156E+02   0.239E-02 0.403E-01 -.457E-01   -.480E-02 0.291E-02 0.182E-02
   -.600E+00 -.159E+00 0.594E+01   0.596E+00 0.160E+00 -.593E+01   0.105E-01 0.542E-02 0.924E-02   -.537E-03 -.377E-02 -.824E-02
   0.265E+00 -.145E+00 -.627E-02   -.275E+00 0.145E+00 0.611E-02   0.285E-03 0.522E-03 0.141E-02   0.635E-02 -.638E-03 -.400E-03
   -.424E+00 -.192E+00 -.589E+01   0.418E+00 0.191E+00 0.589E+01   0.963E-02 0.944E-02 -.112E-01   0.117E-02 -.330E-02 0.883E-02
   -.545E+00 -.155E+02 0.154E+02   0.547E+00 0.155E+02 -.155E+02   0.298E-03 -.483E-01 0.430E-01   -.181E-02 0.952E-03 -.127E-02
   -.300E+00 -.591E+01 0.595E-01   0.296E+00 0.591E+01 -.590E-01   0.671E-02 -.157E-01 -.196E-02   0.316E-03 0.709E-02 0.607E-03
   -.190E+00 -.155E+02 -.154E+02   0.196E+00 0.155E+02 0.155E+02   -.185E-02 -.509E-01 -.429E-01   -.493E-02 0.256E-03 -.170E-03
   -.366E+02 0.380E+02 0.377E+02   0.367E+02 -.381E+02 -.378E+02   -.146E+00 0.123E+00 0.129E+00   0.145E-01 0.334E-02 -.207E-02
   -.168E+02 0.163E+02 -.380E+00   0.169E+02 -.164E+02 0.383E+00   -.411E-01 0.605E-01 0.629E-02   -.749E-02 -.192E-03 -.419E-02
   -.371E+02 0.375E+02 -.372E+02   0.372E+02 -.377E+02 0.373E+02   -.132E+00 0.124E+00 -.136E+00   0.780E-02 0.237E-02 0.542E-02
   -.169E+02 -.145E+01 0.170E+02   0.169E+02 0.146E+01 -.170E+02   -.325E-01 0.235E-01 0.486E-01   -.110E-01 -.163E-01 0.528E-02
   -.598E+01 0.983E-01 -.695E-01   0.598E+01 -.100E+00 0.689E-01   -.648E-02 -.576E-02 0.220E-02   -.128E-02 0.254E-02 -.165E-03
   -.171E+02 -.272E+00 -.169E+02   0.172E+02 0.274E+00 0.169E+02   -.308E-01 0.181E-02 -.500E-01   -.126E-01 -.224E-02 -.508E-02
   -.372E+02 -.371E+02 0.378E+02   0.373E+02 0.373E+02 -.379E+02   -.133E+00 -.129E+00 0.131E+00   0.807E-02 0.366E-02 0.493E-03
   -.169E+02 -.166E+02 0.353E+00   0.170E+02 0.166E+02 -.357E+00   -.410E-01 -.543E-01 -.509E-02   -.819E-02 -.163E-02 0.586E-02
   -.367E+02 -.378E+02 -.383E+02   0.368E+02 0.379E+02 0.384E+02   -.153E+00 -.119E+00 -.127E+00   0.196E-01 -.322E-02 -.659E-02
 -----------------------------------------------------------------------------------------------
   -.307E-01 0.323E-01 0.252E-02   -.128E-12 -.135E-12 -.284E-13   0.429E-01 -.124E-01 0.119E-01   0.790E-02 -.424E-02 -.174E-02
 
 
 POSITION                                       TOTAL-FORCE (eV/Angst)
 -----------------------------------------------------------------------------------
     12.22478     12.22129      3.86915         0.000404      0.003686      0.011522
      0.00026      0.00073      8.36292        -0.000811     -0.003557      0.005296
     12.22338      3.86154      0.00195         0.003050     -0.006980     -0.002601
     12.22447      4.07555      4.08469         0.000663     -0.002846     -0.010661
     12.22462      4.08315      8.14277        -0.000804     -0.012397      0.012837
     12.22559      8.34387     12.22619        -0.006445     -0.002242      0.000122
     12.22528      8.14028      4.08156        -0.001398      0.008954     -0.010258
      0.00217      8.14324      8.14185        -0.004479      0.007498      0.011401
      3.90549     12.22545     12.22517        -0.012989      0.000345      0.003048
      4.07154     12.22515      4.08189         0.010091      0.000144     -0.005573
      4.07395     12.22592      8.14533         0.008017     -0.002189      0.003464
      4.07340      4.08074      0.00246         0.006138     -0.004209     -0.002231
      4.07964      4.08402      4.08794         0.001962     -0.005336     -0.007841
      4.08004      4.08435      8.14152         0.002396     -0.005704      0.005249
      4.06981      8.14352     12.22466         0.010962      0.003535      0.001818
      4.08208      8.14172      4.08343        -0.000746      0.002320     -0.003795
      4.08344      8.14010      8.13835        -0.001641      0.004768      0.008369
      8.34904     12.22446      0.00379         0.008712      0.000221     -0.004908
      8.14506     12.22070      4.08653        -0.001893      0.003842     -0.012014
      8.14967     12.22553      8.14891        -0.007803     -0.000720      0.000945
      8.14492      4.08102     12.22590        -0.005527     -0.006936      0.001871
      8.13872      4.08040      4.09043        -0.001186     -0.003299     -0.013899
      8.13801      4.08700      8.13450         0.000409     -0.009953      0.014755
      8.13197      8.14287     12.22625         0.021092      0.003507      0.002797
      8.14056      8.13199      4.09262        -0.003920      0.011637     -0.014592
      8.14168      8.13957      8.13996        -0.003869      0.004219      0.007641
      2.11618      2.10665      2.10932        -0.004669      0.004920      0.008768
      2.03051      2.03047      6.11804        -0.005368      0.001766     -0.003329
      2.11881      2.10825     10.12037        -0.007542      0.006550     -0.009799
      2.02995      6.10913      2.03690        -0.008491      0.000796     -0.001710
      2.03497      6.11107      6.11157         0.004951     -0.000800      0.001297
      2.02980      6.11058     10.19134        -0.008070     -0.000358     -0.000694
      2.11459     10.11448      2.10253        -0.002732     -0.006157      0.013279
      2.03222     10.18872      6.10775        -0.007656     -0.000129      0.003169
      2.11712     10.11410     10.11757        -0.003909     -0.006217     -0.008981
      6.11063      2.03665      2.03985         0.004899     -0.006939     -0.003327
      6.10648      2.03269      6.11435         0.001213      0.006999      0.001534
      6.11332      2.03698     10.19088         0.001862     -0.005399      0.001972
      6.10188      6.11036      2.03865         0.006160      0.002458      0.006705
      6.10953      6.11147      6.11319        -0.003105     -0.000488      0.000618
      6.10207      6.10927     10.18911         0.004530      0.005058     -0.008215
      6.11308     10.18986      2.03794        -0.000702      0.000007     -0.002247
      6.10611     10.19003      6.11559         0.002591     -0.010391     -0.001058
      6.11796     10.19193     10.19104        -0.001491     -0.001129      0.002465
     10.11565      2.11188      2.11848        -0.013220     -0.005859     -0.005237
     10.18481      2.02848      6.11192         0.008407      0.002692      0.004976
     10.11029      2.11665     10.11262        -0.001885     -0.005736     -0.002898
     10.17719      6.09438      2.04010         0.013332      0.018372     -0.005631
     10.18956      6.11300      6.11254        -0.005484     -0.005211      0.001180
     10.17568      6.10973     10.18734         0.015414      0.001234      0.004416
     10.10899     10.10059      2.11726        -0.001023      0.004109     -0.004143
     10.18382     10.18734      6.11836         0.008571      0.000187     -0.003920
     10.12135     10.10130     10.11126        -0.016971      0.011356      0.008052
 -----------------------------------------------------------------------------------
    total drift:                                0.020105      0.015642      0.012655


--------------------------------------------------------------------------------------------------------



  FREE ENERGIE OF THE ION-ELECTRON SYSTEM (eV)
  ---------------------------------------------------
  free  energy   TOTEN  =      -178.99057079 eV

  energy  without entropy=     -178.79930945  energy(sigma->0) =     -178.89494012
 d Force = 0.3875799E-02[ 0.267E-02, 0.508E-02]  d Energy = 0.3883686E-02-0.789E-05
 d Force = 0.1210766E+01[ 0.113E+01, 0.129E+01]  d Ewald  = 0.1210764E+01 0.267E-05
 


--------------------------------------------------------------------------------------------------------


    POTLOK:  cpu time      2.0161: real time      2.0206


--------------------------------------------------------------------------------------------------------


 Conjugate gradient step on ions:
 trial-energy change:   -0.003884  1 .order   -0.003876   -0.005081   -0.002670
  (g-gl).g = 0.116E-02      g.g   = 0.113E-02  gl.gl    = 0.985E-02
 g(Force)  = 0.113E-02   g(Stress)= 0.000E+00 ortho     =-0.102E-03
 gamma     =   0.11758
 trial     =   4.53822
 opt step  =   9.56472  (harmonic =   9.56472) maximal distance =0.01945133
 next E    =  -178.992042   (d E  =  -0.00535)


--------------------------------------------------------------------------------------------------------


  
 reached required accuracy - stopping structural energy minimisation
     LOOP+:  cpu time     20.0441: real time     20.0931
    4ORBIT:  cpu time      0.0000: real time      0.0000



 total charge

# of ion       s       p       d       tot
------------------------------------------
    1        1.978   4.702   0.031   6.710
    2        1.971   4.702   0.031   6.703
    3        1.970   4.702   0.031   6.702
    4        1.967   4.700   0.035   6.701
    5        1.967   4.700   0.035   6.701
    6        1.977   4.702   0.031   6.710
    7        1.967   4.700   0.035   6.701
    8        1.967   4.700   0.035   6.701
    9        1.970   4.701   0.031   6.702
   10        1.967   4.700   0.035   6.701
   11        1.967   4.700   0.035   6.701
   12        1.967   4.700   0.035   6.701
   13        1.967   4.700   0.036   6.702
   14        1.967   4.700   0.036   6.702
   15        1.967   4.700   0.035   6.701
   16        1.967   4.700   0.036   6.702
   17        1.967   4.700   0.035   6.703
   18        1.977   4.702   0.030   6.710
   19        1.967   4.700   0.035   6.701
   20        1.966   4.700   0.035   6.701
   21        1.967   4.700   0.035   6.701
   22        1.968   4.700   0.036   6.703
   23        1.968   4.700   0.036   6.703
   24        1.967   4.700   0.035   6.701
   25        1.968   4.700   0.036   6.703
   26        1.967   4.700   0.036   6.703
   27        1.584   3.537   0.000   5.121
   28        1.583   3.533   0.000   5.116
   29        1.584   3.537   0.000   5.121
   30        1.583   3.533   0.000   5.116
   31        1.583   3.542   0.000   5.125
   32        1.583   3.533   0.000   5.116
   33        1.584   3.537   0.000   5.121
   34        1.583   3.533   0.000   5.116
   35        1.584   3.537   0.000   5.121
   36        1.584   3.532   0.000   5.116
   37        1.583   3.541   0.000   5.124
   38        1.584   3.532   0.000   5.116
   39        1.583   3.541   0.000   5.124
   40        1.583   3.544   0.000   5.127
   41        1.583   3.541   0.000   5.124
   42        1.583   3.532   0.000   5.116
   43        1.583   3.541   0.000   5.124
   44        1.583   3.533   0.000   5.116
   45        1.584   3.537   0.000   5.121
   46        1.583   3.532   0.000   5.116
   47        1.584   3.538   0.000   5.122
   48        1.584   3.532   0.000   5.116
   49        1.583   3.542   0.000   5.125
   50        1.584   3.532   0.000   5.116
   51        1.584   3.537   0.000   5.121
   52        1.583   3.532   0.000   5.116
   53        1.584   3.537   0.000   5.121
--------------------------------------------------
tot         93.936 217.683   0.884 312.502



 magnetization (x)

# of ion       s       p       d       tot
------------------------------------------
    1       -0.000  -0.000  -0.000  -0.000
    2       -0.000  -0.000   0.000  -0.000
    3        0.000   0.000  -0.000   0.000
    4        0.000   0.000  -0.000   0.000
    5        0.000   0.000   0.000   0.000
    6        0.000   0.000  -0.000   0.000
    7       -0.000   0.000   0.000  -0.000
    8       -0.000   0.000   0.000  -0.000
    9        0.000   0.000  -0.000   0.000
   10       -0.000  -0.000   0.000  -0.000
   11        0.000   0.000   0.000   0.000
   12        0.000   0.000  -0.000   0.000
   13       -0.000   0.000   0.000  -0.000
   14        0.000   0.000   0.000   0.000
   15       -0.000  -0.000  -0.000  -0.000
   16       -0.000  -0.000   0.000  -0.000
   17       -0.000  -0.000   0.000  -0.000
   18        0.000  -0.000   0.000   0.000
   19        0.000   0.000  -0.000   0.000
   20        0.000   0.000   0.000   0.000
   21        0.000   0.000  -0.000   0.000
   22       -0.000  -0.000   0.000  -0.000
   23       -0.000  -0.000  -0.000  -0.000
   24       -0.000  -0.000   0.000  -0.000
   25       -0.000  -0.000  -0.000  -0.000
   26       -0.000  -0.000  -0.000  -0.000
   27       -0.000   0.000   0.000   0.000
   28        0.000  -0.000   0.000   0.000
   29       -0.000   0.000   0.000   0.000
   30       -0.000   0.000   0.000   0.000
   31        0.000   0.000   0.000   0.000
   32       -0.000   0.000   0.000   0.000
   33       -0.000   0.000   0.000   0.000
   34        0.000   0.000   0.000   0.000
   35        0.000   0.000   0.000   0.000
   36        0.000   0.000   0.000   0.000
   37       -0.000   0.000   0.000  -0.000
   38       -0.000   0.000   0.000   0.000
   39       -0.000   0.000   0.000   0.000
   40        0.000   0.000   0.000   0.000
   41        0.000   0.000   0.000   0.000
   42        0.000   0.000   0.000   0.000
   43       -0.000   0.000   0.000   0.000
   44       -0.000   0.000   0.000   0.000
   45       -0.000   0.000   0.000   0.000
   46        0.000   0.000   0.000   0.000
   47        0.000   0.000   0.000   0.000
   48       -0.000   0.000   0.000   0.000
   49        0.000   0.000   0.000   0.000
   50       -0.000   0.000   0.000   0.000
   51       -0.000  -0.000   0.000  -0.000
   52        0.000   0.000   0.000   0.000
   53        0.000   0.000   0.000   0.000
--------------------------------------------------
tot         -0.000   0.000  -0.000   0.000
 

 total amount of memory used by VASP MPI-rank0   178875. kBytes
=======================================================================

   base                                    :      30000. kBytes
   nonlr-proj                              :       6377. kBytes
   fftplans                                :      15598. kBytes
   grid                                    :      44900. kBytes
   one-center                              :        859. kBytes
   wavefun                                 :      81141. kBytes
 
  
  
 General timing and accounting informations for this job:
 ========================================================
  
                  Total CPU time used (sec):      260.876
                            User time (sec):      258.786
                          System time (sec):        2.090
                         Elapsed time (sec):      262.498
  
                   Maximum memory used (kb):     1936600.
                   Average memory used (kb):          N/A
  
                          Minor page faults:       246519
                          Major page faults:          157
                 Voluntary context switches:        23292
