<?xml version="1.0" encoding="ISO-8859-1"?>
<modeling>
 <generator>
  <i name="program" type="string">vasp </i>
  <i name="version" type="string">6.5.1  </i>
  <i name="subversion" type="string">10Mar25 (build May 13 2025 11:33:44) complex                          parallel </i>
  <i name="platform" type="string">LinuxNV </i>
  <i name="date" type="string">2026 05 13 </i>
  <i name="time" type="string">15:25:28 </i>
 </generator>
 <incar>
  <i type="string" name="PREC">Normal</i>
  <i type="string" name="ALGO">Normal</i>
  <i type="int" name="ISPIN">     2</i>
  <i type="int" name="NELM">   100</i>
  <i type="int" name="IBRION">     2</i>
  <i name="EDIFF">      0.00001000</i>
  <i name="EDIFFG">     -0.03000000</i>
  <i type="int" name="NSW">   300</i>
  <i type="int" name="ISIF">     2</i>
  <i name="ENCUT">    262.47200000</i>
  <i name="NELECT">    422.00000000</i>
  <i type="string" name="LREAL">Auto</i>
  <i type="int" name="ISMEAR">     0</i>
  <i name="SIGMA">      0.10000000</i>
  <i type="logical" name="LWAVE"> F  </i>
  <i type="logical" name="LCHARG"> F  </i>
  <i type="int" name="LORBIT">    10</i>
  <i type="logical" name="LASPH"> T  </i>
  <i type="string" name="GGA">Ps</i>
 </incar>
 <primitive_cell>
  <structure name="primitive_cell" >
   <crystal>
    <varray name="basis" >
     <v>      12.22634592       0.00000000       0.00000000 </v>
     <v>       0.00000000      12.22634592       0.00000000 </v>
     <v>       0.00000000       0.00000000      12.22634592 </v>
    </varray>
    <i name="volume">   1827.63740156 </i>
    <varray name="rec_basis" >
     <v>       0.08179059       0.00000000       0.00000000 </v>
     <v>       0.00000000       0.08179059       0.00000000 </v>
     <v>       0.00000000       0.00000000       0.08179059 </v>
    </varray>
   </crystal>
   <varray name="positions" >
    <v>       0.99546965       0.99671109       0.33583178 </v>
    <v>       0.99874813       0.99910992       0.66531317 </v>
    <v>       0.99815692       0.33796259       0.00067203 </v>
    <v>       0.00000000       0.33333333       0.33333333 </v>
    <v>       0.00000000       0.33333333       0.66666667 </v>
    <v>       0.99067472       0.65588139       0.99921596 </v>
    <v>       0.00000000       0.66666667       0.33333333 </v>
    <v>       0.00000000       0.66666667       0.66666667 </v>
    <v>       0.34378612       0.00109218       0.00143563 </v>
    <v>       0.33333333       0.00000000       0.33333333 </v>
    <v>       0.33333333       0.00000000       0.66666667 </v>
    <v>       0.33333333       0.33333333       0.00000000 </v>
    <v>       0.33333333       0.33333333       0.33333333 </v>
    <v>       0.33333333       0.33333333       0.66666667 </v>
    <v>       0.33333333       0.66666667       0.00000000 </v>
    <v>       0.33333333       0.66666667       0.33333333 </v>
    <v>       0.33333333       0.66666667       0.66666667 </v>
    <v>       0.67830882       0.99966398       0.99803272 </v>
    <v>       0.66666667       0.00000000       0.33333333 </v>
    <v>       0.66666667       0.00000000       0.66666667 </v>
    <v>       0.66666667       0.33333333       0.00000000 </v>
    <v>       0.66666667       0.33333333       0.33333333 </v>
    <v>       0.66666667       0.33333333       0.66666667 </v>
    <v>       0.66666667       0.66666667       0.00000000 </v>
    <v>       0.66666667       0.66666667       0.33333333 </v>
    <v>       0.66666667       0.66666667       0.66666667 </v>
    <v>       0.16667459       0.16610873       0.16931116 </v>
    <v>       0.16666667       0.16666667       0.50000000 </v>
    <v>       0.16490133       0.17191576       0.83355027 </v>
    <v>       0.16666667       0.50000000       0.16666667 </v>
    <v>       0.16666667       0.50000000       0.50000000 </v>
    <v>       0.16666667       0.50000000       0.83333333 </v>
    <v>       0.17027481       0.83391222       0.16379639 </v>
    <v>       0.16666667       0.83333333       0.50000000 </v>
    <v>       0.17146645       0.83009584       0.83151707 </v>
    <v>       0.50000000       0.16666667       0.16666667 </v>
    <v>       0.50000000       0.16666667       0.50000000 </v>
    <v>       0.50000000       0.16666667       0.83333333 </v>
    <v>       0.50000000       0.50000000       0.16666667 </v>
    <v>       0.50000000       0.50000000       0.50000000 </v>
    <v>       0.50000000       0.50000000       0.83333333 </v>
    <v>       0.50000000       0.83333333       0.16666667 </v>
    <v>       0.50000000       0.83333333       0.50000000 </v>
    <v>       0.50000000       0.83333333       0.83333333 </v>
    <v>       0.82542005       0.15925158       0.16270216 </v>
    <v>       0.83333333       0.16666667       0.50000000 </v>
    <v>       0.83075384       0.16619309       0.83451521 </v>
    <v>       0.83333333       0.50000000       0.16666667 </v>
    <v>       0.83333333       0.50000000       0.50000000 </v>
    <v>       0.83333333       0.50000000       0.83333333 </v>
    <v>       0.82927230       0.82841797       0.16215346 </v>
    <v>       0.83333333       0.83333333       0.50000000 </v>
    <v>       0.82555942       0.84084246       0.84539751 </v>
   </varray>
  </structure>
  <varray name="primitive_index" >
   <v type="int" >        1 </v>
   <v type="int" >        2 </v>
   <v type="int" >        3 </v>
   <v type="int" >        4 </v>
   <v type="int" >        5 </v>
   <v type="int" >        6 </v>
   <v type="int" >        7 </v>
   <v type="int" >        8 </v>
   <v type="int" >        9 </v>
   <v type="int" >       10 </v>
   <v type="int" >       11 </v>
   <v type="int" >       12 </v>
   <v type="int" >       13 </v>
   <v type="int" >       14 </v>
   <v type="int" >       15 </v>
   <v type="int" >       16 </v>
   <v type="int" >       17 </v>
   <v type="int" >       18 </v>
   <v type="int" >       19 </v>
   <v type="int" >       20 </v>
   <v type="int" >       21 </v>
   <v type="int" >       22 </v>
   <v type="int" >       23 </v>
   <v type="int" >       24 </v>
   <v type="int" >       25 </v>
   <v type="int" >       26 </v>
   <v type="int" >       27 </v>
   <v type="int" >       28 </v>
   <v type="int" >       29 </v>
   <v type="int" >       30 </v>
   <v type="int" >       31 </v>
   <v type="int" >       32 </v>
   <v type="int" >       33 </v>
   <v type="int" >       34 </v>
   <v type="int" >       35 </v>
   <v type="int" >       36 </v>
   <v type="int" >       37 </v>
   <v type="int" >       38 </v>
   <v type="int" >       39 </v>
   <v type="int" >       40 </v>
   <v type="int" >       41 </v>
   <v type="int" >       42 </v>
   <v type="int" >       43 </v>
   <v type="int" >       44 </v>
   <v type="int" >       45 </v>
   <v type="int" >       46 </v>
   <v type="int" >       47 </v>
   <v type="int" >       48 </v>
   <v type="int" >       49 </v>
   <v type="int" >       50 </v>
   <v type="int" >       51 </v>
   <v type="int" >       52 </v>
   <v type="int" >       53 </v>
  </varray>
 </primitive_cell>
 <kpoints>
  <generation param="Gamma">
   <v type="int" name="divisions">       1        1        1 </v>
   <v name="usershift">      0.00000000       0.00000000       0.00000000 </v>
   <v name="genvec1">      1.00000000       0.00000000       0.00000000 </v>
   <v name="genvec2">      0.00000000       1.00000000       0.00000000 </v>
   <v name="genvec3">      0.00000000       0.00000000       1.00000000 </v>
   <v name="shift">      0.00000000       0.00000000       0.00000000 </v>
  </generation>
  <varray name="kpointlist" >
   <v>       0.00000000       0.00000000       0.00000000 </v>
  </varray>
  <varray name="weights" >
   <v>       1.00000000 </v>
  </varray>
 </kpoints>
 <parameters>
  <separator name="general" >
   <i type="string" name="SYSTEM">unknown system</i>
   <i type="logical" name="LCOMPAT"> F  </i>
  </separator>
  <separator name="electronic" >
   <i type="string" name="PREC">normal</i>
   <i name="ENMAX">    262.47200000</i>
   <i name="ENAUG">    407.93300000</i>
   <i name="EDIFF">      0.00001000</i>
   <i type="int" name="IALGO">    38</i>
   <i type="int" name="IWAVPR">    11</i>
   <i type="int" name="NBANDS">   280</i>
   <i type="int" name="NBANDSLOW">    -1</i>
   <i type="int" name="NBANDSHIGH">    -1</i>
   <i name="NELECT">    422.00000000</i>
   <i type="int" name="TURBO">     0</i>
   <i type="int" name="IRESTART">     0</i>
   <i type="int" name="NREBOOT">     0</i>
   <i type="int" name="NMIN">     0</i>
   <i name="EREF">      0.00000000</i>
   <separator name="electronic smearing" >
    <i type="int" name="ISMEAR">     0</i>
    <i name="SIGMA">      0.10000000</i>
    <i name="KSPACING">      0.50000000</i>
    <i type="logical" name="KGAMMA"> T  </i>
    <i type="logical" name="KBLOWUP"> T  </i>
   </separator>
   <separator name="electronic projectors" >
    <i type="logical" name="LREAL"> T  </i>
    <v name="ROPT">     -0.00050000     -0.00050000</v>
    <i type="int" name="LMAXPAW">  -100</i>
    <i type="int" name="LMAXMIX">     2</i>
    <i type="logical" name="NLSPLINE"> F  </i>
   </separator>
   <separator name="electronic startup" >
    <i type="int" name="ISTART">     0</i>
    <i type="int" name="ICHARG">     2</i>
    <i type="int" name="INIWAV">     1</i>
   </separator>
   <separator name="electronic spin" >
    <i type="int" name="ISPIN">     2</i>
    <i type="logical" name="LNONCOLLINEAR"> F  </i>
    <v name="MAGMOM">      1.00000000      1.00000000      1.00000000      1.00000000      1.00000000      1.00000000      1.00000000      1.00000000      1.00000000      1.00000000      1.00000000      1.00000000      1.00000000      1.00000000      1.00000000      1.00000000      1.00000000      1.00000000      1.00000000      1.00000000
      1.00000000      1.00000000      1.00000000      1.00000000      1.00000000      1.00000000      1.00000000      1.00000000      1.00000000      1.00000000      1.00000000      1.00000000      1.00000000      1.00000000      1.00000000      1.00000000      1.00000000      1.00000000      1.00000000      1.00000000
      1.00000000      1.00000000      1.00000000      1.00000000      1.00000000      1.00000000      1.00000000      1.00000000      1.00000000      1.00000000      1.00000000      1.00000000      1.00000000</v>
    <i name="NUPDOWN">     -1.00000000</i>
    <i type="logical" name="LSORBIT"> F  </i>
    <v name="SAXIS">      0.00000000      0.00000000      1.00000000</v>
    <i type="logical" name="LSPIRAL"> F  </i>
    <v name="QSPIRAL">      0.00000000      0.00000000      0.00000000</v>
    <i type="logical" name="LZEROZ"> F  </i>
   </separator>
   <separator name="electronic exchange-correlation" >
    <i type="logical" name="LASPH"> T  </i>
   </separator>
   <separator name="electronic convergence" >
    <i type="int" name="NELM">   100</i>
    <i type="int" name="NELMDL">    -5</i>
    <i type="int" name="NELMIN">     2</i>
    <i name="ENINI">    262.47200000</i>
    <separator name="electronic convergence detail" >
     <i type="logical" name="LDIAG"> T  </i>
     <i type="logical" name="LSUBROT"> F  </i>
     <i type="logical" name="LROBUST"> F  </i>
     <i type="int" name="ISEARCH">     0</i>
     <i name="WEIMIN">      0.00100000</i>
     <i name="EBREAK">      0.00000001</i>
     <i name="DEPER">      0.30000000</i>
     <i type="int" name="NRMM">     4</i>
     <i name="TIME">      0.40000000</i>
    </separator>
   </separator>
   <separator name="electronic mixer" >
    <i name="AMIX">      0.40000000</i>
    <i name="BMIX">      1.00000000</i>
    <i name="AMIN">      0.10000000</i>
    <i name="AMIX_MAG">      1.60000000</i>
    <i name="BMIX_MAG">      1.00000000</i>
    <separator name="electronic mixer details" >
     <i type="int" name="IMIX">     4</i>
     <i type="logical" name="MIXFIRST"> F  </i>
     <i type="int" name="MAXMIX">   -45</i>
     <i name="WC">    100.00000000</i>
     <i type="int" name="INIMIX">     1</i>
     <i type="int" name="MIXPRE">     1</i>
     <i type="int" name="MREMOVE">     5</i>
    </separator>
   </separator>
   <separator name="electronic dipolcorrection" >
    <i type="logical" name="LDIPOL"> F  </i>
    <i type="logical" name="LMONO"> F  </i>
    <i type="int" name="IDIPOL">     0</i>
    <i name="EPSILON">      1.00000000</i>
    <v name="DIPOL">   -100.00000000   -100.00000000   -100.00000000</v>
    <i name="EFIELD">      0.00000000</i>
    <i type="logical" name="LVACPOTAV"> F  </i>
   </separator>
  </separator>
  <separator name="grids" >
   <i type="int" name="NGX">    48</i>
   <i type="int" name="NGY">    48</i>
   <i type="int" name="NGZ">    48</i>
   <i type="int" name="NGXF">    96</i>
   <i type="int" name="NGYF">    96</i>
   <i type="int" name="NGZF">    96</i>
   <i type="logical" name="ADDGRID"> F  </i>
  </separator>
  <separator name="ionic" >
   <i type="int" name="NSW">   300</i>
   <i type="int" name="IBRION">     2</i>
   <i type="int" name="MDALGO">     0</i>
   <i type="int" name="ISIF">     2</i>
   <i name="PSTRESS">      0.00000000</i>
   <i name="EDIFFG">     -0.03000000</i>
   <i type="int" name="NFREE">     1</i>
   <i name="POTIM">      0.50000000</i>
   <i name="SMASS">     -3.00000000</i>
   <i name="SCALEE">      1.00000000</i>
  </separator>
  <separator name="ionic md" >
   <i name="TEBEG">      0.00010000</i>
   <i name="TEEND">      0.00010000</i>
   <i type="int" name="NBLOCK">     1</i>
   <i type="int" name="KBLOCK">   300</i>
   <i type="int" name="NPACO">   256</i>
   <i name="APACO">     10.00000000</i>
  </separator>
  <separator name="symmetry" >
   <i type="int" name="ISYM">     2</i>
   <i name="SYMPREC">      0.00001000</i>
  </separator>
  <separator name="dos" >
   <i type="int" name="LORBIT">    10</i>
   <v name="RWIGS">     -1.00000000     -1.00000000</v>
   <i type="int" name="NEDOS">   301</i>
   <i name="EMIN">     10.00000000</i>
   <i name="EMAX">    -10.00000000</i>
   <i name="EFERMI">      0.00000000</i>
  </separator>
  <separator name="writing" >
   <i type="int" name="NWRITE">     2</i>
   <i type="logical" name="LWAVE"> F  </i>
   <i type="logical" name="LDOWNSAMPLE"> F  </i>
   <i type="logical" name="LCHARG"> F  </i>
   <i type="logical" name="LPARD"> F  </i>
   <i type="logical" name="LVTOT"> F  </i>
   <i type="logical" name="LVHAR"> F  </i>
   <i type="logical" name="LELF"> F  </i>
   <i type="logical" name="LOPTICS"> F  </i>
   <v name="STM">      0.00000000      0.00000000      0.00000000      0.00000000      0.00000000      0.00000000      0.00000000</v>
  </separator>
  <separator name="performance" >
   <i type="int" name="NPAR">     2</i>
   <i type="int" name="NSIM">     4</i>
   <i type="int" name="NBLK">    -1</i>
   <i type="logical" name="LPLANE"> T  </i>
   <i type="logical" name="LSCALAPACK"> T  </i>
   <i type="logical" name="LSCAAWARE"> F  </i>
   <i type="logical" name="LSCALU"> F  </i>
   <i type="logical" name="LASYNC"> F  </i>
   <i type="logical" name="LORBITALREAL"> F  </i>
  </separator>
  <separator name="miscellaneous" >
   <i type="int" name="IDIOT">     3</i>
   <i type="int" name="PHON_NSTRUCT">    -1</i>
   <i type="logical" name="LMUSIC"> F  </i>
   <v name="POMASS">    132.90000000     35.45300000</v>
   <v name="DARWINR">      0.00000000      0.00000000</v>
   <v name="DARWINV">      1.00000000      1.00000000</v>
   <i type="logical" name="LCORR"> T  </i>
  </separator>
  <i type="logical" name="GGA_COMPAT"> T  </i>
  <i type="logical" name="LBERRY"> F  </i>
  <i type="int" name="ICORELEVEL">     0</i>
  <i type="logical" name="LDAU"> F  </i>
  <i type="int" name="I_CONSTRAINED_M">     0</i>
  <separator name="electronic exchange-correlation" >
   <i type="string" name="GGA    ">PS</i>
   <i type="string" name="XC_C">1</i>
   <i type="int" name="VOSKOWN">     0</i>
   <i type="logical" name="LHFCALC"> F  </i>
   <i type="string" name="PRECFOCK"></i>
   <i type="logical" name="LSYMGRAD"> F  </i>
   <i type="logical" name="LHFONE"> F  </i>
   <i type="logical" name="LRHFCALC"> F  </i>
   <i type="logical" name="LTHOMAS"> F  </i>
   <i type="logical" name="LMODELHF"> F  </i>
   <i type="logical" name="LFOCKACE"> F  </i>
   <i name="ENCUT4O">     -1.00000000</i>
   <i type="int" name="EXXOEP">     0</i>
   <i type="int" name="FOURORBIT">     0</i>
   <i name="AEXX">      0.00000000</i>
   <i name="HFALPHA">      0.00000000</i>
   <i name="MCALPHA">      0.00000000</i>
   <i name="ALDAX">      1.00000000</i>
   <i name="AGGAX">      1.00000000</i>
   <i name="AMGGAX">      1.00000000</i>
   <i name="ALDAC">      1.00000000</i>
   <i name="AGGAC">      1.00000000</i>
   <i name="AMGGAC">      1.00000000</i>
   <i type="int" name="NKREDX">     1</i>
   <i type="int" name="NKREDY">     1</i>
   <i type="int" name="NKREDZ">     1</i>
   <i type="logical" name="SHIFTRED"> F  </i>
   <i type="logical" name="ODDONLY"> F  </i>
   <i type="logical" name="EVENONLY"> F  </i>
   <i type="int" name="LMAXFOCK">     0</i>
   <i type="int" name="NMAXFOCKAE">     0</i>
   <i type="logical" name="LFOCKAEDFT"> F  </i>
   <i name="HFSCREEN">      0.00000000</i>
   <i name="HFSCREENC">      0.00000000</i>
   <i type="int" name="NBANDSGWLOW">     0</i>
  </separator>
  <separator name="vdW DFT" >
   <i type="logical" name="LUSE_VDW"> F  </i>
   <i type="int" name="IVDW_NL">    -1</i>
   <i type="logical" name="LSPIN_VDW"> F  </i>
   <i name="ZAB_VDW">     -0.84910000</i>
   <i name="GAMMA_VDW">      1.39626340</i>
   <i name="ALPHA_VDW">      0.00000000</i>
   <i name="PARAM1">      0.12340000</i>
   <i name="PARAM2">      1.00000000</i>
   <i name="BPARAM">      6.30000000</i>
   <i name="CPARAM">      0.00930000</i>
  </separator>
  <separator name="model GW" >
   <i type="int" name="MODEL_GW">     0</i>
   <i name="MODEL_EPS0">     20.69023473</i>
   <i name="MODEL_ALPHA">      1.00000000</i>
  </separator>
  <separator name="linear response parameters" >
   <i type="logical" name="LEPSILON"> F  </i>
   <i type="logical" name="LRPA"> F  </i>
   <i type="logical" name="LNABLA"> F  </i>
   <i type="logical" name="LVEL"> F  </i>
   <i name="CSHIFT">      0.10000000</i>
   <i name="OMEGAMAX">     -1.00000000</i>
   <i name="DEG_THRESHOLD">      0.00200000</i>
   <i name="RTIME">     -0.10000000</i>
   <i name="WPLASMAI">      0.00000000</i>
   <v name="DFIELD">      0.00000000      0.00000000      0.00000000</v>
   <v name="WPLASMA">      0.00000000      0.00000000      0.00000000      0.00000000      0.00000000      0.00000000      0.00000000      0.00000000      0.00000000</v>
  </separator>
  <separator name="orbital magnetization" >
   <i type="logical" name="NUCIND"> F  </i>
   <v name="MAGPOS">      0.00000000      0.00000000      0.00000000</v>
   <i type="logical" name="LNICSALL"> T  </i>
   <i type="logical" name="ORBITALMAG"> F  </i>
   <i type="logical" name="LMAGBLOCH"> F  </i>
   <i type="logical" name="LCHIMAG"> F  </i>
   <i type="logical" name="LGAUGE"> T  </i>
   <i type="int" name="MAGATOM">     0</i>
   <v name="MAGDIPOL">      0.00000000      0.00000000      0.00000000</v>
   <v name="AVECCONST">      0.00000000      0.00000000      0.00000000</v>
  </separator>
  <separator name="response functions" >
   <i type="logical" name="LALL_IN_ONE"> F  </i>
   <i type="int" name="IALL_IN_ONE">    -1</i>
   <i type="int" name="NBANDS_WAVE">    -1</i>
   <i type="logical" name="LFINITE_TEMPERATURE"> F  </i>
   <i type="logical" name="LADDER"> F  </i>
   <i type="logical" name="LRPAFORCE"> F  </i>
   <i type="logical" name="LFXC"> F  </i>
   <i type="logical" name="LHARTREE"> T  </i>
   <i type="int" name="IBSE">     2</i>
   <v type="int" name="KPOINT">    -1     0     0     0</v>
   <i type="logical" name="LTCTC"> F  </i>
   <i type="logical" name="LTCTE"> F  </i>
   <i type="logical" name="LTETE"> F  </i>
   <i type="logical" name="LTRIPLET"> F  </i>
   <i type="logical" name="LFXCEPS"> F  </i>
   <i type="logical" name="LFXHEG"> F  </i>
   <i type="int" name="NATURALO">     2</i>
   <i type="logical" name="LHOLEGF"> F  </i>
   <i type="logical" name="L2ORDER"> F  </i>
   <i type="logical" name="LDMP1"> F  </i>
   <i type="logical" name="LMP2LT"> F  </i>
   <i type="logical" name="LSMP2LT"> F  </i>
   <i type="logical" name="LGWLF"> F  </i>
   <i name="ENCUTGW">     -1.60000002</i>
   <i name="ENCUTGWSOFT">     -1.60000002</i>
   <i name="ENCUTLF">     -1.00000000</i>
   <i type="logical" name="ESF_SPLINES"> F  </i>
   <i name="ESF_CONV">      0.01000000</i>
   <i type="int" name="ESF_NINTER">    15</i>
   <i type="int" name="LMAXMP2">    -1</i>
   <i name="SCISSOR">      0.00000000</i>
   <i type="int" name="NOMEGA">     0</i>
   <i type="int" name="NOMEGAR">     0</i>
   <i type="int" name="NBANDSGW">    -1</i>
   <i type="int" name="NBANDSO">    -1</i>
   <i type="int" name="NBANDSV">    -1</i>
   <i type="int" name="NELMGW">     1</i>
   <i type="int" name="NELMHF">     1</i>
   <i type="int" name="DIM">     3</i>
   <i type="int" name="IESPILON">     4</i>
   <i type="int" name="ANTIRES">     0</i>
   <i name="OMEGAMAX">    -30.00000000</i>
   <i name="OMEGAMIN">    -30.00000000</i>
   <i name="OMEGATL">   -200.00000000</i>
   <i type="int" name="OMEGAGRID">     0</i>
   <i name="CSHIFT">     -0.10000000</i>
   <i type="logical" name="LSELFENERGY"> F  </i>
   <i type="logical" name="LSPECTRAL"> F  </i>
   <i type="logical" name="LSPECTRALGW"> F  </i>
   <i type="logical" name="LSINGLES"> F  </i>
   <i type="logical" name="LFERMIGW"> F  </i>
   <i type="logical" name="ODDONLYGW"> F  </i>
   <i type="logical" name="EVENONLYGW"> F  </i>
   <i type="int" name="NKREDLFX">     1</i>
   <i type="int" name="NKREDLFY">     1</i>
   <i type="int" name="NKREDLFZ">     1</i>
   <i type="int" name="MAXMEM">  2800</i>
   <i type="int" name="TELESCOPE">     0</i>
   <i type="int" name="NTAUPAR">    -1</i>
   <i type="int" name="NOMEGAPAR">    -1</i>
   <i name="DAMP_NEWTON">      0.80000001</i>
   <i name="LAMBDA">      1.00000000</i>
  </separator>
  <separator name="External order field" >
   <i name="OFIELD_KAPPA">      0.00000000</i>
   <v name="OFIELD_K">      0.00000000      0.00000000      0.00000000</v>
   <i name="OFIELD_Q6_NEAR">      0.00000000</i>
   <i name="OFIELD_Q6_FAR">      0.00000000</i>
   <i name="OFIELD_A">      0.00000000</i>
  </separator>
  <separator name="optional k-points parameters" >
   <i type="int" name="KPOINTS_OPT_MODE">     1</i>
   <i type="logical" name="LKPOINTS_OPT"> F  </i>
  </separator>
 </parameters>
 <atominfo>
  <atoms>      53 </atoms>
  <types>       2 </types>
  <array name="atoms" >
   <dimension dim="1">ion</dimension>
   <field type="string">element</field>
   <field type="int">atomtype</field>
   <set>
    <rc><c>Cs</c><c>   1</c></rc>
    <rc><c>Cs</c><c>   1</c></rc>
    <rc><c>Cs</c><c>   1</c></rc>
    <rc><c>Cs</c><c>   1</c></rc>
    <rc><c>Cs</c><c>   1</c></rc>
    <rc><c>Cs</c><c>   1</c></rc>
    <rc><c>Cs</c><c>   1</c></rc>
    <rc><c>Cs</c><c>   1</c></rc>
    <rc><c>Cs</c><c>   1</c></rc>
    <rc><c>Cs</c><c>   1</c></rc>
    <rc><c>Cs</c><c>   1</c></rc>
    <rc><c>Cs</c><c>   1</c></rc>
    <rc><c>Cs</c><c>   1</c></rc>
    <rc><c>Cs</c><c>   1</c></rc>
    <rc><c>Cs</c><c>   1</c></rc>
    <rc><c>Cs</c><c>   1</c></rc>
    <rc><c>Cs</c><c>   1</c></rc>
    <rc><c>Cs</c><c>   1</c></rc>
    <rc><c>Cs</c><c>   1</c></rc>
    <rc><c>Cs</c><c>   1</c></rc>
    <rc><c>Cs</c><c>   1</c></rc>
    <rc><c>Cs</c><c>   1</c></rc>
    <rc><c>Cs</c><c>   1</c></rc>
    <rc><c>Cs</c><c>   1</c></rc>
    <rc><c>Cs</c><c>   1</c></rc>
    <rc><c>Cs</c><c>   1</c></rc>
    <rc><c>Cl</c><c>   2</c></rc>
    <rc><c>Cl</c><c>   2</c></rc>
    <rc><c>Cl</c><c>   2</c></rc>
    <rc><c>Cl</c><c>   2</c></rc>
    <rc><c>Cl</c><c>   2</c></rc>
    <rc><c>Cl</c><c>   2</c></rc>
    <rc><c>Cl</c><c>   2</c></rc>
    <rc><c>Cl</c><c>   2</c></rc>
    <rc><c>Cl</c><c>   2</c></rc>
    <rc><c>Cl</c><c>   2</c></rc>
    <rc><c>Cl</c><c>   2</c></rc>
    <rc><c>Cl</c><c>   2</c></rc>
    <rc><c>Cl</c><c>   2</c></rc>
    <rc><c>Cl</c><c>   2</c></rc>
    <rc><c>Cl</c><c>   2</c></rc>
    <rc><c>Cl</c><c>   2</c></rc>
    <rc><c>Cl</c><c>   2</c></rc>
    <rc><c>Cl</c><c>   2</c></rc>
    <rc><c>Cl</c><c>   2</c></rc>
    <rc><c>Cl</c><c>   2</c></rc>
    <rc><c>Cl</c><c>   2</c></rc>
    <rc><c>Cl</c><c>   2</c></rc>
    <rc><c>Cl</c><c>   2</c></rc>
    <rc><c>Cl</c><c>   2</c></rc>
    <rc><c>Cl</c><c>   2</c></rc>
    <rc><c>Cl</c><c>   2</c></rc>
    <rc><c>Cl</c><c>   2</c></rc>
   </set>
  </array>
  <array name="atomtypes" >
   <dimension dim="1">type</dimension>
   <field type="int">atomspertype</field>
   <field type="string">element</field>
   <field>mass</field>
   <field>valence</field>
   <field type="string">pseudopotential</field>
   <set>
    <rc><c>  26</c><c>Cs</c><c>    132.90000000</c><c>      9.00000000</c><c>  PAW_PBE Cs_sv 08Apr2002               </c></rc>
    <rc><c>  27</c><c>Cl</c><c>     35.45300000</c><c>      7.00000000</c><c>  PAW_PBE Cl 06Sep2000                  </c></rc>
   </set>
  </array>
 </atominfo>
 <structure name="initialpos" >
  <crystal>
   <varray name="basis" >
    <v>      12.22634592       0.00000000       0.00000000 </v>
    <v>       0.00000000      12.22634592       0.00000000 </v>
    <v>       0.00000000       0.00000000      12.22634592 </v>
   </varray>
   <i name="volume">   1827.63740156 </i>
   <varray name="rec_basis" >
    <v>       0.08179059       0.00000000       0.00000000 </v>
    <v>       0.00000000       0.08179059       0.00000000 </v>
    <v>       0.00000000       0.00000000       0.08179059 </v>
   </varray>
  </crystal>
  <varray name="positions" >
   <v>       0.99546965       0.99671109       0.33583178 </v>
   <v>       0.99874813       0.99910992       0.66531317 </v>
   <v>       0.99815692       0.33796259       0.00067203 </v>
   <v>       0.00000000       0.33333333       0.33333333 </v>
   <v>       0.00000000       0.33333333       0.66666667 </v>
   <v>       0.99067472       0.65588139       0.99921596 </v>
   <v>       0.00000000       0.66666667       0.33333333 </v>
   <v>       0.00000000       0.66666667       0.66666667 </v>
   <v>       0.34378612       0.00109218       0.00143563 </v>
   <v>       0.33333333       0.00000000       0.33333333 </v>
   <v>       0.33333333       0.00000000       0.66666667 </v>
   <v>       0.33333333       0.33333333       0.00000000 </v>
   <v>       0.33333333       0.33333333       0.33333333 </v>
   <v>       0.33333333       0.33333333       0.66666667 </v>
   <v>       0.33333333       0.66666667       0.00000000 </v>
   <v>       0.33333333       0.66666667       0.33333333 </v>
   <v>       0.33333333       0.66666667       0.66666667 </v>
   <v>       0.67830882       0.99966398       0.99803272 </v>
   <v>       0.66666667       0.00000000       0.33333333 </v>
   <v>       0.66666667       0.00000000       0.66666667 </v>
   <v>       0.66666667       0.33333333       0.00000000 </v>
   <v>       0.66666667       0.33333333       0.33333333 </v>
   <v>       0.66666667       0.33333333       0.66666667 </v>
   <v>       0.66666667       0.66666667       0.00000000 </v>
   <v>       0.66666667       0.66666667       0.33333333 </v>
   <v>       0.66666667       0.66666667       0.66666667 </v>
   <v>       0.16667459       0.16610873       0.16931116 </v>
   <v>       0.16666667       0.16666667       0.50000000 </v>
   <v>       0.16490133       0.17191576       0.83355027 </v>
   <v>       0.16666667       0.50000000       0.16666667 </v>
   <v>       0.16666667       0.50000000       0.50000000 </v>
   <v>       0.16666667       0.50000000       0.83333333 </v>
   <v>       0.17027481       0.83391222       0.16379639 </v>
   <v>       0.16666667       0.83333333       0.50000000 </v>
   <v>       0.17146645       0.83009584       0.83151707 </v>
   <v>       0.50000000       0.16666667       0.16666667 </v>
   <v>       0.50000000       0.16666667       0.50000000 </v>
   <v>       0.50000000       0.16666667       0.83333333 </v>
   <v>       0.50000000       0.50000000       0.16666667 </v>
   <v>       0.50000000       0.50000000       0.50000000 </v>
   <v>       0.50000000       0.50000000       0.83333333 </v>
   <v>       0.50000000       0.83333333       0.16666667 </v>
   <v>       0.50000000       0.83333333       0.50000000 </v>
   <v>       0.50000000       0.83333333       0.83333333 </v>
   <v>       0.82542005       0.15925158       0.16270216 </v>
   <v>       0.83333333       0.16666667       0.50000000 </v>
   <v>       0.83075384       0.16619309       0.83451521 </v>
   <v>       0.83333333       0.50000000       0.16666667 </v>
   <v>       0.83333333       0.50000000       0.50000000 </v>
   <v>       0.83333333       0.50000000       0.83333333 </v>
   <v>       0.82927230       0.82841797       0.16215346 </v>
   <v>       0.83333333       0.83333333       0.50000000 </v>
   <v>       0.82555942       0.84084246       0.84539751 </v>
  </varray>
 </structure>
 <calculation>
  <scstep>
   <time name="dav">    0.57    0.57</time>
   <time name="total">    3.29    3.33</time>
   <energy>
    <i name="alphaZ">   1390.48224925 </i>
    <i name="ewald"> -21532.55444335 </i>
    <i name="hartreedc">  -3628.34317722 </i>
    <i name="XCdc">    840.77292165 </i>
    <i name="pawpsdc">  19806.45903776 </i>
    <i name="pawaedc"> -19618.38849467 </i>
    <i name="eentropy">     -0.08603630 </i>
    <i name="bandstr">   -416.06705864 </i>
    <i name="atom">  25482.99243790 </i>
    <i name="e_fr_energy">   2325.26743639 </i>
    <i name="e_wo_entrp">   2325.35347269 </i>
    <i name="e_0_energy">   2325.31045454 </i>
   </energy>
  </scstep>
  <scstep>
   <time name="dav">    0.54    0.54</time>
   <time name="total">    0.54    0.54</time>
   <energy>
    <i name="e_fr_energy">     33.74963266 </i>
    <i name="e_wo_entrp">     33.80239484 </i>
    <i name="e_0_energy">     33.77601375 </i>
   </energy>
  </scstep>
  <scstep>
   <time name="dav">    0.53    0.53</time>
   <time name="total">    0.53    0.53</time>
   <energy>
    <i name="e_fr_energy">   -173.73528654 </i>
    <i name="e_wo_entrp">   -173.57712329 </i>
    <i name="e_0_energy">   -173.65620491 </i>
   </energy>
  </scstep>
  <scstep>
   <time name="dav">    0.52    0.52</time>
   <time name="total">    0.52    0.52</time>
   <energy>
    <i name="e_fr_energy">   -177.19241552 </i>
    <i name="e_wo_entrp">   -177.03397370 </i>
    <i name="e_0_energy">   -177.11319461 </i>
   </energy>
  </scstep>
  <scstep>
   <time name="dav">    0.52    0.52</time>
   <time name="total">    0.58    0.58</time>
   <energy>
    <i name="e_fr_energy">   -177.27130218 </i>
    <i name="e_wo_entrp">   -177.11283275 </i>
    <i name="e_0_energy">   -177.19206746 </i>
   </energy>
  </scstep>
  <scstep>
   <time name="dav">    0.50    0.50</time>
   <time name="total">    2.80    2.80</time>
   <energy>
    <i name="e_fr_energy">   -172.12734260 </i>
    <i name="e_wo_entrp">   -171.98385624 </i>
    <i name="e_0_energy">   -172.05559942 </i>
   </energy>
  </scstep>
  <scstep>
   <time name="dav">    0.51    0.51</time>
   <time name="total">    2.69    2.70</time>
   <energy>
    <i name="e_fr_energy">   -174.71739268 </i>
    <i name="e_wo_entrp">   -174.56954700 </i>
    <i name="e_0_energy">   -174.64346984 </i>
   </energy>
  </scstep>
  <scstep>
   <time name="dav">    0.51    0.52</time>
   <time name="total">    2.65    2.66</time>
   <energy>
    <i name="e_fr_energy">   -176.64433181 </i>
    <i name="e_wo_entrp">   -176.47298175 </i>
    <i name="e_0_energy">   -176.55865678 </i>
   </energy>
  </scstep>
  <scstep>
   <time name="dav">    0.51    0.51</time>
   <time name="total">    2.64    2.65</time>
   <energy>
    <i name="e_fr_energy">   -178.24227073 </i>
    <i name="e_wo_entrp">   -178.07094872 </i>
    <i name="e_0_energy">   -178.15660972 </i>
   </energy>
  </scstep>
  <scstep>
   <time name="dav">    0.55    0.55</time>
   <time name="total">    2.68    2.69</time>
   <energy>
    <i name="e_fr_energy">   -178.46007620 </i>
    <i name="e_wo_entrp">   -178.27360231 </i>
    <i name="e_0_energy">   -178.36683925 </i>
   </energy>
  </scstep>
  <scstep>
   <time name="dav">    0.52    0.52</time>
   <time name="total">    2.50    2.51</time>
   <energy>
    <i name="e_fr_energy">   -178.54630913 </i>
    <i name="e_wo_entrp">   -178.35449322 </i>
    <i name="e_0_energy">   -178.45040117 </i>
   </energy>
  </scstep>
  <scstep>
   <time name="dav">    0.53    0.53</time>
   <time name="total">    2.51    2.52</time>
   <energy>
    <i name="e_fr_energy">   -178.54492778 </i>
    <i name="e_wo_entrp">   -178.35318106 </i>
    <i name="e_0_energy">   -178.44905442 </i>
   </energy>
  </scstep>
  <scstep>
   <time name="dav">    0.54    0.54</time>
   <time name="total">    2.52    2.53</time>
   <energy>
    <i name="e_fr_energy">   -178.55547499 </i>
    <i name="e_wo_entrp">   -178.35961091 </i>
    <i name="e_0_energy">   -178.45754295 </i>
   </energy>
  </scstep>
  <scstep>
   <time name="dav">    0.54    0.54</time>
   <time name="total">    2.52    2.53</time>
   <energy>
    <i name="e_fr_energy">   -178.56663256 </i>
    <i name="e_wo_entrp">   -178.36814533 </i>
    <i name="e_0_energy">   -178.46738895 </i>
   </energy>
  </scstep>
  <scstep>
   <time name="dav">    0.50    0.50</time>
   <time name="total">    2.48    2.49</time>
   <energy>
    <i name="e_fr_energy">   -178.56845232 </i>
    <i name="e_wo_entrp">   -178.37125044 </i>
    <i name="e_0_energy">   -178.46985138 </i>
   </energy>
  </scstep>
  <scstep>
   <time name="dav">    0.53    0.53</time>
   <time name="total">    2.71    2.72</time>
   <energy>
    <i name="e_fr_energy">   -178.56904631 </i>
    <i name="e_wo_entrp">   -178.37202531 </i>
    <i name="e_0_energy">   -178.47053581 </i>
   </energy>
  </scstep>
  <scstep>
   <time name="dav">    0.51    0.51</time>
   <time name="total">    2.68    2.69</time>
   <energy>
    <i name="e_fr_energy">   -178.57003909 </i>
    <i name="e_wo_entrp">   -178.37265518 </i>
    <i name="e_0_energy">   -178.47134714 </i>
   </energy>
  </scstep>
  <scstep>
   <time name="dav">    0.51    0.51</time>
   <time name="total">    2.68    2.69</time>
   <energy>
    <i name="e_fr_energy">   -178.57024865 </i>
    <i name="e_wo_entrp">   -178.37268321 </i>
    <i name="e_0_energy">   -178.47146593 </i>
   </energy>
  </scstep>
  <scstep>
   <time name="dav">    0.50    0.50</time>
   <time name="total">    2.70    2.71</time>
   <energy>
    <i name="e_fr_energy">   -178.57024085 </i>
    <i name="e_wo_entrp">   -178.37245665 </i>
    <i name="e_0_energy">   -178.47134875 </i>
   </energy>
  </scstep>
  <scstep>
   <time name="dav">    0.45    0.45</time>
   <time name="total">    2.59    2.59</time>
   <energy>
    <i name="alphaZ">   1390.48224925 </i>
    <i name="ewald"> -21532.55444335 </i>
    <i name="hartreedc">  -3743.02217828 </i>
    <i name="XCdc">    846.10774664 </i>
    <i name="pawpsdc">  23973.80878790 </i>
    <i name="pawaedc"> -23792.59901152 </i>
    <i name="eentropy">     -0.19789155 </i>
    <i name="bandstr">  -2803.58794685 </i>
    <i name="atom">  25482.99243790 </i>
    <i name="e_fr_energy">   -178.57024986 </i>
    <i name="e_wo_entrp">   -178.37235831 </i>
    <i name="e_0_energy">   -178.47130408 </i>
   </energy>
  </scstep>
  <structure>
   <crystal>
    <varray name="basis" >
     <v>      12.22634592       0.00000000       0.00000000 </v>
     <v>       0.00000000      12.22634592       0.00000000 </v>
     <v>       0.00000000       0.00000000      12.22634592 </v>
    </varray>
    <i name="volume">   1827.63740156 </i>
    <varray name="rec_basis" >
     <v>       0.08179059       0.00000000       0.00000000 </v>
     <v>       0.00000000       0.08179059       0.00000000 </v>
     <v>       0.00000000       0.00000000       0.08179059 </v>
    </varray>
   </crystal>
   <varray name="positions" >
    <v>       0.99546965       0.99671109       0.33583178 </v>
    <v>       0.99874813       0.99910992       0.66531317 </v>
    <v>       0.99815692       0.33796259       0.00067203 </v>
    <v>       0.00000000       0.33333333       0.33333333 </v>
    <v>       0.00000000       0.33333333       0.66666667 </v>
    <v>       0.99067472       0.65588139       0.99921596 </v>
    <v>       0.00000000       0.66666667       0.33333333 </v>
    <v>       0.00000000       0.66666667       0.66666667 </v>
    <v>       0.34378612       0.00109218       0.00143563 </v>
    <v>       0.33333333       0.00000000       0.33333333 </v>
    <v>       0.33333333       0.00000000       0.66666667 </v>
    <v>       0.33333333       0.33333333       0.00000000 </v>
    <v>       0.33333333       0.33333333       0.33333333 </v>
    <v>       0.33333333       0.33333333       0.66666667 </v>
    <v>       0.33333333       0.66666667       0.00000000 </v>
    <v>       0.33333333       0.66666667       0.33333333 </v>
    <v>       0.33333333       0.66666667       0.66666667 </v>
    <v>       0.67830882       0.99966398       0.99803272 </v>
    <v>       0.66666667       0.00000000       0.33333333 </v>
    <v>       0.66666667       0.00000000       0.66666667 </v>
    <v>       0.66666667       0.33333333       0.00000000 </v>
    <v>       0.66666667       0.33333333       0.33333333 </v>
    <v>       0.66666667       0.33333333       0.66666667 </v>
    <v>       0.66666667       0.66666667       0.00000000 </v>
    <v>       0.66666667       0.66666667       0.33333333 </v>
    <v>       0.66666667       0.66666667       0.66666667 </v>
    <v>       0.16667459       0.16610873       0.16931116 </v>
    <v>       0.16666667       0.16666667       0.50000000 </v>
    <v>       0.16490133       0.17191576       0.83355027 </v>
    <v>       0.16666667       0.50000000       0.16666667 </v>
    <v>       0.16666667       0.50000000       0.50000000 </v>
    <v>       0.16666667       0.50000000       0.83333333 </v>
    <v>       0.17027481       0.83391222       0.16379639 </v>
    <v>       0.16666667       0.83333333       0.50000000 </v>
    <v>       0.17146645       0.83009584       0.83151707 </v>
    <v>       0.50000000       0.16666667       0.16666667 </v>
    <v>       0.50000000       0.16666667       0.50000000 </v>
    <v>       0.50000000       0.16666667       0.83333333 </v>
    <v>       0.50000000       0.50000000       0.16666667 </v>
    <v>       0.50000000       0.50000000       0.50000000 </v>
    <v>       0.50000000       0.50000000       0.83333333 </v>
    <v>       0.50000000       0.83333333       0.16666667 </v>
    <v>       0.50000000       0.83333333       0.50000000 </v>
    <v>       0.50000000       0.83333333       0.83333333 </v>
    <v>       0.82542005       0.15925158       0.16270216 </v>
    <v>       0.83333333       0.16666667       0.50000000 </v>
    <v>       0.83075384       0.16619309       0.83451521 </v>
    <v>       0.83333333       0.50000000       0.16666667 </v>
    <v>       0.83333333       0.50000000       0.50000000 </v>
    <v>       0.83333333       0.50000000       0.83333333 </v>
    <v>       0.82927230       0.82841797       0.16215346 </v>
    <v>       0.83333333       0.83333333       0.50000000 </v>
    <v>       0.82555942       0.84084246       0.84539751 </v>
   </varray>
  </structure>
  <varray name="forces" >
   <v>       0.08712574       0.06634681      -0.34271669 </v>
   <v>       0.03054772       0.02852029       0.32456853 </v>
   <v>       0.04759349      -0.37971383      -0.01071656 </v>
   <v>      -0.01096233      -0.04468153      -0.01547438 </v>
   <v>      -0.01025208      -0.01968508       0.01370311 </v>
   <v>       0.17797716       0.43640458       0.01647624 </v>
   <v>       0.01007414       0.01172562      -0.03518041 </v>
   <v>       0.00223015       0.02265051       0.02909906 </v>
   <v>      -0.32942995      -0.02381370      -0.04090401 </v>
   <v>      -0.02629506       0.00008369      -0.00800394 </v>
   <v>      -0.02034949       0.01092713       0.02559983 </v>
   <v>      -0.02181906      -0.01048479       0.00532565 </v>
   <v>       0.00617008       0.00079780       0.00599109 </v>
   <v>       0.00464785       0.00639232      -0.00304941 </v>
   <v>      -0.03211218       0.01242722      -0.00338045 </v>
   <v>       0.00859676      -0.00160268      -0.00135405 </v>
   <v>       0.01891178      -0.01596538      -0.00858041 </v>
   <v>      -0.01971612       0.05147926       0.09498789 </v>
   <v>      -0.03616994      -0.01992726      -0.02713029 </v>
   <v>      -0.01769428       0.00889068       0.01823247 </v>
   <v>      -0.02320195      -0.02604977      -0.00045347 </v>
   <v>      -0.00803225      -0.00893197      -0.00485265 </v>
   <v>      -0.00810383      -0.00403171       0.00121340 </v>
   <v>      -0.08525614      -0.00346827       0.00486126 </v>
   <v>      -0.01706499      -0.00629749      -0.00141825 </v>
   <v>      -0.01137600       0.00959093       0.01486722 </v>
   <v>       0.06973809       0.10360560       0.06328252 </v>
   <v>      -0.00722105       0.00195381       0.00479942 </v>
   <v>       0.10815899       0.01319690      -0.08902208 </v>
   <v>      -0.00302872      -0.00220323       0.02380055 </v>
   <v>      -0.01713034       0.00570768      -0.00132336 </v>
   <v>      -0.00388384       0.00196383      -0.02017644 </v>
   <v>       0.02017023      -0.10748666       0.12848958 </v>
   <v>      -0.00416081      -0.02093436      -0.00912204 </v>
   <v>       0.00531775      -0.05060368      -0.07688611 </v>
   <v>       0.00218836       0.04070315       0.04092415 </v>
   <v>       0.00263156       0.00482228      -0.00003776 </v>
   <v>       0.00777909       0.03252047      -0.03517988 </v>
   <v>       0.00045186      -0.00773360       0.01592135 </v>
   <v>       0.00636746       0.00050401       0.00040162 </v>
   <v>       0.00279690      -0.00596253      -0.01413658 </v>
   <v>       0.02020561      -0.02824613       0.03731749 </v>
   <v>       0.00185466      -0.00777802       0.00612272 </v>
   <v>       0.01272198      -0.02679948      -0.03920754 </v>
   <v>       0.08405768       0.25347969       0.20674890 </v>
   <v>      -0.01382123       0.01576339      -0.00596048 </v>
   <v>      -0.02105244       0.15749132      -0.15896138 </v>
   <v>      -0.04652305      -0.05974464       0.06313829 </v>
   <v>       0.00306931       0.00836766       0.00074097 </v>
   <v>      -0.05049942      -0.00982746      -0.06520558 </v>
   <v>      -0.00088916      -0.07379283       0.22106966 </v>
   <v>      -0.02219772      -0.04136190       0.02965773 </v>
   <v>       0.12685903      -0.29918862      -0.37890651 </v>
  </varray>
  <varray name="stress" >
   <v>     -13.12781966      -0.01692262      -0.11851094 </v>
   <v>      -0.01692266     -12.83606552       0.11259640 </v>
   <v>      -0.11851060       0.11259668     -13.25514735 </v>
  </varray>
  <energy>
   <i name="e_fr_energy">   -178.57024986 </i>
   <i name="e_wo_entrp">   -178.37235831 </i>
   <i name="e_0_energy">   -178.47130408 </i>
  </energy>
  <time name="totalsc">   49.87   50.02</time>
 </calculation>
 <calculation>
  <scstep>
   <time name="dav">    0.47    0.47</time>
   <time name="total">    2.51    2.52</time>
   <energy>
    <i name="alphaZ">   1390.48224925 </i>
    <i name="ewald"> -21535.05472151 </i>
    <i name="hartreedc">  -3740.76636893 </i>
    <i name="XCdc">    846.07220463 </i>
    <i name="pawpsdc">  23973.74463352 </i>
    <i name="pawaedc"> -23792.53288893 </i>
    <i name="eentropy">     -0.19722629 </i>
    <i name="bandstr">  -2803.35538263 </i>
    <i name="atom">  25482.99243790 </i>
    <i name="e_fr_energy">   -178.61506299 </i>
    <i name="e_wo_entrp">   -178.41783670 </i>
    <i name="e_0_energy">   -178.51644984 </i>
   </energy>
  </scstep>
  <scstep>
   <time name="dav">    0.49    0.49</time>
   <time name="total">    2.54    2.55</time>
   <energy>
    <i name="e_fr_energy">   -178.63241197 </i>
    <i name="e_wo_entrp">   -178.43329045 </i>
    <i name="e_0_energy">   -178.53285121 </i>
   </energy>
  </scstep>
  <scstep>
   <time name="dav">    0.53    0.53</time>
   <time name="total">    2.58    2.59</time>
   <energy>
    <i name="e_fr_energy">   -178.63192706 </i>
    <i name="e_wo_entrp">   -178.43277872 </i>
    <i name="e_0_energy">   -178.53235289 </i>
   </energy>
  </scstep>
  <scstep>
   <time name="dav">    0.52    0.52</time>
   <time name="total">    2.57    2.58</time>
   <energy>
    <i name="e_fr_energy">   -178.63153692 </i>
    <i name="e_wo_entrp">   -178.43262306 </i>
    <i name="e_0_energy">   -178.53207999 </i>
   </energy>
  </scstep>
  <scstep>
   <time name="dav">    0.51    0.51</time>
   <time name="total">    2.56    2.57</time>
   <energy>
    <i name="e_fr_energy">   -178.63133892 </i>
    <i name="e_wo_entrp">   -178.43225919 </i>
    <i name="e_0_energy">   -178.53179905 </i>
   </energy>
  </scstep>
  <scstep>
   <time name="dav">    0.52    0.52</time>
   <time name="total">    2.55    2.55</time>
   <energy>
    <i name="e_fr_energy">   -178.63123655 </i>
    <i name="e_wo_entrp">   -178.43204465 </i>
    <i name="e_0_energy">   -178.53164060 </i>
   </energy>
  </scstep>
  <scstep>
   <time name="dav">    0.52    0.52</time>
   <time name="total">    2.53    2.54</time>
   <energy>
    <i name="e_fr_energy">   -178.63123723 </i>
    <i name="e_wo_entrp">   -178.43197760 </i>
    <i name="e_0_energy">   -178.53160741 </i>
   </energy>
  </scstep>
  <scstep>
   <time name="dav">    0.43    0.43</time>
   <time name="total">    2.39    2.39</time>
   <energy>
    <i name="alphaZ">   1390.48224925 </i>
    <i name="ewald"> -21535.05472151 </i>
    <i name="hartreedc">  -3740.78388935 </i>
    <i name="XCdc">    846.06561993 </i>
    <i name="pawpsdc">  23968.87725327 </i>
    <i name="pawaedc"> -23787.65513994 </i>
    <i name="eentropy">     -0.19928795 </i>
    <i name="bandstr">  -2803.35575620 </i>
    <i name="atom">  25482.99243790 </i>
    <i name="e_fr_energy">   -178.63123459 </i>
    <i name="e_wo_entrp">   -178.43194664 </i>
    <i name="e_0_energy">   -178.53159061 </i>
   </energy>
  </scstep>
  <structure>
   <crystal>
    <varray name="basis" >
     <v>      12.22634592       0.00000000       0.00000000 </v>
     <v>       0.00000000      12.22634592       0.00000000 </v>
     <v>       0.00000000       0.00000000      12.22634592 </v>
    </varray>
    <i name="volume">   1827.63740156 </i>
    <varray name="rec_basis" >
     <v>       0.08179059       0.00000000       0.00000000 </v>
     <v>       0.00000000       0.08179059       0.00000000 </v>
     <v>       0.00000000       0.00000000       0.08179059 </v>
    </varray>
   </crystal>
   <varray name="positions" >
    <v>       0.99581343       0.99697288       0.33447949 </v>
    <v>       0.99886866       0.99922245       0.66659386 </v>
    <v>       0.99834471       0.33646431       0.00062975 </v>
    <v>       0.99995674       0.33315703       0.33327227 </v>
    <v>       0.99995955       0.33325566       0.66672074 </v>
    <v>       0.99137698       0.65760335       0.99928097 </v>
    <v>       0.00003975       0.66671293       0.33319452 </v>
    <v>       0.00000880       0.66675604       0.66678149 </v>
    <v>       0.34248625       0.00099822       0.00127424 </v>
    <v>       0.33322958       0.00000033       0.33330175 </v>
    <v>       0.33325304       0.00004312       0.66676768 </v>
    <v>       0.33324724       0.33329196       0.00002101 </v>
    <v>       0.33335768       0.33333648       0.33335697 </v>
    <v>       0.33335167       0.33335856       0.66665463 </v>
    <v>       0.33320663       0.66671570       0.99998666 </v>
    <v>       0.33336725       0.66666034       0.33332799 </v>
    <v>       0.33340796       0.66660367       0.66663281 </v>
    <v>       0.67823102       0.99986711       0.99840752 </v>
    <v>       0.66652395       0.99992137       0.33322628 </v>
    <v>       0.66659685       0.00003508       0.66673861 </v>
    <v>       0.66657512       0.33323055       0.99999821 </v>
    <v>       0.66663497       0.33329809       0.33331419 </v>
    <v>       0.66663469       0.33331743       0.66667145 </v>
    <v>       0.66633026       0.66665298       0.00001918 </v>
    <v>       0.66659933       0.66664182       0.33332774 </v>
    <v>       0.66662178       0.66670451       0.66672533 </v>
    <v>       0.16694976       0.16651754       0.16956086 </v>
    <v>       0.16663817       0.16667438       0.50001894 </v>
    <v>       0.16532810       0.17196783       0.83319900 </v>
    <v>       0.16665472       0.49999131       0.16676058 </v>
    <v>       0.16659907       0.50002252       0.49999478 </v>
    <v>       0.16665134       0.50000775       0.83325372 </v>
    <v>       0.17035440       0.83348810       0.16430339 </v>
    <v>       0.16665025       0.83325073       0.49996401 </v>
    <v>       0.17148744       0.82989617       0.83121369 </v>
    <v>       0.50000863       0.16682727       0.16682815 </v>
    <v>       0.50001038       0.16668569       0.49999985 </v>
    <v>       0.50003069       0.16679499       0.83319452 </v>
    <v>       0.50000178       0.49996948       0.16672949 </v>
    <v>       0.50002512       0.50000199       0.50000158 </v>
    <v>       0.50001104       0.49997647       0.83327755 </v>
    <v>       0.50007973       0.83322188       0.16681391 </v>
    <v>       0.50000732       0.83330264       0.50002416 </v>
    <v>       0.50005020       0.83322759       0.83317863 </v>
    <v>       0.82575172       0.16025176       0.16351795 </v>
    <v>       0.83327880       0.16672887       0.49997648 </v>
    <v>       0.83067077       0.16681452       0.83388799 </v>
    <v>       0.83314976       0.49976426       0.16691580 </v>
    <v>       0.83334544       0.50003302       0.50000292 </v>
    <v>       0.83313407       0.49996122       0.83307605 </v>
    <v>       0.82926879       0.82812680       0.16302575 </v>
    <v>       0.83324575       0.83317013       0.50011702 </v>
    <v>       0.82605998       0.83966192       0.84390242 </v>
   </varray>
  </structure>
  <varray name="forces" >
   <v>       0.07282381       0.05869430      -0.30654167 </v>
   <v>       0.02725432       0.02583165       0.29181630 </v>
   <v>       0.03134970      -0.36179489      -0.00712122 </v>
   <v>      -0.01162438      -0.03594471      -0.01160525 </v>
   <v>      -0.01002875      -0.01359665       0.00934982 </v>
   <v>       0.15300995       0.38532428       0.01469246 </v>
   <v>       0.00686903       0.00830295      -0.02646281 </v>
   <v>      -0.00161793       0.01958632       0.02323978 </v>
   <v>      -0.30671353      -0.02028618      -0.03681717 </v>
   <v>      -0.02186501       0.00047396      -0.00440780 </v>
   <v>      -0.01713427       0.00998758       0.01930247 </v>
   <v>      -0.01804064      -0.00675795       0.00464775 </v>
   <v>       0.00540410       0.00284419       0.00718089 </v>
   <v>       0.00401554       0.00719996      -0.00417526 </v>
   <v>      -0.02688834       0.00854281      -0.00308498 </v>
   <v>       0.00778458      -0.00246781       0.00079619 </v>
   <v>       0.01675998      -0.01478182      -0.01003188 </v>
   <v>       0.00571415       0.03566928       0.07576171 </v>
   <v>      -0.02859480      -0.01682019      -0.01913446 </v>
   <v>      -0.01289105       0.00761863       0.01408671 </v>
   <v>      -0.01819314      -0.01901458      -0.00084201 </v>
   <v>      -0.00610908      -0.00625333      -0.00190700 </v>
   <v>      -0.00644353      -0.00111751      -0.00124053 </v>
   <v>      -0.06974533      -0.00366588       0.00365624 </v>
   <v>      -0.01358934      -0.00752601       0.00229731 </v>
   <v>      -0.00714384       0.00798584       0.01122627 </v>
   <v>       0.07001004       0.09707321       0.05751724 </v>
   <v>      -0.00629266       0.00100865       0.00492585 </v>
   <v>       0.10713466       0.01169122      -0.08552099 </v>
   <v>      -0.00321114      -0.00239323       0.01960055 </v>
   <v>      -0.01481151       0.00501449      -0.00140017 </v>
   <v>      -0.00395713       0.00188108      -0.01612148 </v>
   <v>       0.02049028      -0.10115816       0.11990770 </v>
   <v>      -0.00412962      -0.01641823      -0.00854929 </v>
   <v>       0.00679420      -0.04735765      -0.06928502 </v>
   <v>      -0.00056083       0.03387242       0.03366688 </v>
   <v>       0.00081756       0.00360477      -0.00000376 </v>
   <v>       0.00501710       0.02753018      -0.02875646 </v>
   <v>      -0.00194041      -0.00665027       0.01315150 </v>
   <v>       0.00486404       0.00072130       0.00027157 </v>
   <v>       0.00018229      -0.00530926      -0.01133978 </v>
   <v>       0.01585731      -0.02230417       0.03077588 </v>
   <v>      -0.00001252      -0.00529442       0.00553873 </v>
   <v>       0.01022979      -0.02099453      -0.03224414 </v>
   <v>       0.07300774       0.23297705       0.18990517 </v>
   <v>      -0.01172703       0.01146175      -0.00629950 </v>
   <v>      -0.02548098       0.14451115      -0.14645890 </v>
   <v>      -0.03737856      -0.05252839       0.04912343 </v>
   <v>       0.00295001       0.00756672       0.00041776 </v>
   <v>      -0.04083572      -0.00509014      -0.05040913 </v>
   <v>      -0.00639852      -0.06341632       0.20681272 </v>
   <v>      -0.01761622      -0.03221429       0.02673116 </v>
   <v>       0.10263564      -0.26581917      -0.34663942 </v>
  </varray>
  <varray name="stress" >
   <v>     -13.15872880      -0.01394416      -0.10193670 </v>
   <v>      -0.01394445     -12.91885930       0.08763144 </v>
   <v>      -0.10193653       0.08763136     -13.26924941 </v>
  </varray>
  <energy>
   <i name="e_fr_energy">   -178.63123459 </i>
   <i name="e_wo_entrp">   -178.43194664 </i>
   <i name="e_0_energy">   -178.53159061 </i>
  </energy>
  <time name="totalsc">   25.06   25.13</time>
 </calculation>
 <calculation>
  <scstep>
   <time name="dav">    0.46    0.46</time>
   <time name="total">    2.48    2.48</time>
   <energy>
    <i name="alphaZ">   1390.48224925 </i>
    <i name="ewald"> -21540.31582025 </i>
    <i name="hartreedc">  -3736.09388716 </i>
    <i name="XCdc">    846.06565954 </i>
    <i name="pawpsdc">  23968.33325592 </i>
    <i name="pawaedc"> -23787.11079110 </i>
    <i name="eentropy">     -0.19419882 </i>
    <i name="bandstr">  -2802.78573690 </i>
    <i name="atom">  25482.99243790 </i>
    <i name="e_fr_energy">   -178.62683162 </i>
    <i name="e_wo_entrp">   -178.43263280 </i>
    <i name="e_0_energy">   -178.52973221 </i>
   </energy>
  </scstep>
  <scstep>
   <time name="dav">    0.49    0.49</time>
   <time name="total">    2.55    2.55</time>
   <energy>
    <i name="e_fr_energy">   -178.78800229 </i>
    <i name="e_wo_entrp">   -178.58665163 </i>
    <i name="e_0_energy">   -178.68732696 </i>
   </energy>
  </scstep>
  <scstep>
   <time name="dav">    0.53    0.53</time>
   <time name="total">    2.58    2.59</time>
   <energy>
    <i name="e_fr_energy">   -178.78363621 </i>
    <i name="e_wo_entrp">   -178.58384257 </i>
    <i name="e_0_energy">   -178.68373939 </i>
   </energy>
  </scstep>
  <scstep>
   <time name="dav">    0.52    0.52</time>
   <time name="total">    2.56    2.56</time>
   <energy>
    <i name="e_fr_energy">   -178.77987941 </i>
    <i name="e_wo_entrp">   -178.57999646 </i>
    <i name="e_0_energy">   -178.67993793 </i>
   </energy>
  </scstep>
  <scstep>
   <time name="dav">    0.52    0.52</time>
   <time name="total">    2.58    2.58</time>
   <energy>
    <i name="e_fr_energy">   -178.77821239 </i>
    <i name="e_wo_entrp">   -178.57748362 </i>
    <i name="e_0_energy">   -178.67784801 </i>
   </energy>
  </scstep>
  <scstep>
   <time name="dav">    0.51    0.52</time>
   <time name="total">    2.57    2.58</time>
   <energy>
    <i name="e_fr_energy">   -178.77710294 </i>
    <i name="e_wo_entrp">   -178.57667004 </i>
    <i name="e_0_energy">   -178.67688649 </i>
   </energy>
  </scstep>
  <scstep>
   <time name="dav">    0.53    0.53</time>
   <time name="total">    2.54    2.55</time>
   <energy>
    <i name="e_fr_energy">   -178.77710254 </i>
    <i name="e_wo_entrp">   -178.57653355 </i>
    <i name="e_0_energy">   -178.67681805 </i>
   </energy>
  </scstep>
  <scstep>
   <time name="dav">    0.51    0.51</time>
   <time name="total">    2.52    2.53</time>
   <energy>
    <i name="e_fr_energy">   -178.77709379 </i>
    <i name="e_wo_entrp">   -178.57611711 </i>
    <i name="e_0_energy">   -178.67660545 </i>
   </energy>
  </scstep>
  <scstep>
   <time name="dav">    0.50    0.50</time>
   <time name="total">    2.51    2.51</time>
   <energy>
    <i name="e_fr_energy">   -178.77710272 </i>
    <i name="e_wo_entrp">   -178.57598367 </i>
    <i name="e_0_energy">   -178.67654319 </i>
   </energy>
  </scstep>
  <scstep>
   <time name="dav">    0.49    0.49</time>
   <time name="total">    2.51    2.52</time>
   <energy>
    <i name="e_fr_energy">   -178.77712168 </i>
    <i name="e_wo_entrp">   -178.57595854 </i>
    <i name="e_0_energy">   -178.67654011 </i>
   </energy>
  </scstep>
  <scstep>
   <time name="dav">    0.41    0.41</time>
   <time name="total">    2.36    2.37</time>
   <energy>
    <i name="alphaZ">   1390.48224925 </i>
    <i name="ewald"> -21540.31582025 </i>
    <i name="hartreedc">  -3736.55211432 </i>
    <i name="XCdc">    846.08961828 </i>
    <i name="pawpsdc">  23969.62067620 </i>
    <i name="pawaedc"> -23788.39930160 </i>
    <i name="eentropy">     -0.20132623 </i>
    <i name="bandstr">  -2802.49354722 </i>
    <i name="atom">  25482.99243790 </i>
    <i name="e_fr_energy">   -178.77712799 </i>
    <i name="e_wo_entrp">   -178.57580176 </i>
    <i name="e_0_energy">   -178.67646488 </i>
   </energy>
  </scstep>
  <structure>
   <crystal>
    <varray name="basis" >
     <v>      12.22634592       0.00000000       0.00000000 </v>
     <v>       0.00000000      12.22634592       0.00000000 </v>
     <v>       0.00000000       0.00000000      12.22634592 </v>
    </varray>
    <i name="volume">   1827.63740156 </i>
    <varray name="rec_basis" >
     <v>       0.08179059       0.00000000       0.00000000 </v>
     <v>       0.00000000       0.08179059       0.00000000 </v>
     <v>       0.00000000       0.00000000       0.08179059 </v>
    </varray>
   </crystal>
   <varray name="positions" >
    <v>       0.99684477       0.99775825       0.33042262 </v>
    <v>       0.99923027       0.99956006       0.67043590 </v>
    <v>       0.99890809       0.33196950       0.00050289 </v>
    <v>       0.99982698       0.33262812       0.33308910 </v>
    <v>       0.99983819       0.33302264       0.66688295 </v>
    <v>       0.99348377       0.66276924       0.99947601 </v>
    <v>       0.00015900       0.66685173       0.33277807 </v>
    <v>       0.00003520       0.66702416       0.66712594 </v>
    <v>       0.33858666       0.00071633       0.00079004 </v>
    <v>       0.33291831       0.00000132       0.33320701 </v>
    <v>       0.33301215       0.00017246       0.66707071 </v>
    <v>       0.33298896       0.33316785       0.00008406 </v>
    <v>       0.33343072       0.33334593       0.33342789 </v>
    <v>       0.33340669       0.33343422       0.66661854 </v>
    <v>       0.33282650       0.66686281       0.99994665 </v>
    <v>       0.33346902       0.66664137       0.33331196 </v>
    <v>       0.33363182       0.66641468       0.66653124 </v>
    <v>       0.67799763       0.00047649       0.99953193 </v>
    <v>       0.66609579       0.99968548       0.33290513 </v>
    <v>       0.66638739       0.00014032       0.66695443 </v>
    <v>       0.66630047       0.33292219       0.99999284 </v>
    <v>       0.66653989       0.33319236       0.33325674 </v>
    <v>       0.66653876       0.33326970       0.66668582 </v>
    <v>       0.66532105       0.66661193       0.00007673 </v>
    <v>       0.66639733       0.66656727       0.33331095 </v>
    <v>       0.66648712       0.66681804       0.66690132 </v>
    <v>       0.16777528       0.16774396       0.17030996 </v>
    <v>       0.16655270       0.16669750       0.50007575 </v>
    <v>       0.16660842       0.17212405       0.83214521 </v>
    <v>       0.16661886       0.49996523       0.16704232 </v>
    <v>       0.16639630       0.50009009       0.49997911 </v>
    <v>       0.16660537       0.50003100       0.83301488 </v>
    <v>       0.17059316       0.83221574       0.16582437 </v>
    <v>       0.16660100       0.83300292       0.49985603 </v>
    <v>       0.17155038       0.82929715       0.83030356 </v>
    <v>       0.50003454       0.16730909       0.16731258 </v>
    <v>       0.50004153       0.16674278       0.49999940 </v>
    <v>       0.50012278       0.16717994       0.83277808 </v>
    <v>       0.50000713       0.49987794       0.16691796 </v>
    <v>       0.50010050       0.50000795       0.50000634 </v>
    <v>       0.50004414       0.49990589       0.83311021 </v>
    <v>       0.50031891       0.83288752       0.16725566 </v>
    <v>       0.50002927       0.83321057       0.50009664 </v>
    <v>       0.50020079       0.83291035       0.83271451 </v>
    <v>       0.82674675       0.16325229       0.16596531 </v>
    <v>       0.83311519       0.16691546       0.49990592 </v>
    <v>       0.83042156       0.16867880       0.83200630 </v>
    <v>       0.83259905       0.49905704       0.16766319 </v>
    <v>       0.83338178       0.50013207       0.50001169 </v>
    <v>       0.83253629       0.49984489       0.83230418 </v>
    <v>       0.82925827       0.82725329       0.16564264 </v>
    <v>       0.83298298       0.83268051       0.50046809 </v>
    <v>       0.82756166       0.83612031       0.83941716 </v>
   </varray>
  </structure>
  <varray name="forces" >
   <v>       0.05374879       0.03331296      -0.20546027 </v>
   <v>       0.01457798       0.01040348       0.21133020 </v>
   <v>       0.01153897      -0.24919299      -0.00182683 </v>
   <v>      -0.00981094      -0.01323932      -0.00013989 </v>
   <v>      -0.00674610       0.00124436      -0.00401485 </v>
   <v>       0.08875692       0.30725676       0.01130189 </v>
   <v>       0.00075327      -0.00291246      -0.00445290 </v>
   <v>      -0.00737006       0.00712554       0.00546182 </v>
   <v>      -0.26398887      -0.01793024      -0.02722305 </v>
   <v>      -0.01355283      -0.00161542       0.00204184 </v>
   <v>      -0.01003823       0.00330804       0.00251477 </v>
   <v>      -0.01055527       0.00035351       0.00364111 </v>
   <v>       0.00160041       0.00564719       0.00951306 </v>
   <v>       0.00180093       0.00752599      -0.00841239 </v>
   <v>      -0.01623575      -0.00138939      -0.00201171 </v>
   <v>       0.00344086      -0.00576091       0.00491305 </v>
   <v>       0.01029570      -0.01316042      -0.01374809 </v>
   <v>       0.06300035      -0.00664417       0.02493869 </v>
   <v>      -0.00799629      -0.01099670       0.00246227 </v>
   <v>      -0.00117206       0.00136285       0.00300342 </v>
   <v>      -0.00598678      -0.00211813      -0.00156428 </v>
   <v>      -0.00315210       0.00043347       0.00850763 </v>
   <v>      -0.00454669       0.00696546      -0.01163083 </v>
   <v>      -0.01988133      -0.00497486       0.00012786 </v>
   <v>      -0.00632367      -0.01391192       0.01284412 </v>
   <v>       0.00079322      -0.00092681      -0.00063888 </v>
   <v>       0.07012549       0.07500962       0.04019547 </v>
   <v>      -0.00382438      -0.00520235       0.00491987 </v>
   <v>       0.09912212       0.00430066      -0.06974877 </v>
   <v>      -0.00394791      -0.00474613       0.00454321 </v>
   <v>      -0.00704605       0.00009570      -0.00189815 </v>
   <v>      -0.00438621      -0.00128571      -0.00274048 </v>
   <v>       0.02403841      -0.08404020       0.09510720 </v>
   <v>      -0.00348807      -0.00410802      -0.00705378 </v>
   <v>       0.01263405      -0.03602924      -0.04742925 </v>
   <v>      -0.00698734       0.00699376       0.00770214 </v>
   <v>      -0.00463282      -0.00371071      -0.00015065 </v>
   <v>      -0.00132037       0.00636763      -0.00591814 </v>
   <v>      -0.00902091      -0.00525272       0.00252403 </v>
   <v>      -0.00028254      -0.00140374      -0.00037116 </v>
   <v>      -0.00767402      -0.00553505      -0.00160755 </v>
   <v>       0.00279553      -0.00395064       0.00646424 </v>
   <v>      -0.00567845       0.00106449       0.00295807 </v>
   <v>       0.00365759      -0.00301414      -0.00734734 </v>
   <v>       0.04031251       0.16469617       0.13487443 </v>
   <v>      -0.00584941      -0.00466512      -0.00574932 </v>
   <v>      -0.03630206       0.09404453      -0.09899689 </v>
   <v>      -0.01006919      -0.02840166       0.00477923 </v>
   <v>       0.00254690       0.00215132      -0.00085689 </v>
   <v>      -0.01201312       0.00330833      -0.00448402 </v>
   <v>      -0.02436698      -0.03063221       0.14787386 </v>
   <v>      -0.00420239      -0.00462146       0.01300139 </v>
   <v>       0.03290921      -0.17159901      -0.23206852 </v>
  </varray>
  <varray name="stress" >
   <v>     -13.32589478      -0.00974907      -0.04694937 </v>
   <v>      -0.00974936     -13.20620936       0.02525806 </v>
   <v>      -0.04694926       0.02525777     -13.43974506 </v>
  </varray>
  <energy>
   <i name="e_fr_energy">   -178.77712799 </i>
   <i name="e_wo_entrp">   -178.57580176 </i>
   <i name="e_0_energy">   -178.67646488 </i>
  </energy>
  <time name="totalsc">   32.79   32.86</time>
 </calculation>
 <calculation>
  <scstep>
   <time name="dav">    0.46    0.46</time>
   <time name="total">    2.66    2.67</time>
   <energy>
    <i name="alphaZ">   1390.48224925 </i>
    <i name="ewald"> -21541.36515101 </i>
    <i name="hartreedc">  -3735.80222698 </i>
    <i name="XCdc">    846.03253896 </i>
    <i name="pawpsdc">  23969.87860306 </i>
    <i name="pawaedc"> -23788.65653619 </i>
    <i name="eentropy">     -0.18726861 </i>
    <i name="bandstr">  -2801.63148651 </i>
    <i name="atom">  25482.99243790 </i>
    <i name="e_fr_energy">   -178.25684012 </i>
    <i name="e_wo_entrp">   -178.06957151 </i>
    <i name="e_0_energy">   -178.16320582 </i>
   </energy>
  </scstep>
  <scstep>
   <time name="dav">    0.49    0.49</time>
   <time name="total">    2.55    2.55</time>
   <energy>
    <i name="e_fr_energy">   -178.97574476 </i>
    <i name="e_wo_entrp">   -178.77704133 </i>
    <i name="e_0_energy">   -178.87639305 </i>
   </energy>
  </scstep>
  <scstep>
   <time name="dav">    0.53    0.53</time>
   <time name="total">    2.59    2.59</time>
   <energy>
    <i name="e_fr_energy">   -178.95127205 </i>
    <i name="e_wo_entrp">   -178.75685616 </i>
    <i name="e_0_energy">   -178.85406410 </i>
   </energy>
  </scstep>
  <scstep>
   <time name="dav">    0.52    0.52</time>
   <time name="total">    2.58    2.58</time>
   <energy>
    <i name="e_fr_energy">   -178.94063557 </i>
    <i name="e_wo_entrp">   -178.74583879 </i>
    <i name="e_0_energy">   -178.84323718 </i>
   </energy>
  </scstep>
  <scstep>
   <time name="dav">    0.52    0.53</time>
   <time name="total">    2.58    2.59</time>
   <energy>
    <i name="e_fr_energy">   -178.93290176 </i>
    <i name="e_wo_entrp">   -178.73560870 </i>
    <i name="e_0_energy">   -178.83425523 </i>
   </energy>
  </scstep>
  <scstep>
   <time name="dav">    0.52    0.52</time>
   <time name="total">    2.58    2.58</time>
   <energy>
    <i name="e_fr_energy">   -178.92882169 </i>
    <i name="e_wo_entrp">   -178.73382258 </i>
    <i name="e_0_energy">   -178.83132213 </i>
   </energy>
  </scstep>
  <scstep>
   <time name="dav">    0.53    0.53</time>
   <time name="total">    2.55    2.55</time>
   <energy>
    <i name="e_fr_energy">   -178.92870139 </i>
    <i name="e_wo_entrp">   -178.73314645 </i>
    <i name="e_0_energy">   -178.83092392 </i>
   </energy>
  </scstep>
  <scstep>
   <time name="dav">    0.52    0.52</time>
   <time name="total">    2.54    2.55</time>
   <energy>
    <i name="e_fr_energy">   -178.92857838 </i>
    <i name="e_wo_entrp">   -178.73274185 </i>
    <i name="e_0_energy">   -178.83066012 </i>
   </energy>
  </scstep>
  <scstep>
   <time name="dav">    0.53    0.53</time>
   <time name="total">    2.54    2.55</time>
   <energy>
    <i name="e_fr_energy">   -178.92859292 </i>
    <i name="e_wo_entrp">   -178.73296514 </i>
    <i name="e_0_energy">   -178.83077903 </i>
   </energy>
  </scstep>
  <scstep>
   <time name="dav">    0.51    0.52</time>
   <time name="total">    2.54    2.54</time>
   <energy>
    <i name="e_fr_energy">   -178.92865411 </i>
    <i name="e_wo_entrp">   -178.73322510 </i>
    <i name="e_0_energy">   -178.83093961 </i>
   </energy>
  </scstep>
  <scstep>
   <time name="dav">    0.52    0.52</time>
   <time name="total">    2.47    2.48</time>
   <energy>
    <i name="alphaZ">   1390.48224925 </i>
    <i name="ewald"> -21541.36515101 </i>
    <i name="hartreedc">  -3737.72036520 </i>
    <i name="XCdc">    846.11951720 </i>
    <i name="pawpsdc">  23971.42221423 </i>
    <i name="pawaedc"> -23790.20500429 </i>
    <i name="eentropy">     -0.19542211 </i>
    <i name="bandstr">  -2800.45913952 </i>
    <i name="atom">  25482.99243790 </i>
    <i name="e_fr_energy">   -178.92866354 </i>
    <i name="e_wo_entrp">   -178.73324143 </i>
    <i name="e_0_energy">   -178.83095248 </i>
   </energy>
  </scstep>
  <structure>
   <crystal>
    <varray name="basis" >
     <v>      12.22634592       0.00000000       0.00000000 </v>
     <v>       0.00000000      12.22634592       0.00000000 </v>
     <v>       0.00000000       0.00000000      12.22634592 </v>
    </varray>
    <i name="volume">   1827.63740156 </i>
    <varray name="rec_basis" >
     <v>       0.08179059       0.00000000       0.00000000 </v>
     <v>       0.00000000       0.08179059       0.00000000 </v>
     <v>       0.00000000       0.00000000       0.08179059 </v>
    </varray>
   </crystal>
   <varray name="positions" >
    <v>       0.99890746       0.99932900       0.32230889 </v>
    <v>       0.99995348       0.00023527       0.67811998 </v>
    <v>       0.00003486       0.32297986       0.00024918 </v>
    <v>       0.99956745       0.33157029       0.33272275 </v>
    <v>       0.99959547       0.33255660       0.66720736 </v>
    <v>       0.99769734       0.67310102       0.99986608 </v>
    <v>       0.00039750       0.66712934       0.33194519 </v>
    <v>       0.00008800       0.66756041       0.66781486 </v>
    <v>       0.33078749       0.00015254       0.99982165 </v>
    <v>       0.33229578       0.00000330       0.33301751 </v>
    <v>       0.33253038       0.00043116       0.66767678 </v>
    <v>       0.33247240       0.33291962       0.00021014 </v>
    <v>       0.33357679       0.33336481       0.33356973 </v>
    <v>       0.33351673       0.33358556       0.66654634 </v>
    <v>       0.33206625       0.66715702       0.99986661 </v>
    <v>       0.33367254       0.66660343       0.33327991 </v>
    <v>       0.33407955       0.66603671       0.66632810 </v>
    <v>       0.67753086       0.00169525       0.00178075 </v>
    <v>       0.66523948       0.99921371       0.33226283 </v>
    <v>       0.66596849       0.00035081       0.66738608 </v>
    <v>       0.66575117       0.33230546       0.99998211 </v>
    <v>       0.66634973       0.33298090       0.33314186 </v>
    <v>       0.66634691       0.33317425       0.66671454 </v>
    <v>       0.66330263       0.66652982       0.00019182 </v>
    <v>       0.66599332       0.66641818       0.33327737 </v>
    <v>       0.66621779       0.66704511       0.66725330 </v>
    <v>       0.16942631       0.17019679       0.17180816 </v>
    <v>       0.16638174       0.16674376       0.50018938 </v>
    <v>       0.16916906       0.17243648       0.83003764 </v>
    <v>       0.16654716       0.49991306       0.16760579 </v>
    <v>       0.16599074       0.50022521       0.49994778 </v>
    <v>       0.16651342       0.50007749       0.83253721 </v>
    <v>       0.17107069       0.82967101       0.16886633 </v>
    <v>       0.16650249       0.83250731       0.49964006 </v>
    <v>       0.17167628       0.82809912       0.82848330 </v>
    <v>       0.50008635       0.16827273       0.16828145 </v>
    <v>       0.50010384       0.16685694       0.49999851 </v>
    <v>       0.50030695       0.16794986       0.83194521 </v>
    <v>       0.50001783       0.49969485       0.16729489 </v>
    <v>       0.50025125       0.50001989       0.50001585 </v>
    <v>       0.50011036       0.49976473       0.83277553 </v>
    <v>       0.50079727       0.83221880       0.16813914 </v>
    <v>       0.50007318       0.83302643       0.50024159 </v>
    <v>       0.50050198       0.83227588       0.83178628 </v>
    <v>       0.82873679       0.16925337       0.17086005 </v>
    <v>       0.83278798       0.16728866       0.49976481 </v>
    <v>       0.82992315       0.17240737       0.82824292 </v>
    <v>       0.83149763       0.49764260       0.16915797 </v>
    <v>       0.83345444       0.50033017       0.50002924 </v>
    <v>       0.83134073       0.49961223       0.83076045 </v>
    <v>       0.82923722       0.82550626       0.17087641 </v>
    <v>       0.83245746       0.83170128       0.50117023 </v>
    <v>       0.83056501       0.82903709       0.83044663 </v>
   </varray>
  </structure>
  <varray name="forces" >
   <v>       0.00860904      -0.00728669      -0.07840212 </v>
   <v>      -0.00491870      -0.00804690       0.07655993 </v>
   <v>      -0.01905718      -0.09966188       0.00207808 </v>
   <v>       0.00120202       0.04241714       0.03342371 </v>
   <v>       0.00395868       0.03901673      -0.03499223 </v>
   <v>       0.03914684       0.12913580       0.00023630 </v>
   <v>      -0.01121725      -0.03216389       0.04884876 </v>
   <v>      -0.00532181      -0.03320041      -0.04457540 </v>
   <v>      -0.16551706      -0.00082320       0.00361235 </v>
   <v>       0.00867322      -0.00285691       0.02168242 </v>
   <v>       0.00832933      -0.00903940      -0.03489347 </v>
   <v>       0.00953227       0.02147212       0.00096940 </v>
   <v>      -0.00205077       0.01711926       0.02041517 </v>
   <v>       0.00020227       0.01430097      -0.01800279 </v>
   <v>       0.01059850      -0.02470272       0.00008525 </v>
   <v>       0.00040591      -0.01515074       0.01875953 </v>
   <v>      -0.00517793      -0.00785673      -0.01963891 </v>
   <v>       0.11755211      -0.05119463      -0.04649693 </v>
   <v>       0.02684503       0.00541869       0.04985037 </v>
   <v>       0.01937129      -0.00956721      -0.02175560 </v>
   <v>       0.01642475       0.03817918      -0.00163742 </v>
   <v>      -0.00865705       0.01956159       0.03661366 </v>
   <v>      -0.01175551       0.02834969      -0.03624108 </v>
   <v>       0.04859390      -0.01073083      -0.00606950 </v>
   <v>       0.00217032      -0.03085923       0.03914936 </v>
   <v>       0.00290592      -0.02690062      -0.03414796 </v>
   <v>       0.06783804       0.02829207       0.00223876 </v>
   <v>      -0.00169424      -0.01552285       0.00533159 </v>
   <v>       0.07724201      -0.00767745      -0.03206177 </v>
   <v>      -0.00581256      -0.00542782      -0.02420995 </v>
   <v>       0.00701427      -0.00794954      -0.00179727 </v>
   <v>      -0.00508961      -0.00566169       0.02443083 </v>
   <v>       0.03406437      -0.03646137       0.04216969 </v>
   <v>      -0.00198407       0.02137408      -0.00141536 </v>
   <v>       0.02872472      -0.00883622      -0.00392064 </v>
   <v>      -0.01209669      -0.03783256      -0.03520776 </v>
   <v>      -0.01501692      -0.01650982       0.00087017 </v>
   <v>      -0.01098664      -0.03033034       0.03700314 </v>
   <v>      -0.02259487       0.00043599      -0.01737799 </v>
   <v>      -0.01087865      -0.00324745      -0.00067917 </v>
   <v>      -0.02302844      -0.00378593       0.01888993 </v>
   <v>      -0.02060698       0.03003047      -0.03504669 </v>
   <v>      -0.01608955       0.01556870      -0.00120349 </v>
   <v>      -0.00624827       0.03187330       0.04060236 </v>
   <v>      -0.03029755       0.04406527       0.02702245 </v>
   <v>       0.00205578      -0.03255159      -0.00059037 </v>
   <v>      -0.05631131      -0.00356402      -0.00289631 </v>
   <v>       0.02107803       0.01640995      -0.05866047 </v>
   <v>       0.00005249      -0.00562467      -0.00227182 </v>
   <v>       0.02202707       0.00695503       0.06264055 </v>
   <v>      -0.04983648       0.02400925       0.02360823 </v>
   <v>       0.00931706       0.03911811      -0.01608408 </v>
   <v>      -0.07168911      -0.02207807      -0.02681546 </v>
  </varray>
  <varray name="stress" >
   <v>     -13.16920865      -0.00680467      -0.00286178 </v>
   <v>      -0.00680460     -13.24609552      -0.01445987 </v>
   <v>      -0.00286222      -0.01445964     -13.30459448 </v>
  </varray>
  <energy>
   <i name="e_fr_energy">   -178.92866354 </i>
   <i name="e_wo_entrp">   -178.73324143 </i>
   <i name="e_0_energy">   -178.83095248 </i>
  </energy>
  <time name="totalsc">   33.17   33.25</time>
 </calculation>
 <calculation>
  <scstep>
   <time name="dav">    0.46    0.46</time>
   <time name="total">    2.62    2.63</time>
   <energy>
    <i name="alphaZ">   1390.48224925 </i>
    <i name="ewald"> -21539.14194314 </i>
    <i name="hartreedc">  -3739.94726659 </i>
    <i name="XCdc">    846.16790079 </i>
    <i name="pawpsdc">  23972.60756788 </i>
    <i name="pawaedc"> -23791.38859226 </i>
    <i name="eentropy">     -0.19043206 </i>
    <i name="bandstr">  -2800.45736189 </i>
    <i name="atom">  25482.99243790 </i>
    <i name="e_fr_energy">   -178.87544011 </i>
    <i name="e_wo_entrp">   -178.68500806 </i>
    <i name="e_0_energy">   -178.78022409 </i>
   </energy>
  </scstep>
  <scstep>
   <time name="dav">    0.49    0.49</time>
   <time name="total">    2.55    2.56</time>
   <energy>
    <i name="e_fr_energy">   -178.94336433 </i>
    <i name="e_wo_entrp">   -178.74856571 </i>
    <i name="e_0_energy">   -178.84596502 </i>
   </energy>
  </scstep>
  <scstep>
   <time name="dav">    0.53    0.53</time>
   <time name="total">    2.59    2.59</time>
   <energy>
    <i name="e_fr_energy">   -178.94060018 </i>
    <i name="e_wo_entrp">   -178.74802639 </i>
    <i name="e_0_energy">   -178.84431328 </i>
   </energy>
  </scstep>
  <scstep>
   <time name="dav">    0.52    0.52</time>
   <time name="total">    2.57    2.58</time>
   <energy>
    <i name="e_fr_energy">   -178.93941620 </i>
    <i name="e_wo_entrp">   -178.74657214 </i>
    <i name="e_0_energy">   -178.84299417 </i>
   </energy>
  </scstep>
  <scstep>
   <time name="dav">    0.52    0.52</time>
   <time name="total">    2.58    2.58</time>
   <energy>
    <i name="e_fr_energy">   -178.93845298 </i>
    <i name="e_wo_entrp">   -178.74497525 </i>
    <i name="e_0_energy">   -178.84171411 </i>
   </energy>
  </scstep>
  <scstep>
   <time name="dav">    0.53    0.53</time>
   <time name="total">    2.58    2.59</time>
   <energy>
    <i name="e_fr_energy">   -178.93820479 </i>
    <i name="e_wo_entrp">   -178.74543740 </i>
    <i name="e_0_energy">   -178.84182110 </i>
   </energy>
  </scstep>
  <scstep>
   <time name="dav">    0.52    0.52</time>
   <time name="total">    2.53    2.54</time>
   <energy>
    <i name="e_fr_energy">   -178.93823755 </i>
    <i name="e_wo_entrp">   -178.74540032 </i>
    <i name="e_0_energy">   -178.84181894 </i>
[...]
        <r>  0.0000  0.0035  0.0000 </r>
        <r>  0.0000  0.0025  0.0000 </r>
        <r>  0.0001  0.0044  0.0000 </r>
        <r>  0.0000  0.0024  0.0000 </r>
        <r>  0.0000  0.0044  0.0000 </r>
        <r>  0.0000  0.0016  0.0000 </r>
        <r>  0.0002  0.0071  0.0000 </r>
        <r>  0.0000  0.0025  0.0000 </r>
        <r>  0.0000  0.0027  0.0000 </r>
       </set>
       <set comment="band 274">
        <r>  0.0000  0.0000  0.0006 </r>
        <r>  0.0000  0.0000  0.0003 </r>
        <r>  0.0000  0.0000  0.0008 </r>
        <r>  0.0000  0.0000  0.0013 </r>
        <r>  0.0000  0.0000  0.0066 </r>
        <r>  0.0000  0.0000  0.0001 </r>
        <r>  0.0000  0.0000  0.0068 </r>
        <r>  0.0000  0.0000  0.0012 </r>
        <r>  0.0000  0.0000  0.0006 </r>
        <r>  0.0000  0.0003  0.0280 </r>
        <r>  0.0000  0.0003  0.0155 </r>
        <r>  0.0000  0.0003  0.0358 </r>
        <r>  0.0000  0.0002  0.0162 </r>
        <r>  0.0000  0.0002  0.0164 </r>
        <r>  0.0000  0.0002  0.0095 </r>
        <r>  0.0000  0.0001  0.0110 </r>
        <r>  0.0000  0.0001  0.0064 </r>
        <r>  0.0000  0.0000  0.0007 </r>
        <r>  0.0000  0.0003  0.0141 </r>
        <r>  0.0000  0.0003  0.0210 </r>
        <r>  0.0000  0.0003  0.0077 </r>
        <r>  0.0000  0.0001  0.0054 </r>
        <r>  0.0000  0.0002  0.0089 </r>
        <r>  0.0000  0.0003  0.0284 </r>
        <r>  0.0000  0.0003  0.0123 </r>
        <r>  0.0000  0.0003  0.0148 </r>
        <r>  0.0000  0.0036  0.0000 </r>
        <r>  0.0000  0.0046  0.0000 </r>
        <r>  0.0000  0.0028  0.0000 </r>
        <r>  0.0000  0.0043  0.0000 </r>
        <r>  0.0000  0.0001  0.0000 </r>
        <r>  0.0000  0.0046  0.0000 </r>
        <r>  0.0000  0.0023  0.0000 </r>
        <r>  0.0000  0.0055  0.0000 </r>
        <r>  0.0000  0.0014  0.0000 </r>
        <r>  0.0000  0.0007  0.0000 </r>
        <r>  0.0000  0.0001  0.0000 </r>
        <r>  0.0000  0.0007  0.0000 </r>
        <r>  0.0000  0.0001  0.0000 </r>
        <r>  0.0000  0.0000  0.0000 </r>
        <r>  0.0000  0.0001  0.0000 </r>
        <r>  0.0000  0.0004  0.0000 </r>
        <r>  0.0000  0.0001  0.0000 </r>
        <r>  0.0000  0.0004  0.0000 </r>
        <r>  0.0000  0.0011  0.0000 </r>
        <r>  0.0000  0.0038  0.0000 </r>
        <r>  0.0000  0.0014  0.0000 </r>
        <r>  0.0000  0.0035  0.0000 </r>
        <r>  0.0000  0.0000  0.0000 </r>
        <r>  0.0000  0.0038  0.0000 </r>
        <r>  0.0000  0.0021  0.0000 </r>
        <r>  0.0000  0.0043  0.0000 </r>
        <r>  0.0000  0.0026  0.0000 </r>
       </set>
       <set comment="band 275">
        <r>  0.0000  0.0000  0.0002 </r>
        <r>  0.0000  0.0000  0.0005 </r>
        <r>  0.0000  0.0001  0.0013 </r>
        <r>  0.0000  0.0002  0.0065 </r>
        <r>  0.0000  0.0003  0.0299 </r>
        <r>  0.0000  0.0001  0.0005 </r>
        <r>  0.0000  0.0002  0.0284 </r>
        <r>  0.0000  0.0003  0.0114 </r>
        <r>  0.0000  0.0001  0.0004 </r>
        <r>  0.0000  0.0000  0.0010 </r>
        <r>  0.0000  0.0001  0.0107 </r>
        <r>  0.0000  0.0002  0.0038 </r>
        <r>  0.0000  0.0002  0.0048 </r>
        <r>  0.0000  0.0003  0.0126 </r>
        <r>  0.0000  0.0001  0.0270 </r>
        <r>  0.0000  0.0003  0.0213 </r>
        <r>  0.0000  0.0003  0.0138 </r>
        <r>  0.0000  0.0000  0.0024 </r>
        <r>  0.0000  0.0001  0.0067 </r>
        <r>  0.0000  0.0001  0.0013 </r>
        <r>  0.0000  0.0005  0.0297 </r>
        <r>  0.0000  0.0002  0.0100 </r>
        <r>  0.0000  0.0002  0.0129 </r>
        <r>  0.0000  0.0003  0.0151 </r>
        <r>  0.0000  0.0003  0.0115 </r>
        <r>  0.0000  0.0000  0.0055 </r>
        <r>  0.0000  0.0003  0.0000 </r>
        <r>  0.0000  0.0050  0.0000 </r>
        <r>  0.0000  0.0027  0.0000 </r>
        <r>  0.0000  0.0014  0.0000 </r>
        <r>  0.0000  0.0001  0.0000 </r>
        <r>  0.0000  0.0010  0.0000 </r>
        <r>  0.0000  0.0026  0.0000 </r>
        <r>  0.0000  0.0059  0.0000 </r>
        <r>  0.0000  0.0019  0.0000 </r>
        <r>  0.0000  0.0035  0.0000 </r>
        <r>  0.0000  0.0006  0.0000 </r>
        <r>  0.0000  0.0033  0.0000 </r>
        <r>  0.0000  0.0002  0.0000 </r>
        <r>  0.0000  0.0000  0.0000 </r>
        <r>  0.0000  0.0002  0.0000 </r>
        <r>  0.0000  0.0051  0.0000 </r>
        <r>  0.0000  0.0004  0.0000 </r>
        <r>  0.0000  0.0048  0.0000 </r>
        <r>  0.0000  0.0028  0.0000 </r>
        <r>  0.0000  0.0021  0.0000 </r>
        <r>  0.0000  0.0035  0.0000 </r>
        <r>  0.0000  0.0006  0.0000 </r>
        <r>  0.0000  0.0001  0.0000 </r>
        <r>  0.0000  0.0004  0.0000 </r>
        <r>  0.0000  0.0025  0.0000 </r>
        <r>  0.0000  0.0031  0.0000 </r>
        <r>  0.0000  0.0020  0.0000 </r>
       </set>
       <set comment="band 276">
        <r>  0.0000  0.0000  0.0003 </r>
        <r>  0.0000  0.0000  0.0001 </r>
        <r>  0.0000  0.0000  0.0002 </r>
        <r>  0.0000  0.0001  0.0245 </r>
        <r>  0.0000  0.0001  0.0209 </r>
        <r>  0.0000  0.0000  0.0001 </r>
        <r>  0.0000  0.0001  0.0157 </r>
        <r>  0.0000  0.0001  0.0267 </r>
        <r>  0.0000  0.0000  0.0000 </r>
        <r>  0.0000  0.0001  0.0130 </r>
        <r>  0.0000  0.0001  0.0312 </r>
        <r>  0.0000  0.0000  0.0162 </r>
        <r>  0.0000  0.0002  0.0059 </r>
        <r>  0.0000  0.0001  0.0099 </r>
        <r>  0.0000  0.0000  0.0105 </r>
        <r>  0.0000  0.0001  0.0028 </r>
        <r>  0.0000  0.0001  0.0099 </r>
        <r>  0.0000  0.0000  0.0006 </r>
        <r>  0.0000  0.0002  0.0255 </r>
        <r>  0.0000  0.0002  0.0178 </r>
        <r>  0.0000  0.0000  0.0090 </r>
        <r>  0.0000  0.0002  0.0071 </r>
        <r>  0.0000  0.0000  0.0037 </r>
        <r>  0.0000  0.0000  0.0144 </r>
        <r>  0.0000  0.0002  0.0051 </r>
        <r>  0.0000  0.0001  0.0072 </r>
        <r>  0.0000  0.0010  0.0000 </r>
        <r>  0.0000  0.0005  0.0000 </r>
        <r>  0.0000  0.0015  0.0000 </r>
        <r>  0.0000  0.0023  0.0000 </r>
        <r>  0.0000  0.0000  0.0000 </r>
        <r>  0.0000  0.0033  0.0000 </r>
        <r>  0.0000  0.0003  0.0000 </r>
        <r>  0.0000  0.0006  0.0000 </r>
        <r>  0.0000  0.0018  0.0000 </r>
        <r>  0.0000  0.0017  0.0000 </r>
        <r>  0.0000  0.0002  0.0000 </r>
        <r>  0.0000  0.0032  0.0000 </r>
        <r>  0.0000  0.0001  0.0000 </r>
        <r>  0.0000  0.0000  0.0000 </r>
        <r>  0.0000  0.0000  0.0000 </r>
        <r>  0.0000  0.0015  0.0000 </r>
        <r>  0.0000  0.0002  0.0000 </r>
        <r>  0.0000  0.0029  0.0000 </r>
        <r>  0.0000  0.0015  0.0000 </r>
        <r>  0.0000  0.0001  0.0000 </r>
        <r>  0.0000  0.0010  0.0000 </r>
        <r>  0.0000  0.0016  0.0000 </r>
        <r>  0.0000  0.0001  0.0000 </r>
        <r>  0.0000  0.0026  0.0000 </r>
        <r>  0.0000  0.0012  0.0000 </r>
        <r>  0.0000  0.0002  0.0000 </r>
        <r>  0.0000  0.0013  0.0000 </r>
       </set>
       <set comment="band 277">
        <r>  0.0000  0.0000  0.0006 </r>
        <r>  0.0000  0.0000  0.0004 </r>
        <r>  0.0000  0.0000  0.0002 </r>
        <r>  0.0000  0.0002  0.0267 </r>
        <r>  0.0000  0.0001  0.0136 </r>
        <r>  0.0000  0.0000  0.0001 </r>
        <r>  0.0000  0.0002  0.0170 </r>
        <r>  0.0000  0.0002  0.0340 </r>
        <r>  0.0000  0.0000  0.0001 </r>
        <r>  0.0000  0.0001  0.0264 </r>
        <r>  0.0000  0.0001  0.0148 </r>
        <r>  0.0000  0.0000  0.0087 </r>
        <r>  0.0000  0.0002  0.0090 </r>
        <r>  0.0000  0.0001  0.0033 </r>
        <r>  0.0000  0.0000  0.0178 </r>
        <r>  0.0000  0.0001  0.0061 </r>
        <r>  0.0000  0.0001  0.0089 </r>
        <r>  0.0000  0.0000  0.0011 </r>
        <r>  0.0000  0.0001  0.0155 </r>
        <r>  0.0000  0.0001  0.0240 </r>
        <r>  0.0000  0.0001  0.0129 </r>
        <r>  0.0000  0.0002  0.0079 </r>
        <r>  0.0000  0.0001  0.0050 </r>
        <r>  0.0000  0.0000  0.0111 </r>
        <r>  0.0000  0.0000  0.0024 </r>
        <r>  0.0000  0.0001  0.0106 </r>
        <r>  0.0000  0.0017  0.0000 </r>
        <r>  0.0000  0.0004  0.0000 </r>
        <r>  0.0000  0.0005  0.0000 </r>
        <r>  0.0000  0.0020  0.0000 </r>
        <r>  0.0000  0.0002  0.0000 </r>
        <r>  0.0000  0.0030  0.0000 </r>
        <r>  0.0000  0.0009  0.0000 </r>
        <r>  0.0000  0.0009  0.0000 </r>
        <r>  0.0000  0.0019  0.0000 </r>
        <r>  0.0000  0.0025  0.0000 </r>
        <r>  0.0000  0.0001  0.0000 </r>
        <r>  0.0000  0.0023  0.0000 </r>
        <r>  0.0000  0.0001  0.0000 </r>
        <r>  0.0000  0.0000  0.0000 </r>
        <r>  0.0000  0.0002  0.0000 </r>
        <r>  0.0000  0.0032  0.0000 </r>
        <r>  0.0000  0.0001  0.0000 </r>
        <r>  0.0000  0.0030  0.0000 </r>
        <r>  0.0000  0.0012  0.0000 </r>
        <r>  0.0000  0.0002  0.0000 </r>
        <r>  0.0000  0.0011  0.0000 </r>
        <r>  0.0000  0.0012  0.0000 </r>
        <r>  0.0000  0.0001  0.0000 </r>
        <r>  0.0000  0.0018  0.0000 </r>
        <r>  0.0000  0.0010  0.0000 </r>
        <r>  0.0000  0.0006  0.0000 </r>
        <r>  0.0000  0.0019  0.0000 </r>
       </set>
       <set comment="band 278">
        <r>  0.0000  0.0000  0.0016 </r>
        <r>  0.0000  0.0000  0.0014 </r>
        <r>  0.0001  0.0001  0.0022 </r>
        <r>  0.0000  0.0001  0.0209 </r>
        <r>  0.0001  0.0001  0.0182 </r>
        <r>  0.0000  0.0001  0.0018 </r>
        <r>  0.0001  0.0001  0.0171 </r>
        <r>  0.0000  0.0001  0.0150 </r>
        <r>  0.0001  0.0001  0.0013 </r>
        <r>  0.0000  0.0005  0.0101 </r>
        <r>  0.0000  0.0004  0.0115 </r>
        <r>  0.0000  0.0006  0.0048 </r>
        <r>  0.0000  0.0008  0.0120 </r>
        <r>  0.0000  0.0009  0.0119 </r>
        <r>  0.0000  0.0006  0.0048 </r>
        <r>  0.0000  0.0009  0.0109 </r>
        <r>  0.0000  0.0009  0.0100 </r>
        <r>  0.0001  0.0001  0.0020 </r>
        <r>  0.0000  0.0004  0.0149 </r>
        <r>  0.0000  0.0003  0.0159 </r>
        <r>  0.0000  0.0006  0.0073 </r>
        <r>  0.0000  0.0008  0.0115 </r>
        <r>  0.0000  0.0009  0.0109 </r>
        <r>  0.0000  0.0006  0.0066 </r>
        <r>  0.0000  0.0008  0.0126 </r>
        <r>  0.0000  0.0008  0.0110 </r>
        <r>  0.0000  0.0020  0.0000 </r>
        <r>  0.0000  0.0061  0.0000 </r>
        <r>  0.0000  0.0020  0.0000 </r>
        <r>  0.0000  0.0061  0.0000 </r>
        <r>  0.0001  0.0085  0.0000 </r>
        <r>  0.0000  0.0046  0.0000 </r>
        <r>  0.0000  0.0024  0.0000 </r>
        <r>  0.0000  0.0064  0.0000 </r>
        <r>  0.0000  0.0021  0.0000 </r>
        <r>  0.0001  0.0034  0.0000 </r>
        <r>  0.0001  0.0045  0.0000 </r>
        <r>  0.0000  0.0043  0.0000 </r>
        <r>  0.0000  0.0008  0.0000 </r>
        <r>  0.0000  0.0002  0.0000 </r>
        <r>  0.0000  0.0009  0.0000 </r>
        <r>  0.0001  0.0044  0.0000 </r>
        <r>  0.0001  0.0052  0.0000 </r>
        <r>  0.0000  0.0035  0.0000 </r>
        <r>  0.0000  0.0026  0.0000 </r>
        <r>  0.0000  0.0080  0.0000 </r>
        <r>  0.0000  0.0029  0.0000 </r>
        <r>  0.0000  0.0053  0.0000 </r>
        <r>  0.0001  0.0080  0.0000 </r>
        <r>  0.0000  0.0059  0.0000 </r>
        <r>  0.0000  0.0024  0.0000 </r>
        <r>  0.0000  0.0065  0.0000 </r>
        <r>  0.0000  0.0020  0.0000 </r>
       </set>
       <set comment="band 279">
        <r>  0.0000  0.0000  0.0003 </r>
        <r>  0.0000  0.0000  0.0003 </r>
        <r>  0.0000  0.0000  0.0031 </r>
        <r>  0.0000  0.0016  0.0126 </r>
        <r>  0.0000  0.0017  0.0085 </r>
        <r>  0.0000  0.0000  0.0028 </r>
        <r>  0.0000  0.0016  0.0130 </r>
        <r>  0.0000  0.0017  0.0085 </r>
        <r>  0.0000  0.0000  0.0046 </r>
        <r>  0.0000  0.0011  0.0135 </r>
        <r>  0.0000  0.0012  0.0099 </r>
        <r>  0.0000  0.0001  0.0121 </r>
        <r>  0.0000  0.0006  0.0114 </r>
        <r>  0.0000  0.0005  0.0149 </r>
        <r>  0.0000  0.0001  0.0121 </r>
        <r>  0.0000  0.0004  0.0151 </r>
        <r>  0.0000  0.0007  0.0112 </r>
        <r>  0.0000  0.0000  0.0049 </r>
        <r>  0.0000  0.0011  0.0119 </r>
        <r>  0.0000  0.0012  0.0078 </r>
        <r>  0.0000  0.0000  0.0111 </r>
        <r>  0.0000  0.0005  0.0160 </r>
        <r>  0.0000  0.0008  0.0122 </r>
        <r>  0.0000  0.0001  0.0116 </r>
        <r>  0.0000  0.0007  0.0112 </r>
        <r>  0.0000  0.0005  0.0146 </r>
        <r>  0.0000  0.0030  0.0000 </r>
        <r>  0.0000  0.0005  0.0000 </r>
        <r>  0.0000  0.0033  0.0000 </r>
        <r>  0.0000  0.0060  0.0000 </r>
        <r>  0.0000  0.0003  0.0000 </r>
        <r>  0.0000  0.0047  0.0000 </r>
        <r>  0.0000  0.0038  0.0000 </r>
        <r>  0.0000  0.0004  0.0000 </r>
        <r>  0.0000  0.0027  0.0000 </r>
        <r>  0.0000  0.0079  0.0000 </r>
        <r>  0.0000  0.0002  0.0000 </r>
        <r>  0.0000  0.0070  0.0000 </r>
        <r>  0.0000  0.0004  0.0000 </r>
        <r>  0.0000  0.0000  0.0000 </r>
        <r>  0.0000  0.0004  0.0000 </r>
        <r>  0.0000  0.0083  0.0000 </r>
        <r>  0.0000  0.0002  0.0000 </r>
        <r>  0.0000  0.0073  0.0000 </r>
        <r>  0.0000  0.0038  0.0000 </r>
        <r>  0.0000  0.0007  0.0000 </r>
        <r>  0.0000  0.0022  0.0000 </r>
        <r>  0.0000  0.0053  0.0000 </r>
        <r>  0.0000  0.0003  0.0000 </r>
        <r>  0.0000  0.0047  0.0000 </r>
        <r>  0.0000  0.0028  0.0000 </r>
        <r>  0.0000  0.0005  0.0000 </r>
        <r>  0.0000  0.0029  0.0000 </r>
       </set>
       <set comment="band 280">
        <r>  0.0000  0.0003  0.0015 </r>
        <r>  0.0000  0.0001  0.0009 </r>
        <r>  0.0000  0.0001  0.0028 </r>
        <r>  0.0000  0.0004  0.0198 </r>
        <r>  0.0000  0.0003  0.0142 </r>
        <r>  0.0000  0.0005  0.0094 </r>
        <r>  0.0000  0.0003  0.0219 </r>
        <r>  0.0000  0.0003  0.0192 </r>
        <r>  0.0000  0.0005  0.0104 </r>
        <r>  0.0000  0.0002  0.0278 </r>
        <r>  0.0000  0.0002  0.0165 </r>
        <r>  0.0000  0.0004  0.0073 </r>
        <r>  0.0000  0.0002  0.0116 </r>
        <r>  0.0000  0.0004  0.0062 </r>
        <r>  0.0000  0.0003  0.0077 </r>
        <r>  0.0000  0.0003  0.0014 </r>
        <r>  0.0000  0.0001  0.0076 </r>
        <r>  0.0000  0.0001  0.0022 </r>
        <r>  0.0000  0.0000  0.0153 </r>
        <r>  0.0000  0.0003  0.0170 </r>
        <r>  0.0000  0.0004  0.0041 </r>
        <r>  0.0000  0.0003  0.0031 </r>
        <r>  0.0000  0.0002  0.0074 </r>
        <r>  0.0000  0.0005  0.0112 </r>
        <r>  0.0000  0.0001  0.0062 </r>
        <r>  0.0000  0.0004  0.0066 </r>
        <r>  0.0000  0.0031  0.0000 </r>
        <r>  0.0000  0.0064  0.0000 </r>
        <r>  0.0000  0.0010  0.0000 </r>
        <r>  0.0000  0.0030  0.0000 </r>
        <r>  0.0000  0.0036  0.0000 </r>
        <r>  0.0000  0.0008  0.0000 </r>
        <r>  0.0000  0.0019  0.0000 </r>
        <r>  0.0000  0.0045  0.0000 </r>
        <r>  0.0000  0.0017  0.0000 </r>
        <r>  0.0000  0.0036  0.0000 </r>
        <r>  0.0000  0.0090  0.0000 </r>
        <r>  0.0000  0.0035  0.0000 </r>
        <r>  0.0000  0.0020  0.0000 </r>
        <r>  0.0000  0.0045  0.0000 </r>
        <r>  0.0000  0.0042  0.0000 </r>
        <r>  0.0000  0.0033  0.0000 </r>
        <r>  0.0000  0.0033  0.0000 </r>
        <r>  0.0000  0.0042  0.0000 </r>
        <r>  0.0000  0.0007  0.0000 </r>
        <r>  0.0000  0.0032  0.0000 </r>
        <r>  0.0000  0.0015  0.0000 </r>
        <r>  0.0000  0.0047  0.0000 </r>
        <r>  0.0000  0.0081  0.0000 </r>
        <r>  0.0000  0.0036  0.0000 </r>
        <r>  0.0000  0.0025  0.0000 </r>
        <r>  0.0000  0.0048  0.0000 </r>
        <r>  0.0000  0.0020  0.0000 </r>
       </set>
      </set>
     </set>
    </set>
   </array>
  </projected>
 </calculation>
 <structure name="finalpos" >
  <crystal>
   <varray name="basis" >
    <v>      12.22634592       0.00000000       0.00000000 </v>
    <v>       0.00000000      12.22634592       0.00000000 </v>
    <v>       0.00000000       0.00000000      12.22634592 </v>
   </varray>
   <i name="volume">   1827.63740156 </i>
   <varray name="rec_basis" >
    <v>       0.08179059       0.00000000       0.00000000 </v>
    <v>       0.00000000       0.08179059       0.00000000 </v>
    <v>       0.00000000       0.00000000       0.08179059 </v>
   </varray>
  </crystal>
  <varray name="positions" >
   <v>       0.99987152       0.99958614       0.31646015 </v>
   <v>       0.00002127       0.00005947       0.68400772 </v>
   <v>       0.99975732       0.31583754       0.00015934 </v>
   <v>       0.99984692       0.33334133       0.33408921 </v>
   <v>       0.99985887       0.33396307       0.66600220 </v>
   <v>       0.99993827       0.68245041       0.99998745 </v>
   <v>       0.99991257       0.66579834       0.33383351 </v>
   <v>       0.00017784       0.66604074       0.66592684 </v>
   <v>       0.31943205       0.99992692       0.99990403 </v>
   <v>       0.33301381       0.99990253       0.33386017 </v>
   <v>       0.33321047       0.99996505       0.66621168 </v>
   <v>       0.33316585       0.33376636       0.00020139 </v>
   <v>       0.33367618       0.33403427       0.33435512 </v>
   <v>       0.33370873       0.33406150       0.66589986 </v>
   <v>       0.33287221       0.66606315       0.99986233 </v>
   <v>       0.33387537       0.66591636       0.33398612 </v>
   <v>       0.33398666       0.66578338       0.66564047 </v>
   <v>       0.68287301       0.99984607       0.00030961 </v>
   <v>       0.66618891       0.99953838       0.33423996 </v>
   <v>       0.66656625       0.99993301       0.66650416 </v>
   <v>       0.66617754       0.33378935       0.99996358 </v>
   <v>       0.66567067       0.33373862       0.33455868 </v>
   <v>       0.66561262       0.33427801       0.66532574 </v>
   <v>       0.66511822       0.66601044       0.99999246 </v>
   <v>       0.66582139       0.66512000       0.33473753 </v>
   <v>       0.66591239       0.66573981       0.66577178 </v>
   <v>       0.17308342       0.17230423       0.17252286 </v>
   <v>       0.16607659       0.16607353       0.50039803 </v>
   <v>       0.17329860       0.17243484       0.82775101 </v>
   <v>       0.16603072       0.49966938       0.16659903 </v>
   <v>       0.16644155       0.49982794       0.49986913 </v>
   <v>       0.16601883       0.49978787       0.83355602 </v>
   <v>       0.17295332       0.82726902       0.17196726 </v>
   <v>       0.16621632       0.83334166       0.49955673 </v>
   <v>       0.17316048       0.82723785       0.82752223 </v>
   <v>       0.49979167       0.16657857       0.16684077 </v>
   <v>       0.49945253       0.16625483       0.50009610 </v>
   <v>       0.50001202       0.16660610       0.83351773 </v>
   <v>       0.49907635       0.49976975       0.16674266 </v>
   <v>       0.49970237       0.49986044       0.50000131 </v>
   <v>       0.49909165       0.49968097       0.83337292 </v>
   <v>       0.49999250       0.83343441       0.16668397 </v>
   <v>       0.49942197       0.83344826       0.50019772 </v>
   <v>       0.50039119       0.83360420       0.83353108 </v>
   <v>       0.82736522       0.17273196       0.17327187 </v>
   <v>       0.83302129       0.16591081       0.49989775 </v>
   <v>       0.82692650       0.17312210       0.82711732 </v>
   <v>       0.83239831       0.49846292       0.16686063 </v>
   <v>       0.83341035       0.49998596       0.49994862 </v>
   <v>       0.83227454       0.49971855       0.83322862 </v>
   <v>       0.82682062       0.82613282       0.17317194 </v>
   <v>       0.83294055       0.83322821       0.50042402 </v>
   <v>       0.82783079       0.82619136       0.82700613 </v>
  </varray>
 </structure>
</modeling>
