 running    2 mpi-ranks, on    1 nodes
 distrk:  each k-point on    2 cores,    1 groups
 distr:  one band on    1 cores,    2 groups
 Offloading initialized ...    2 GPUs detected
 vasp.6.5.1 10Mar25 (build May 13 2025 11:33:44) complex                         
 POSCAR found type information on POSCAR CsCl
 POSCAR found :  2 types and      53 ions
 -----------------------------------------------------------------------------
|                                                                             |
|           W    W    AA    RRRRR   N    N  II  N    N   GGGG   !!!           |
|           W    W   A  A   R    R  NN   N  II  NN   N  G    G  !!!           |
|           W    W  A    A  R    R  N N  N  II  N N  N  G       !!!           |
|           W WW W  AAAAAA  RRRRR   N  N N  II  N  N N  G  GGG   !            |
|           WW  WW  A    A  R   R   N   NN  II  N   NN  G    G                |
|           W    W  A    A  R    R  N    N  II  N    N   GGGG   !!!           |
|                                                                             |
|     You requested a magnetic or noncollinear calculation, but did not       |
|     specify the initial magnetic moment with the MAGMOM tag. Note that      |
|     a default of 1 will be used for all atoms. This ferromagnetic setup     |
|     may break the symmetry of the crystal, in particular it may rule        |
|     out finding an antiferromagnetic solution. Thence, we recommend         |
|     setting the initial magnetic moment manually or verifying carefully     |
|     that this magnetic setup is desired.                                    |
|                                                                             |
 -----------------------------------------------------------------------------

 scaLAPACK will be used selectively (only on CPU)
 -----------------------------------------------------------------------------
|                                                                             |
|               ----> ADVICE to this user running VASP <----                  |
|                                                                             |
|     You enforced a specific xc type in the INCAR file but a different       |
|     type was found in the POTCAR file.                                      |
|     I HOPE YOU KNOW WHAT YOU ARE DOING!                                     |
|                                                                             |
 -----------------------------------------------------------------------------

 LDA part: xc-table for (Slater+PW92), standard interpolation
 POSCAR, INCAR and KPOINTS ok, starting setup
 FFT: planning ... GRIDC
 FFT: planning ... GRID_SOFT
 FFT: planning ... GRID
 WAVECAR not read
 entering main loop
       N       E                     dE             d eps       ncg     rms          rms(c)
DAV:   1     0.232526743639E+04    0.23253E+04   -0.12205E+05  1136   0.747E+02
DAV:   2     0.337496326625E+02   -0.22915E+04   -0.22193E+04  1392   0.197E+02
DAV:   3    -0.173735286543E+03   -0.20748E+03   -0.20602E+03  1344   0.667E+01
DAV:   4    -0.177192415516E+03   -0.34571E+01   -0.34484E+01  1328   0.100E+01
DAV:   5    -0.177271302179E+03   -0.78887E-01   -0.78837E-01  1312   0.138E+00BRMIX: very serious problems
 the old and the new charge density differ
 old charge density:   423.00000 new  422.00003
    0.245E+01
DAV:   6    -0.172127342601E+03    0.51440E+01   -0.28226E+01  1240   0.653E+00    0.137E+01
DAV:   7    -0.174717392685E+03   -0.25901E+01   -0.65288E+00  1296   0.374E+00    0.980E+00
DAV:   8    -0.176644331810E+03   -0.19269E+01   -0.19601E+00  1304   0.208E+00    0.585E+00
DAV:   9    -0.178242270726E+03   -0.15979E+01   -0.15373E+00  1288   0.184E+00    0.383E+00
DAV:  10    -0.178460076197E+03   -0.21781E+00   -0.26116E+00  1424   0.115E+00    0.213E+00
DAV:  11    -0.178546309130E+03   -0.86233E-01   -0.31745E-01  1320   0.705E-01    0.140E+00
DAV:  12    -0.178544927776E+03    0.13814E-02   -0.59654E-02  1352   0.386E-01    0.878E-01
DAV:  13    -0.178555474993E+03   -0.10547E-01   -0.30777E-02  1384   0.304E-01    0.626E-01
DAV:  14    -0.178566632563E+03   -0.11158E-01   -0.26641E-02  1400   0.236E-01    0.601E-01
DAV:  15    -0.178568452321E+03   -0.18198E-02   -0.68988E-03  1256   0.134E-01    0.405E-01
DAV:  16    -0.178569046310E+03   -0.59399E-03   -0.52211E-03  1368   0.851E-02    0.203E-01
DAV:  17    -0.178570039094E+03   -0.99278E-03   -0.26683E-03  1288   0.691E-02    0.119E-01
DAV:  18    -0.178570248652E+03   -0.20956E-03   -0.58666E-04  1296   0.410E-02    0.988E-02
DAV:  19    -0.178570240853E+03    0.77985E-05   -0.19768E-04  1240   0.269E-02    0.560E-02
DAV:  20    -0.178570249856E+03   -0.90026E-05   -0.99454E-05  1088   0.133E-02
   1 F= -.17857025E+03 E0= -.17847130E+03  d E =-.178570E+03  mag=     1.2040
 curvature:   0.00 expect dE= 0.000E+00 dE for cont linesearch  0.000E+00
 trial: gam= 0.00000 g(F)=  0.641E-01 g(S)=  0.000E+00 ort = 0.000E+00 (trialstep = 0.100E+01)
 search vector abs. value=  0.641E-01
 bond charge predicted
       N       E                     dE             d eps       ncg     rms          rms(c)
DAV:   1    -0.178615062986E+03   -0.44822E-01   -0.54648E+00  1136   0.297E+00    0.868E-01
DAV:   2    -0.178632411974E+03   -0.17349E-01   -0.19278E-01  1224   0.578E-01    0.410E-01
DAV:   3    -0.178631927057E+03    0.48492E-03   -0.33068E-03  1352   0.107E-01    0.303E-01
DAV:   4    -0.178631536923E+03    0.39013E-03   -0.54234E-04  1320   0.467E-02    0.220E-01
DAV:   5    -0.178631338919E+03    0.19800E-03   -0.44692E-04  1288   0.287E-02    0.172E-01
DAV:   6    -0.178631236547E+03    0.10237E-03   -0.39782E-04  1312   0.301E-02    0.998E-02
DAV:   7    -0.178631237231E+03   -0.68468E-06   -0.10423E-04  1328   0.158E-02    0.555E-02
DAV:   8    -0.178631234588E+03    0.26437E-05   -0.39156E-05  1016   0.112E-02
   2 F= -.17863123E+03 E0= -.17853159E+03  d E =-.609847E-01  mag=     1.0901
 ZBRENT: can't locate minimum, use default step
 trial-energy change:   -0.060985  1 .order   -0.061061   -0.064147   -0.057976
 step:   4.0000(harm= 10.3950)  dis= 0.08421  next Energy=  -178.903654 (dE=-0.333E+00)
 bond charge predicted
       N       E                     dE             d eps       ncg     rms          rms(c)
DAV:   1    -0.178626831617E+03    0.44056E-02   -0.49103E+01  1120   0.885E+00    0.269E+00
DAV:   2    -0.178788002294E+03   -0.16117E+00   -0.17872E+00  1216   0.175E+00    0.125E+00
DAV:   3    -0.178783636208E+03    0.43661E-02   -0.30952E-02  1352   0.312E-01    0.912E-01
DAV:   4    -0.178779879407E+03    0.37568E-02   -0.52517E-03  1312   0.135E-01    0.692E-01
DAV:   5    -0.178778212392E+03    0.16670E-02   -0.37040E-03  1320   0.835E-02    0.552E-01
DAV:   6    -0.178777102936E+03    0.11095E-02   -0.36499E-03  1304   0.923E-02    0.335E-01
DAV:   7    -0.178777102544E+03    0.39261E-06   -0.10540E-03  1344   0.496E-02    0.186E-01
DAV:   8    -0.178777093795E+03    0.87487E-05   -0.29630E-04  1288   0.335E-02    0.109E-01
DAV:   9    -0.178777102716E+03   -0.89213E-05   -0.25071E-04  1240   0.277E-02    0.509E-02
DAV:  10    -0.178777121683E+03   -0.18967E-04   -0.93660E-05  1224   0.165E-02    0.257E-02
DAV:  11    -0.178777127989E+03   -0.63061E-05   -0.23149E-05   944   0.811E-03
   3 F= -.17877713E+03 E0= -.17867646E+03  d E =-.206878E+00  mag=     0.7095
 curvature:  -2.79 expect dE=-0.752E-01 dE for cont linesearch -0.707E-01
 ZBRENT: increasing intervall
 opt :  10.0000  next Energy=  -178.913071 (dE=-0.343E+00)
 bond charge predicted
       N       E                     dE             d eps       ncg     rms          rms(c)
DAV:   1    -0.178256840121E+03    0.52028E+00   -0.19557E+02  1120   0.175E+01    0.616E+00
DAV:   2    -0.178975744757E+03   -0.71890E+00   -0.79810E+00  1224   0.355E+00    0.268E+00
DAV:   3    -0.178951272048E+03    0.24473E-01   -0.11360E-01  1360   0.622E-01    0.187E+00
DAV:   4    -0.178940635567E+03    0.10636E-01   -0.19325E-02  1328   0.244E-01    0.155E+00
DAV:   5    -0.178932901762E+03    0.77338E-02   -0.15299E-02  1336   0.181E-01    0.119E+00
DAV:   6    -0.178928821691E+03    0.40801E-02   -0.11558E-02  1320   0.173E-01    0.706E-01
DAV:   7    -0.178928701393E+03    0.12030E-03   -0.32006E-03  1352   0.925E-02    0.392E-01
DAV:   8    -0.178928578380E+03    0.12301E-03   -0.11685E-03  1328   0.672E-02    0.205E-01
DAV:   9    -0.178928592920E+03   -0.14540E-04   -0.92721E-04  1344   0.551E-02    0.727E-02
DAV:  10    -0.178928654113E+03   -0.61193E-04   -0.32434E-04  1296   0.284E-02    0.482E-02
DAV:  11    -0.178928663538E+03   -0.94246E-05   -0.66056E-05  1312   0.131E-02
   4 F= -.17892866E+03 E0= -.17883095E+03  d E =-.358414E+00  mag=     0.0957
 curvature:  -5.36 expect dE=-0.473E-01 dE for cont linesearch -0.829E-02
 ZBRENT: extrapolating
 opt :  11.9672  next Energy=  -178.938455 (dE=-0.368E+00)
 bond charge predicted
       N       E                     dE             d eps       ncg     rms          rms(c)
DAV:   1    -0.178875440113E+03    0.53214E-01   -0.21315E+01  1120   0.571E+00    0.171E+00
DAV:   2    -0.178943364331E+03   -0.67924E-01   -0.75093E-01  1216   0.112E+00    0.771E-01
DAV:   3    -0.178940600180E+03    0.27642E-02   -0.10478E-02  1360   0.207E-01    0.525E-01
DAV:   4    -0.178939416199E+03    0.11840E-02   -0.17587E-03  1328   0.831E-02    0.415E-01
DAV:   5    -0.178938452978E+03    0.96322E-03   -0.26287E-03  1312   0.748E-02    0.301E-01
DAV:   6    -0.178938204793E+03    0.24819E-03   -0.11532E-03  1344   0.549E-02    0.160E-01
DAV:   7    -0.178938237553E+03   -0.32760E-04   -0.20438E-04  1312   0.254E-02    0.939E-02
DAV:   8    -0.178938211691E+03    0.25862E-04   -0.10308E-04  1184   0.220E-02    0.427E-02
DAV:   9    -0.178938212474E+03   -0.78284E-06   -0.10512E-04  1304   0.169E-02    0.176E-02
DAV:  10    -0.178938210998E+03    0.14760E-05   -0.20902E-05   944   0.758E-03
   5 F= -.17893821E+03 E0= -.17884184E+03  d E =-.367961E+00  mag=     0.0080
 curvature:  -6.34 expect dE=-0.624E-01 dE for cont linesearch -0.406E-05
 trial: gam= 0.15670 g(F)=  0.985E-02 g(S)=  0.000E+00 ort =-0.203E-03 (trialstep = 0.319E+01)
 search vector abs. value=  0.114E-01
 bond charge predicted
       N       E                     dE             d eps       ncg     rms          rms(c)
DAV:   1    -0.178934908654E+03    0.33038E-02   -0.95721E+00  1136   0.419E+00    0.108E+00
DAV:   2    -0.178966211947E+03   -0.31303E-01   -0.35223E-01  1232   0.831E-01    0.513E-01
DAV:   3    -0.178965217743E+03    0.99420E-03   -0.35148E-03  1376   0.106E-01    0.339E-01
DAV:   4    -0.178964936265E+03    0.28148E-03   -0.48464E-04  1360   0.385E-02    0.274E-01
DAV:   5    -0.178964523942E+03    0.41232E-03   -0.10642E-03  1320   0.549E-02    0.173E-01
DAV:   6    -0.178964508226E+03    0.15716E-04   -0.37277E-04  1344   0.281E-02    0.805E-02
DAV:   7    -0.178964506324E+03    0.19027E-05   -0.43683E-05  1136   0.138E-02
   6 F= -.17896451E+03 E0= -.17886847E+03  d E =-.262953E-01  mag=     0.0013
 trial-energy change:   -0.026295  1 .order   -0.026462   -0.031351   -0.021573
 step:  10.2389(harm= 10.2389)  dis= 0.06947  next Energy=  -178.988470 (dE=-0.503E-01)
 bond charge predicted
       N       E                     dE             d eps       ncg     rms          rms(c)
DAV:   1    -0.178839600098E+03    0.12491E+00   -0.46509E+01  1120   0.921E+00    0.241E+00
DAV:   2    -0.178995453115E+03   -0.15585E+00   -0.17571E+00  1224   0.184E+00    0.114E+00
DAV:   3    -0.178990186427E+03    0.52667E-02   -0.17856E-02  1360   0.245E-01    0.763E-01
DAV:   4    -0.178988833968E+03    0.13525E-02   -0.28691E-03  1360   0.875E-02    0.610E-01
DAV:   5    -0.178986839880E+03    0.19941E-02   -0.42190E-03  1320   0.109E-01    0.400E-01
DAV:   6    -0.178986610116E+03    0.22976E-03   -0.20220E-03  1344   0.693E-02    0.190E-01
DAV:   7    -0.178986626859E+03   -0.16743E-04   -0.27254E-04  1320   0.276E-02    0.925E-02
DAV:   8    -0.178986615771E+03    0.11088E-04   -0.13235E-04  1232   0.236E-02    0.254E-02
DAV:   9    -0.178986618989E+03   -0.32178E-05   -0.38326E-05  1176   0.113E-02
   7 F= -.17898662E+03 E0= -.17889055E+03  d E =-.484080E-01  mag=     0.0001
 curvature:  -5.92 expect dE=-0.712E-02 dE for cont linesearch -0.544E-04
 ZBRENT: interpolating
 opt :   9.9173  next Energy=  -178.986671 (dE=-0.485E-01)
 bond charge predicted
       N       E                     dE             d eps       ncg     rms          rms(c)
DAV:   1    -0.178986385940E+03    0.22983E-03   -0.96571E-02  1184   0.416E-01    0.104E-01
DAV:   2    -0.178986699855E+03   -0.31391E-03   -0.35199E-03  1216   0.831E-02    0.550E-02
DAV:   3    -0.178986689732E+03    0.10123E-04   -0.38644E-05  1216   0.116E-02    0.373E-02
DAV:   4    -0.178986687100E+03    0.26320E-05   -0.57110E-06   752   0.426E-03
   8 F= -.17898669E+03 E0= -.17889066E+03  d E =-.484761E-01  mag=     0.0000
 curvature:  -5.65 expect dE=-0.640E-02 dE for cont linesearch -0.519E-05
 trial: gam= 0.11758 g(F)=  0.113E-02 g(S)=  0.000E+00 ort =-0.102E-03 (trialstep = 0.454E+01)
 search vector abs. value=  0.126E-02
 bond charge predicted
       N       E                     dE             d eps       ncg     rms          rms(c)
DAV:   1    -0.178983362788E+03    0.33269E-02   -0.22090E+00  1152   0.209E+00    0.604E-01
DAV:   2    -0.178991062404E+03   -0.76996E-02   -0.86483E-02  1232   0.422E-01    0.268E-01
DAV:   3    -0.178990761988E+03    0.30042E-03   -0.93798E-04  1360   0.555E-02    0.177E-01
DAV:   4    -0.178990686756E+03    0.75232E-04   -0.14300E-04  1360   0.191E-02    0.140E-01
DAV:   5    -0.178990573186E+03    0.11357E-03   -0.30214E-04  1264   0.274E-02    0.881E-02
DAV:   6    -0.178990570786E+03    0.24001E-05   -0.78021E-05  1344   0.127E-02
   9 F= -.17899057E+03 E0= -.17889494E+03  d E =-.388369E-02  mag=     0.0000
 trial-energy change:   -0.003884  1 .order   -0.003876   -0.005081   -0.002670
 step:   9.5647(harm=  9.5647)  dis= 0.01945  next Energy=  -178.992042 (dE=-0.535E-02)
 reached required accuracy - stopping structural energy minimisation
