       N       E                     dE             d eps       ncg     rms           ort
DAV:   1    -0.228255111485E+05   -0.22826E+05   -0.34058E+05  2520   0.216E+03  
DAV:   2    -0.332353203179E+05   -0.10410E+05   -0.97021E+04  2520   0.545E+02  
DAV:   3    -0.357258841396E+05   -0.24906E+04   -0.23756E+04  2520   0.225E+02  
DAV:   4    -0.359363621288E+05   -0.21048E+03   -0.20638E+03  2520   0.692E+01  
DAV:   5    -0.762391049752E+03    0.35174E+05   -0.39108E+02  2520   0.882E+01  
SDA:   6    -0.441538207950E+03    0.32085E+03   -0.39108E+02  2520   0.104E+04   0.000E+00
CGA:   7    -0.642023845127E+03   -0.20049E+03   -0.20025E+03  2520   0.573E+02  -0.120E+02
CGA:   8    -0.664563031806E+03   -0.22539E+02   -0.22753E+02  2520   0.214E+02  -0.127E+01
CGA:   9    -0.671696811713E+03   -0.71338E+01   -0.71455E+01  2520   0.648E+01  -0.108E+00
CGA:  10    -0.673419359044E+03   -0.17225E+01   -0.17194E+01  2520   0.126E+01   0.532E-01
CGA:  11    -0.673811753152E+03   -0.39239E+00   -0.39304E+00  2520   0.337E+00  -0.662E-02
CGA:  12    -0.673901275608E+03   -0.89522E-01   -0.88984E-01  2520   0.132E+00   0.137E-01
CGA:  13    -0.673937809310E+03   -0.36534E-01   -0.36540E-01  2520   0.514E-01  -0.141E-03
CGA:  14    -0.673958261175E+03   -0.20452E-01   -0.20235E-01  2520   0.278E-01   0.126E-02
CGA:  15    -0.673969876650E+03   -0.11615E-01   -0.11625E-01  2520   0.194E-01  -0.485E-04
CGA:  16    -0.673976977314E+03   -0.71007E-02   -0.71039E-02  2520   0.126E-01  -0.277E-04
CGA:  17    -0.673981681699E+03   -0.47044E-02   -0.47015E-02  2520   0.785E-02   0.120E-04
CGA:  18    -0.673985150619E+03   -0.34689E-02   -0.34812E-02  2520   0.629E-02  -0.812E-04
CGA:  19    -0.673988362020E+03   -0.32114E-02   -0.32517E-02  2520   0.666E-02  -0.169E-03
CGA:  20    -0.673991243239E+03   -0.28812E-02   -0.29353E-02  2520   0.600E-02  -0.336E-03
CGA:  21    -0.673993625890E+03   -0.23827E-02   -0.23573E-02  2520   0.482E-02   0.260E-03
CGA:  22    -0.673995758375E+03   -0.21325E-02   -0.22758E-02  2520   0.849E-02  -0.117E-02
CGA:  23    -0.673997634049E+03   -0.18757E-02   -0.18454E-02  2520   0.231E-01  -0.182E-03
SDA:  24    -0.674006753979E+03   -0.91199E-02   -0.66636E-02  2520   0.484E-01  -0.111E-01
CGA:  25    -0.674020635428E+03   -0.13881E-01   -0.13832E-01  2520   0.164E-01  -0.218E-03
CGA:  26    -0.674028861688E+03   -0.82263E-02   -0.82508E-02  2520   0.129E-01  -0.131E-03
CGA:  27    -0.674035316023E+03   -0.64543E-02   -0.64108E-02  2520   0.133E-01   0.213E-03
CGA:  28    -0.674041322936E+03   -0.60069E-02   -0.60860E-02  2520   0.127E-01  -0.683E-03
CGA:  29    -0.674046578500E+03   -0.52556E-02   -0.52215E-02  2520   0.862E-02   0.378E-03
CGA:  30    -0.674049959816E+03   -0.33813E-02   -0.33825E-02  2520   0.520E-02   0.178E-03
CGA:  31    -0.674052051576E+03   -0.20918E-02   -0.20921E-02  2520   0.296E-02  -0.891E-05
CGA:  32    -0.674053332507E+03   -0.12809E-02   -0.12807E-02  2520   0.186E-02   0.442E-05
CGA:  33    -0.674054123669E+03   -0.79116E-03   -0.79126E-03  2520   0.119E-02  -0.383E-05
CGA:  34    -0.674054619704E+03   -0.49604E-03   -0.49638E-03  2520   0.710E-03  -0.115E-04
CGA:  35    -0.674054921774E+03   -0.30207E-03   -0.30232E-03  2520   0.485E-03  -0.725E-05
CGA:  36    -0.674055127745E+03   -0.20597E-03   -0.20602E-03  2520   0.402E-03  -0.181E-05
CGA:  37    -0.674055318482E+03   -0.19074E-03   -0.19058E-03  2520   0.391E-03   0.201E-05
CGA:  38    -0.674055490600E+03   -0.17212E-03   -0.17202E-03  2520   0.350E-03   0.338E-05
CGA:  39    -0.674055633925E+03   -0.14332E-03   -0.14335E-03  2520   0.258E-03   0.356E-05
CGA:  40    -0.674055731871E+03   -0.97946E-04   -0.98027E-04  2520   0.172E-03   0.218E-05
CGA:  41    -0.674055798778E+03   -0.66906E-04   -0.66885E-04  2520   0.128E-03  -0.961E-06
CGA:  42    -0.674055849980E+03   -0.51203E-04   -0.51195E-04  2520   0.103E-03  -0.294E-05
CGA:  43    -0.674055891771E+03   -0.41790E-04   -0.41816E-04  2520   0.746E-04  -0.231E-05
CGA:  44    -0.674055920276E+03   -0.28505E-04   -0.28501E-04  2520   0.486E-04  -0.235E-06
CGA:  45    -0.674055937506E+03   -0.17230E-04   -0.17257E-04  2520   0.297E-04   0.551E-06
CGA:  46    -0.674055947740E+03   -0.10234E-04   -0.10288E-04  2520   0.171E-04   0.927E-06
CGA:  47    -0.674055953862E+03   -0.61221E-05   -0.61698E-05  2520   0.102E-04   0.106E-05
   1 F= -.67405595E+03 E0= -.67405588E+03  d E =-.674056E+03  mag=     0.9998
       N       E                     dE             d eps       ncg     rms           ort
SDA:   1    -0.602748475865E+03    0.71307E+02    0.00000E+00  2520   0.187E+03   0.000E+00
CGA:   2    -0.659499045360E+03   -0.56751E+02   -0.58201E+02  2520   0.499E+02   0.524E+01
CGA:   3    -0.672584979930E+03   -0.13086E+02   -0.12563E+02  2520   0.745E+01   0.171E+01
CGA:   4    -0.674567856393E+03   -0.19829E+01   -0.19868E+01  2520   0.170E+01   0.183E-01
CGA:   5    -0.675017267774E+03   -0.44941E+00   -0.45206E+00  2520   0.422E+00   0.964E-02
CGA:   6    -0.675163440318E+03   -0.14617E+00   -0.14617E+00  2520   0.172E+00  -0.695E-03
CGA:   7    -0.675219654246E+03   -0.56214E-01   -0.56239E-01  2520   0.558E-01   0.666E-03
CGA:   8    -0.675237756451E+03   -0.18102E-01   -0.18116E-01  2520   0.159E-01   0.313E-03
CGA:   9    -0.675242272085E+03   -0.45156E-02   -0.45159E-02  2520   0.391E-02   0.155E-04
CGA:  10    -0.675243565576E+03   -0.12935E-02   -0.12936E-02  2520   0.162E-02   0.178E-05
CGA:  11    -0.675244113730E+03   -0.54815E-03   -0.54816E-03  2520   0.106E-02  -0.262E-05
CGA:  12    -0.675244524595E+03   -0.41086E-03   -0.41121E-03  2520   0.763E-03  -0.665E-05
CGA:  13    -0.675244847497E+03   -0.32290E-03   -0.32331E-03  2520   0.640E-03  -0.510E-05
CGA:  14    -0.675245114242E+03   -0.26674E-03   -0.26671E-03  2520   0.649E-03   0.551E-06
CGA:  15    -0.675245409689E+03   -0.29545E-03   -0.29533E-03  2520   0.696E-03   0.149E-05
CGA:  16    -0.675245722404E+03   -0.31271E-03   -0.31257E-03  2520   0.740E-03   0.230E-05
CGA:  17    -0.675246015693E+03   -0.29329E-03   -0.29321E-03  2520   0.614E-03   0.474E-05
CGA:  18    -0.675246239998E+03   -0.22431E-03   -0.22433E-03  2520   0.419E-03   0.192E-05
CGA:  19    -0.675246396952E+03   -0.15695E-03   -0.15695E-03  2520   0.282E-03  -0.189E-05
CGA:  20    -0.675246489898E+03   -0.92946E-04   -0.92899E-04  2520   0.161E-03  -0.115E-05
CGA:  21    -0.675246544285E+03   -0.54387E-04   -0.54353E-04  2520   0.873E-04  -0.114E-05
CGA:  22    -0.675246571954E+03   -0.27669E-04   -0.27614E-04  2520   0.468E-04  -0.111E-05
CGA:  23    -0.675246585779E+03   -0.13825E-04   -0.13804E-04  2520   0.225E-04  -0.331E-06
CGA:  24    -0.675246592070E+03   -0.62909E-05   -0.62896E-05  2520   0.112E-04  -0.172E-07
   2 F= -.67524659E+03 E0= -.67524659E+03  d E =-.119064E+01  mag=     1.0000
       N       E                     dE             d eps       ncg     rms           ort
SDA:   1    -0.674576238412E+03    0.67035E+00    0.00000E+00  2520   0.155E+01   0.000E+00
CGA:   2    -0.675151065861E+03   -0.57483E+00   -0.57473E+00  2520   0.366E+00   0.170E-02
CGA:   3    -0.675242353486E+03   -0.91288E-01   -0.91204E-01  2520   0.430E-01  -0.132E-03
CGA:   4    -0.675253098945E+03   -0.10745E-01   -0.10746E-01  2520   0.775E-02   0.571E-05
CGA:   5    -0.675255077983E+03   -0.19790E-02   -0.19799E-02  2520   0.156E-02   0.110E-04
CGA:   6    -0.675255508648E+03   -0.43067E-03   -0.43039E-03  2520   0.497E-03  -0.627E-05
CGA:   7    -0.675255665985E+03   -0.15734E-03   -0.15733E-03  2520   0.173E-03   0.122E-05
CGA:   8    -0.675255717889E+03   -0.51904E-04   -0.51914E-04  2520   0.633E-04   0.645E-06
CGA:   9    -0.675255734175E+03   -0.16286E-04   -0.16299E-04  2520   0.153E-04   0.223E-06
CGA:  10    -0.675255738126E+03   -0.39505E-05   -0.39616E-05  2520   0.430E-05   0.225E-06
   3 F= -.67525574E+03 E0= -.67525574E+03  d E =-.119978E+01  mag=     1.0000
       N       E                     dE             d eps       ncg     rms           ort
SDA:   1    -0.666294609596E+03    0.89611E+01    0.00000E+00  2520   0.200E+02   0.000E+00
CGA:   2    -0.674128783781E+03   -0.78342E+01   -0.78200E+01  2520   0.500E+01   0.107E+00
CGA:   3    -0.675261684924E+03   -0.11329E+01   -0.11307E+01  2520   0.730E+00  -0.441E-02
CGA:   4    -0.675418709692E+03   -0.15702E+00   -0.15715E+00  2520   0.104E+00   0.215E-03
CGA:   5    -0.675446927414E+03   -0.28218E-01   -0.28221E-01  2520   0.169E-01   0.126E-03
CGA:   6    -0.675452105501E+03   -0.51781E-02   -0.51782E-02  2520   0.548E-02  -0.998E-05
CGA:   7    -0.675453827437E+03   -0.17219E-02   -0.17216E-02  2520   0.184E-02   0.166E-04
CGA:   8    -0.675454445599E+03   -0.61816E-03   -0.61796E-03  2520   0.633E-03   0.484E-05
CGA:   9    -0.675454620825E+03   -0.17523E-03   -0.17534E-03  2520   0.137E-03   0.511E-05
CGA:  10    -0.675454666536E+03   -0.45711E-04   -0.45715E-04  2520   0.458E-04  -0.905E-07
CGA:  11    -0.675454685669E+03   -0.19132E-04   -0.19163E-04  2520   0.424E-04  -0.260E-06
CGA:  12    -0.675454704751E+03   -0.19082E-04   -0.19069E-04  2520   0.516E-04   0.998E-07
CGA:  13    -0.675454730524E+03   -0.25773E-04   -0.25915E-04  2520   0.670E-04  -0.798E-06
CGA:  14    -0.675454761250E+03   -0.30726E-04   -0.30815E-04  2520   0.692E-04  -0.713E-06
CGA:  15    -0.675454792641E+03   -0.31391E-04   -0.31367E-04  2520   0.582E-04   0.236E-06
CGA:  16    -0.675454813718E+03   -0.21077E-04   -0.21079E-04  2520   0.389E-04   0.254E-06
CGA:  17    -0.675454825238E+03   -0.11520E-04   -0.11546E-04  2520   0.184E-04   0.369E-06
CGA:  18    -0.675454830850E+03   -0.56120E-05   -0.56248E-05  2520   0.763E-05   0.230E-06
   4 F= -.67545483E+03 E0= -.67545483E+03  d E =-.199093E+00  mag=     1.0000
       N       E                     dE             d eps       ncg     rms           ort
SDA:   1    -0.671814380432E+03    0.36404E+01    0.00000E+00  2520   0.801E+01   0.000E+00
CGA:   2    -0.674979990643E+03   -0.31656E+01   -0.31638E+01  2520   0.187E+01   0.198E-01
CGA:   3    -0.675425523008E+03   -0.44553E+00   -0.44501E+00  2520   0.238E+00  -0.496E-03
CGA:   4    -0.675477565543E+03   -0.52043E-01   -0.52057E-01  2520   0.392E-01  -0.616E-04
CGA:   5    -0.675487749531E+03   -0.10184E-01   -0.10187E-01  2520   0.620E-02   0.466E-04
CGA:   6    -0.675489635682E+03   -0.18862E-02   -0.18859E-02  2520   0.195E-02  -0.123E-04
CGA:   7    -0.675490254055E+03   -0.61837E-03   -0.61840E-03  2520   0.611E-03   0.961E-05
CGA:   8    -0.675490468926E+03   -0.21487E-03   -0.21490E-03  2520   0.219E-03  -0.905E-06
CGA:   9    -0.675490524704E+03   -0.55778E-04   -0.56017E-04  2520   0.516E-04   0.358E-05
CGA:  10    -0.675490540040E+03   -0.15337E-04   -0.15321E-04  2520   0.162E-04  -0.633E-06
CGA:  11    -0.675490544809E+03   -0.47685E-05   -0.47669E-05  2520   0.100E-04  -0.102E-06
   5 F= -.67549054E+03 E0= -.67549054E+03  d E =-.234807E+00  mag=     1.0000
       N       E                     dE             d eps       ncg     rms           ort
SDA:   1    -0.670109289654E+03    0.53813E+01    0.00000E+00  2520   0.123E+02   0.000E+00
CGA:   2    -0.674700564937E+03   -0.45913E+01   -0.45886E+01  2520   0.294E+01   0.285E-01
CGA:   3    -0.675463358208E+03   -0.76279E+00   -0.76217E+00  2520   0.345E+00  -0.272E-02
CGA:   4    -0.675538789507E+03   -0.75431E-01   -0.75463E-01  2520   0.631E-01  -0.653E-04
CGA:   5    -0.675555472537E+03   -0.16683E-01   -0.16685E-01  2520   0.988E-02   0.529E-04
CGA:   6    -0.675558545454E+03   -0.30729E-02   -0.30730E-02  2520   0.296E-02  -0.149E-04
CGA:   7    -0.675559521197E+03   -0.97574E-03   -0.97536E-03  2520   0.868E-03   0.155E-04
CGA:   8    -0.675559831004E+03   -0.30981E-03   -0.30977E-03  2520   0.291E-03   0.802E-06
CGA:   9    -0.675559905016E+03   -0.74011E-04   -0.74281E-04  2520   0.749E-04   0.479E-05
CGA:  10    -0.675559929219E+03   -0.24204E-04   -0.24215E-04  2520   0.254E-04  -0.898E-06
CGA:  11    -0.675559939308E+03   -0.10088E-04   -0.10094E-04  2520   0.193E-04  -0.626E-07
CGA:  12    -0.675559947646E+03   -0.83388E-05   -0.82975E-05  2520   0.221E-04   0.362E-06
CGA:  13    -0.675559958358E+03   -0.10712E-04   -0.10839E-04  2520   0.306E-04  -0.828E-06
CGA:  14    -0.675559972831E+03   -0.14473E-04   -0.14515E-04  2520   0.396E-04  -0.286E-06
CGA:  15    -0.675559986618E+03   -0.13787E-04   -0.13788E-04  2520   0.353E-04   0.138E-06
CGA:  16    -0.675559997806E+03   -0.11188E-04   -0.11180E-04  2520   0.211E-04  -0.213E-06
CGA:  17    -0.675560003638E+03   -0.58314E-05   -0.58591E-05  2520   0.845E-05   0.381E-06
   6 F= -.67556000E+03 E0= -.67556000E+03  d E =-.694588E-01  mag=     1.0000
       N       E                     dE             d eps       ncg     rms           ort
SDA:   1    -0.675002346509E+03    0.55765E+00    0.00000E+00  2520   0.127E+01   0.000E+00
CGA:   2    -0.675476651800E+03   -0.47431E+00   -0.47425E+00  2520   0.293E+00   0.751E-03
CGA:   3    -0.675555900299E+03   -0.79248E-01   -0.79231E-01  2520   0.280E-01  -0.752E-04
CGA:   4    -0.675562559401E+03   -0.66591E-02   -0.66577E-02  2520   0.626E-02  -0.104E-04
CGA:   5    -0.675564113140E+03   -0.15537E-02   -0.15545E-02  2520   0.101E-02   0.966E-05
CGA:   6    -0.675564412510E+03   -0.29937E-03   -0.29929E-03  2520   0.324E-03  -0.379E-05
CGA:   7    -0.675564508005E+03   -0.95494E-04   -0.95522E-04  2520   0.106E-03   0.141E-05
CGA:   8    -0.675564539454E+03   -0.31449E-04   -0.31465E-04  2520   0.402E-04   0.895E-06
CGA:   9    -0.675564548798E+03   -0.93446E-05   -0.93548E-05  2520   0.121E-04   0.125E-06
   7 F= -.67556455E+03 E0= -.67556455E+03  d E =-.740040E-01  mag=     1.0000
       N       E                     dE             d eps       ncg     rms           ort
SDA:   1    -0.674374970335E+03    0.11896E+01    0.00000E+00  2520   0.265E+01   0.000E+00
CGA:   2    -0.675397676023E+03   -0.10227E+01   -0.10225E+01  2520   0.622E+00   0.166E-02
CGA:   3    -0.675564335542E+03   -0.16666E+00   -0.16665E+00  2520   0.511E-01  -0.893E-04
CGA:   4    -0.675576251493E+03   -0.11916E-01   -0.11912E-01  2520   0.114E-01  -0.521E-04
CGA:   5    -0.675579004777E+03   -0.27533E-02   -0.27547E-02  2520   0.166E-02   0.280E-04
CGA:   6    -0.675579507128E+03   -0.50235E-03   -0.50247E-03  2520   0.519E-03  -0.944E-05
CGA:   7    -0.675579663490E+03   -0.15636E-03   -0.15630E-03  2520   0.151E-03   0.490E-05
CGA:   8    -0.675579717426E+03   -0.53935E-04   -0.53907E-04  2520   0.519E-04   0.463E-06
CGA:   9    -0.675579731262E+03   -0.13837E-04   -0.13848E-04  2520   0.151E-04   0.352E-06
CGA:  10    -0.675579734954E+03   -0.36915E-05   -0.37044E-05  2520   0.442E-05   0.250E-06
   8 F= -.67557973E+03 E0= -.67557973E+03  d E =-.151862E-01  mag=     1.0000
       N       E                     dE             d eps       ncg     rms           ort
SDA:   1    -0.675491816629E+03    0.87915E-01    0.00000E+00  2520   0.194E+00   0.000E+00
CGA:   2    -0.675566870624E+03   -0.75054E-01   -0.75050E-01  2520   0.453E-01   0.179E-04
CGA:   3    -0.675579276889E+03   -0.12406E-01   -0.12406E-01  2520   0.426E-02  -0.208E-05
CGA:   4    -0.675580218973E+03   -0.94208E-03   -0.94179E-03  2520   0.105E-02  -0.369E-05
CGA:   5    -0.675580474106E+03   -0.25513E-03   -0.25519E-03  2520   0.179E-03   0.121E-05
CGA:   6    -0.675580520008E+03   -0.45901E-04   -0.45907E-04  2520   0.540E-04   0.195E-06
CGA:   7    -0.675580534562E+03   -0.14554E-04   -0.14546E-04  2520   0.199E-04  -0.653E-06
CGA:   8    -0.675580539945E+03   -0.53833E-05   -0.53852E-05  2520   0.821E-05   0.353E-06
   9 F= -.67558054E+03 E0= -.67558054E+03  d E =-.159911E-01  mag=     1.0000
       N       E                     dE             d eps       ncg     rms           ort
SDA:   1    -0.674943071766E+03    0.63746E+00    0.00000E+00  2520   0.142E+01   0.000E+00
CGA:   2    -0.675496599154E+03   -0.55353E+00   -0.55350E+00  2520   0.306E+00   0.122E-03
CGA:   3    -0.675579402106E+03   -0.82803E-01   -0.82804E-01  2520   0.266E-01   0.441E-04
CGA:   4    -0.675585810411E+03   -0.64083E-02   -0.64071E-02  2520   0.562E-02  -0.250E-04
CGA:   5    -0.675587166740E+03   -0.13563E-02   -0.13568E-02  2520   0.835E-03   0.125E-04
CGA:   6    -0.675587412967E+03   -0.24623E-03   -0.24627E-03  2520   0.279E-03  -0.244E-05
CGA:   7    -0.675587495362E+03   -0.82396E-04   -0.82357E-04  2520   0.865E-04   0.230E-05
CGA:   8    -0.675587523771E+03   -0.28408E-04   -0.28400E-04  2520   0.355E-04   0.196E-06
CGA:   9    -0.675587532655E+03   -0.88840E-05   -0.88891E-05  2520   0.119E-04   0.144E-06
  10 F= -.67558753E+03 E0= -.67558753E+03  d E =-.699271E-02  mag=     1.0000
       N       E                     dE             d eps       ncg     rms           ort
SDA:   1    -0.675536289121E+03    0.51235E-01    0.00000E+00  2520   0.114E+00   0.000E+00
CGA:   2    -0.675580540706E+03   -0.44252E-01   -0.44251E-01  2520   0.248E-01   0.274E-05
CGA:   3    -0.675587233187E+03   -0.66925E-02   -0.66926E-02  2520   0.275E-02   0.253E-05
CGA:   4    -0.675587830653E+03   -0.59747E-03   -0.59732E-03  2520   0.589E-03  -0.194E-05
CGA:   5    -0.675587974116E+03   -0.14346E-03   -0.14347E-03  2520   0.111E-03   0.191E-06
CGA:   6    -0.675588000843E+03   -0.26727E-04   -0.26743E-04  2520   0.339E-04   0.437E-06
CGA:   7    -0.675588010780E+03   -0.99366E-05   -0.99388E-05  2520   0.129E-04  -0.132E-06
  11 F= -.67558801E+03 E0= -.67558801E+03  d E =-.747083E-02  mag=     1.0000
       N       E                     dE             d eps       ncg     rms           ort
SDA:   1    -0.675247606727E+03    0.34039E+00    0.00000E+00  2520   0.764E+00   0.000E+00
CGA:   2    -0.675539634366E+03   -0.29203E+00   -0.29202E+00  2520   0.172E+00   0.327E-04
CGA:   3    -0.675587773094E+03   -0.48139E-01   -0.48139E-01  2520   0.129E-01   0.190E-04
CGA:   4    -0.675590913905E+03   -0.31408E-02   -0.31402E-02  2520   0.309E-02  -0.133E-04
CGA:   5    -0.675591621723E+03   -0.70782E-03   -0.70817E-03  2520   0.435E-03   0.654E-05
CGA:   6    -0.675591756998E+03   -0.13527E-03   -0.13529E-03  2520   0.136E-03  -0.549E-06
CGA:   7    -0.675591797176E+03   -0.40178E-04   -0.40169E-04  2520   0.455E-04   0.573E-06
CGA:   8    -0.675591811450E+03   -0.14274E-04   -0.14259E-04  2520   0.184E-04   0.511E-06
CGA:   9    -0.675591816386E+03   -0.49363E-05   -0.49340E-05  2520   0.640E-05  -0.110E-06
  12 F= -.67559182E+03 E0= -.67559182E+03  d E =-.380561E-02  mag=     1.0000
       N       E                     dE             d eps       ncg     rms           ort
SDA:   1    -0.675529890090E+03    0.61921E-01    0.00000E+00  2520   0.138E+00   0.000E+00
CGA:   2    -0.675582685228E+03   -0.52795E-01   -0.52795E-01  2520   0.313E-01   0.593E-06
CGA:   3    -0.675591498147E+03   -0.88129E-02   -0.88130E-02  2520   0.267E-02   0.219E-05
CGA:   4    -0.675592114460E+03   -0.61631E-03   -0.61619E-03  2520   0.645E-03  -0.206E-05
CGA:   5    -0.675592265483E+03   -0.15102E-03   -0.15105E-03  2520   0.105E-03   0.495E-06
CGA:   6    -0.675592293786E+03   -0.28303E-04   -0.28305E-04  2520   0.337E-04   0.237E-06
CGA:   7    -0.675592303145E+03   -0.93587E-05   -0.93584E-05  2520   0.122E-04  -0.845E-07
  13 F= -.67559230E+03 E0= -.67559230E+03  d E =-.429237E-02  mag=     1.0000
       N       E                     dE             d eps       ncg     rms           ort
SDA:   1    -0.675350376951E+03    0.24192E+00    0.00000E+00  2520   0.542E+00   0.000E+00
CGA:   2    -0.675558931850E+03   -0.20855E+00   -0.20855E+00  2520   0.116E+00   0.452E-05
CGA:   3    -0.675591610123E+03   -0.32678E-01   -0.32678E-01  2520   0.935E-02   0.151E-04
CGA:   4    -0.675593941689E+03   -0.23316E-02   -0.23313E-02  2520   0.210E-02  -0.787E-05
CGA:   5    -0.675594418219E+03   -0.47653E-03   -0.47680E-03  2520   0.336E-03   0.454E-05
CGA:   6    -0.675594521398E+03   -0.10318E-03   -0.10319E-03  2520   0.990E-04  -0.344E-06
CGA:   7    -0.675594552369E+03   -0.30971E-04   -0.30966E-04  2520   0.331E-04   0.164E-06
CGA:   8    -0.675594562682E+03   -0.10313E-04   -0.10301E-04  2520   0.132E-04   0.485E-06
CGA:   9    -0.675594566079E+03   -0.33966E-05   -0.33937E-05  2520   0.509E-05  -0.834E-07
  14 F= -.67559457E+03 E0= -.67559457E+03  d E =-.226293E-02  mag=     1.0000
       N       E                     dE             d eps       ncg     rms           ort
SDA:   1    -0.675570704313E+03    0.23858E-01    0.00000E+00  2520   0.532E-01   0.000E+00
CGA:   2    -0.675591111301E+03   -0.20407E-01   -0.20407E-01  2520   0.115E-01  -0.794E-06
CGA:   3    -0.675594381585E+03   -0.32703E-02   -0.32703E-02  2520   0.109E-02   0.547E-06
CGA:   4    -0.675594640621E+03   -0.25904E-03   -0.25902E-03  2520   0.237E-03  -0.300E-06
CGA:   5    -0.675594697990E+03   -0.57369E-04   -0.57374E-04  2520   0.459E-04   0.123E-06
CGA:   6    -0.675594710113E+03   -0.12124E-04   -0.12124E-04  2520   0.154E-04  -0.548E-08
CGA:   7    -0.675594714192E+03   -0.40786E-05   -0.40788E-05  2520   0.603E-05   0.100E-07
  15 F= -.67559471E+03 E0= -.67559471E+03  d E =-.241105E-02  mag=     1.0000
       N       E                     dE             d eps       ncg     rms           ort
SDA:   1    -0.675496726948E+03    0.97983E-01    0.00000E+00  2520   0.208E+00   0.000E+00
CGA:   2    -0.675583276413E+03   -0.86549E-01   -0.86550E-01  2520   0.419E-01  -0.597E-05
CGA:   3    -0.675594373881E+03   -0.11097E-01   -0.11098E-01  2520   0.346E-02   0.102E-04
CGA:   4    -0.675595237611E+03   -0.86373E-03   -0.86352E-03  2520   0.739E-03  -0.540E-05
CGA:   5    -0.675595410249E+03   -0.17264E-03   -0.17277E-03  2520   0.126E-03   0.252E-05
CGA:   6    -0.675595445625E+03   -0.35375E-04   -0.35376E-04  2520   0.388E-04  -0.499E-06
CGA:   7    -0.675595456531E+03   -0.10907E-04   -0.10907E-04  2520   0.149E-04   0.297E-07
CGA:   8    -0.675595460210E+03   -0.36787E-05   -0.36863E-05  2520   0.682E-05   0.227E-06
  16 F= -.67559546E+03 E0= -.67559546E+03  d E =-.746018E-03  mag=     1.0000
