 vasp.6.5.1 10Mar25 (build May 13 2025 11:33:44) complex                         
 executed on              LinuxNV date 2026.05.04  09:27:55
 running    2 mpi-ranks, on    1 nodes
 distrk:  each k-point on    1 cores,    2 groups
 distr:  one band on NCORE=   1 cores,    1 groups
 Offloading initialized ...    2 GPUs detected


--------------------------------------------------------------------------------------------------------


 INCAR:
   ALGO = All
   PREC = Normal
   LREAL = Auto
   EDIFF = 1e-05
   ENCUT = 400.0
   LASPH = True
   NELM = 100
   ISIF = 2
   IBRION = 2
   EDIFFG = -0.03
   NSW = 300
   ISMEAR = 0
   SIGMA = 0.1
   ISPIN = 2
   LWAVE = True
   LCHARG = False
   LORBIT = 10
   LHFCALC = True
   PRECFOCK = Fast
   AEXX = 0.36
   HFSCREEN = 0.2
   TIME = 0.4
   KPAR = 4

 POTCAR:    PAW_PBE Zn 06Sep2000                  
 POTCAR:    PAW_PBE O 08Apr2002                   
 POTCAR:    PAW_PBE Na 08Apr2002                  
 -----------------------------------------------------------------------------
|                                                                             |
|           W    W    AA    RRRRR   N    N  II  N    N   GGGG   !!!           |
|           W    W   A  A   R    R  NN   N  II  NN   N  G    G  !!!           |
|           W    W  A    A  R    R  N N  N  II  N N  N  G       !!!           |
|           W WW W  AAAAAA  RRRRR   N  N N  II  N  N N  G  GGG   !            |
|           WW  WW  A    A  R   R   N   NN  II  N   NN  G    G                |
|           W    W  A    A  R    R  N    N  II  N    N   GGGG   !!!           |
|                                                                             |
|     You requested a magnetic or noncollinear calculation, but did not       |
|     specify the initial magnetic moment with the MAGMOM tag. Note that      |
|     a default of 1 will be used for all atoms. This ferromagnetic setup     |
|     may break the symmetry of the crystal, in particular it may rule        |
|     out finding an antiferromagnetic solution. Thence, we recommend         |
|     setting the initial magnetic moment manually or verifying carefully     |
|     that this magnetic setup is desired.                                    |
|                                                                             |
 -----------------------------------------------------------------------------

 POTCAR:    PAW_PBE Zn 06Sep2000                  
   SHA256 =  501fddbd8274dd8e9725d4f3de27861d7f1e553a7e18441bc79fed8f346e7f23 Zn/POTCAR             
   COPYR  = (c) Copyright 06Sep2000 Georg Kresse                                                    
   COPYR  = This file is part of the software VASP. Any use, copying, and all other rights are regul
   COPYR  = If you do not have a valid VASP license, you may not use, copy or distribute this file. 
   VRHFIN =Zn: d10 p2                                                                               
   LEXCH  = PE                                                                                      
   EATOM  =  1748.8345 eV,  128.5357 Ry                                                             
                                                                                                    
   TITEL  = PAW_PBE Zn 06Sep2000                                                                    
   LULTRA =        F    use ultrasoft PP ?                                                          
   IUNSCR =        1    unscreen: 0-lin 1-nonlin 2-no                                               
   RPACOR =    2.000    partial core radius                                                         
   POMASS =   65.390; ZVAL   =   12.000    mass and valenz                                          
   RCORE  =    2.300    outmost cutoff radius                                                       
   RWIGS  =    2.400; RWIGS  =    1.270    wigner-seitz radius (au A)                               
   ENMAX  =  276.723; ENMIN  =  207.542 eV                                                          
   RCLOC  =    1.828    cutoff for local pot                                                        
   LCOR   =        T    correct aug charges                                                         
   LPAW   =        T    paw PP                                                                      
   EAUG   =  575.892                                                                                
   DEXC   =    0.000                                                                                
   RMAX   =    2.347    core radius for proj-oper                                                   
   RAUG   =    1.300    factor for augmentation sphere                                              
   RDEP   =    2.324    radius for radial grids                                                     
   RDEPT  =    1.788    core radius for aug-charge                                                  
                                                                                                    
   Atomic configuration                                                                             
    9 entries                                                                                       
     n  l   j            E        occ.                                                              
     1  0  0.50     -9524.6913   2.0000                                                             
     2  0  0.50     -1158.1882   2.0000                                                             
     2  1  1.50     -1003.8506   6.0000                                                             
     3  0  0.50      -129.2194   2.0000                                                             
     3  1  1.50       -83.3890   6.0000                                                             
     3  2  2.50       -10.1410  10.0000                                                             
     4  0  0.50        -5.9785   2.0000                                                             
     4  1  0.50        -4.0817   0.0000                                                             
     4  3  2.50        -1.3606   0.0000                                                             
   Description                                                                                      
     l       E           TYP  RCUT    TYP  RCUT                                                     
     2    -10.1410010     23  2.300                                                                 
     2    -11.5015836     23  2.300                                                                 
     0     -5.9785163     23  2.300                                                                 
     0      1.1858015     23  2.300                                                                 
     1     -2.7211652     23  2.300                                                                 
     1     13.2444212     23  2.300                                                                 
  local pseudopotential read in
  partial core-charges read in
  partial kinetic energy density read in
  atomic valenz-charges read in
  non local Contribution for L=            2  read in
    real space projection operators read in
  non local Contribution for L=            2  read in
    real space projection operators read in
  non local Contribution for L=            0  read in
    real space projection operators read in
  non local Contribution for L=            0  read in
    real space projection operators read in
  non local Contribution for L=            1  read in
    real space projection operators read in
  non local Contribution for L=            1  read in
    real space projection operators read in
    PAW grid and wavefunctions read in
 
   number of l-projection  operators is LMAX  =            6
   number of lm-projection operators is LMMAX =           18
 
 POTCAR:    PAW_PBE O 08Apr2002                   
   SHA256 =  818f92134a0a090dccd8ba1447fa70422a3b330e708bb4f08108d8ae51209ddf O/POTCAR              
   COPYR  = (c) Copyright 08Apr2002 Georg Kresse                                                    
   COPYR  = This file is part of the software VASP. Any use, copying, and all other rights are regul
   COPYR  = If you do not have a valid VASP license, you may not use, copy or distribute this file. 
   VRHFIN =O: s2p4                                                                                  
   LEXCH  = PE                                                                                      
   EATOM  =   432.3788 eV,   31.7789 Ry                                                             
                                                                                                    
   TITEL  = PAW_PBE O 08Apr2002                                                                     
   LULTRA =        F    use ultrasoft PP ?                                                          
   IUNSCR =        1    unscreen: 0-lin 1-nonlin 2-no                                               
   RPACOR =    1.200    partial core radius                                                         
   POMASS =   16.000; ZVAL   =    6.000    mass and valenz                                          
   RCORE  =    1.520    outmost cutoff radius                                                       
   RWIGS  =    1.550; RWIGS  =    0.820    wigner-seitz radius (au A)                               
   ENMAX  =  400.000; ENMIN  =  300.000 eV                                                          
   ICORE  =        2    local potential                                                             
   LCOR   =        T    correct aug charges                                                         
   LPAW   =        T    paw PP                                                                      
   EAUG   =  605.392                                                                                
   DEXC   =    0.000                                                                                
   RMAX   =    1.553    core radius for proj-oper                                                   
   RAUG   =    1.300    factor for augmentation sphere                                              
   RDEP   =    1.550    radius for radial grids                                                     
   RDEPT  =    1.329    core radius for aug-charge                                                  
                                                                                                    
   Atomic configuration                                                                             
    4 entries                                                                                       
     n  l   j            E        occ.                                                              
     1  0  0.50      -514.6923   2.0000                                                             
     2  0  0.50       -23.9615   2.0000                                                             
     2  1  0.50        -9.0305   4.0000                                                             
     3  2  1.50        -9.5241   0.0000                                                             
   Description                                                                                      
     l       E           TYP  RCUT    TYP  RCUT                                                     
     0    -23.9615318     23  1.200                                                                 
     0     -9.5240782     23  1.200                                                                 
     1     -9.0304911     23  1.520                                                                 
     1      8.1634956     23  1.520                                                                 
     2     -9.5240782      7  1.500                                                                 
  local pseudopotential read in
  partial core-charges read in
  partial kinetic energy density read in
  kinetic energy density of atom read in
  atomic valenz-charges read in
  non local Contribution for L=            0  read in
    real space projection operators read in
  non local Contribution for L=            0  read in
    real space projection operators read in
  non local Contribution for L=            1  read in
    real space projection operators read in
  non local Contribution for L=            1  read in
    real space projection operators read in
    PAW grid and wavefunctions read in
 
   number of l-projection  operators is LMAX  =            4
   number of lm-projection operators is LMMAX =            8
 
 POTCAR:    PAW_PBE Na 08Apr2002                  
   SHA256 =  28de979e29d3a0ce6b912090ec41d2d3fb15239b988ee49a7215736a384d2747 Na/POTCAR             
   COPYR  = (c) Copyright 08Apr2002 Georg Kresse                                                    
   COPYR  = This file is part of the software VASP. Any use, copying, and all other rights are regul
   COPYR  = If you do not have a valid VASP license, you may not use, copy or distribute this file. 
   VRHFIN =Na: s1p0                                                                                 
   LEXCH  = PE                                                                                      
   EATOM  =     5.1581 eV,    0.3791 Ry                                                             
                                                                                                    
   TITEL  = PAW_PBE Na 08Apr2002                                                                    
   LULTRA =        F    use ultrasoft PP ?                                                          
   IUNSCR =        1    unscreen: 0-lin 1-nonlin 2-no                                               
   RPACOR =    1.800    partial core radius                                                         
   POMASS =   22.990; ZVAL   =    1.000    mass and valenz                                          
   RCORE  =    2.200    outmost cutoff radius                                                       
   RWIGS  =    3.320; RWIGS  =    1.757    wigner-seitz radius (au A)                               
   ENMAX  =  101.968; ENMIN  =   76.476 eV                                                          
   ICORE  =        2    local potential                                                             
   LCOR   =        T    correct aug charges                                                         
   LPAW   =        T    paw PP                                                                      
   EAUG   =  250.695                                                                                
   DEXC   =    0.000                                                                                
   RMAX   =    2.245    core radius for proj-oper                                                   
   RAUG   =    1.300    factor for augmentation sphere                                              
   RDEP   =    2.259    radius for radial grids                                                     
   RDEPT  =    2.115    core radius for aug-charge                                                  
                                                                                                    
   Atomic configuration                                                                             
    6 entries                                                                                       
     n  l   j            E        occ.                                                              
     1  0  0.50     -1033.6933   2.0000                                                             
     2  0  0.50       -56.7526   2.0000                                                             
     2  1  1.50       -28.6721   6.0000                                                             
     3  0  0.50        -2.7440   1.0000                                                             
     3  1  0.50        -1.3606   0.0000                                                             
     3  2  1.50        -1.3606   0.0000                                                             
   Description                                                                                      
     l       E           TYP  RCUT    TYP  RCUT                                                     
     0     -2.7439560     23  2.200                                                                 
     0     27.2116520     23  2.200                                                                 
     1     -1.3605826     23  2.200                                                                 
     2     -1.3605826     23  2.200                                                                 
  local pseudopotential read in
  partial core-charges read in
  partial kinetic energy density read in
  atomic valenz-charges read in
  non local Contribution for L=            0  read in
    real space projection operators read in
  non local Contribution for L=            0  read in
    real space projection operators read in
  non local Contribution for L=            1  read in
    real space projection operators read in
    PAW grid and wavefunctions read in
 
   number of l-projection  operators is LMAX  =            3
   number of lm-projection operators is LMMAX =            5
 
 Optimization of the real space projectors (new method)

 maximal supplied QI-value         = 16.25
 optimisation between [QCUT,QGAM] = [ 10.24, 20.48] = [ 29.35,117.42] Ry 
 Optimized for a Real-space Cutoff    1.38 Angstroem

   l    n(q)    QCUT    max X(q) W(low)/X(q) W(high)/X(q)  e(spline) 
   2      7    10.239    46.356    0.21E-03    0.48E-03    0.10E-06
   2      7    10.239    41.843    0.21E-03    0.50E-03    0.10E-06
   0      8    10.239    48.958    0.37E-03    0.79E-04    0.11E-06
   0      8    10.239    32.776    0.35E-03    0.73E-04    0.10E-06
   1      8    10.239    17.787    0.49E-03    0.70E-03    0.14E-06
   1      8    10.239    14.435    0.42E-03    0.61E-03    0.13E-06
 Optimization of the real space projectors (new method)

 maximal supplied QI-value         = 24.76
 optimisation between [QCUT,QGAM] = [ 10.15, 20.30] = [ 28.85,115.39] Ry 
 Optimized for a Real-space Cutoff    1.38 Angstroem

   l    n(q)    QCUT    max X(q) W(low)/X(q) W(high)/X(q)  e(spline) 
   0      8    10.150    20.381    0.22E-03    0.32E-03    0.29E-06
   0      8    10.150    15.268    0.23E-03    0.35E-03    0.30E-06
   1      8    10.150     5.964    0.46E-03    0.53E-03    0.21E-06
   1      8    10.150     5.382    0.38E-03    0.45E-03    0.19E-06
 Optimization of the real space projectors (new method)

 maximal supplied QI-value         = 17.01
 optimisation between [QCUT,QGAM] = [ 10.20, 20.41] = [ 29.16,116.64] Ry 
 Optimized for a Real-space Cutoff    1.19 Angstroem

   l    n(q)    QCUT    max X(q) W(low)/X(q) W(high)/X(q)  e(spline) 
   0      7    10.205    45.123    0.22E-03    0.82E-03    0.11E-06
   0      7    10.205    12.364    0.17E-03    0.61E-03    0.75E-07
   1      7    10.205     8.302    0.37E-03    0.15E-03    0.27E-07
  PAW_PBE Zn 06Sep2000                  :
 energy of atom  1       EATOM=-1748.8345
 kinetic energy error for atom=    0.0107 (will be added to EATOM!!)
  PAW_PBE O 08Apr2002                   :
 energy of atom  2       EATOM= -432.3788
 kinetic energy error for atom=    0.1156 (will be added to EATOM!!)
  PAW_PBE Na 08Apr2002                  :
 energy of atom  3       EATOM=   -5.1581
 kinetic energy error for atom=    0.0001 (will be added to EATOM!!)
 
 
 POSCAR: Na1 Zn53 O54
  positions in direct lattice
  No initial velocities read in


 exchange-correlation table for PE
   RHO(1)=    0.500       N(1)  =     2000
   RHO(2)=  100.500       N(2)  =     4000
 


--------------------------------------------------------------------------------------------------------


 ion  position               nearest neighbor table
   1  0.111  0.222  0.333-  84 1.98  81 1.98  99 1.98  55 1.99
   2  0.111  0.222  0.667-  85 1.98  82 1.98 100 1.98  56 1.99
   3  0.111  0.556  0.000-  89 1.98 104 1.98  57 1.99  86 1.99 108 3.25
   4  0.111  0.556  0.333-  87 1.98 102 1.98  84 1.98  58 1.99
   5  0.111  0.556  0.667-  88 1.98 103 1.98  85 1.98  59 1.99
   6  0.111  0.889  0.000-  89 1.98 107 1.98  60 1.99  83 2.01 108 3.25
   7  0.111  0.889  0.333-  87 1.98  81 1.98 105 1.98  61 1.99
   8  0.111  0.889  0.667-  88 1.98  82 1.98 106 1.98  62 1.99
   9  0.444  0.222  0.000-  95 1.98  92 1.98  63 1.99  83 2.07 108 3.25
  10  0.444  0.222  0.333-  93 1.98  81 1.98  90 1.98  64 1.99
  11  0.444  0.222  0.667-  94 1.98  82 1.98  91 1.98  65 1.99
  12  0.444  0.556  0.000-  98 1.98  95 1.98  66 1.99  86 2.04 108 3.25
  13  0.444  0.556  0.333-  96 1.98  84 1.98  93 1.98  67 1.99
  14  0.444  0.556  0.667-  97 1.98  85 1.98  94 1.98  68 1.99
  15  0.444  0.889  0.000-  92 1.98  89 1.98  98 1.98  69 1.99
  16  0.444  0.889  0.333-  90 1.98  87 1.98  96 1.98  70 1.99
  17  0.444  0.889  0.667-  91 1.98  88 1.98  97 1.98  71 1.99
  18  0.778  0.222  0.000- 104 1.98  92 1.98  72 1.99 101 2.01 108 3.25
  19  0.778  0.222  0.333- 102 1.98  99 1.98  90 1.98  73 1.99
  20  0.778  0.222  0.667- 103 1.98 100 1.98  91 1.98  74 1.99
  21  0.778  0.556  0.000- 107 1.98  95 1.98 104 1.98  75 1.99
  22  0.778  0.556  0.333- 105 1.98  93 1.98 102 1.98  76 1.99
  23  0.778  0.556  0.667- 106 1.98  94 1.98 103 1.98  77 1.99
  24  0.778  0.889  0.000- 101 1.96 107 1.98  98 1.98  78 1.99 108 3.25
  25  0.778  0.889  0.333- 105 1.98  99 1.98  96 1.98  79 1.99
  26  0.778  0.889  0.667- 106 1.98 100 1.98  97 1.98  80 1.99
  27  0.222  0.111  0.167-  54 1.88  60 1.98  63 1.98  81 1.99 108 3.21
  28  0.222  0.111  0.500-  55 1.98  61 1.98  64 1.98  82 1.99
  29  0.222  0.111  0.833-  83 1.91  56 1.98  62 1.98  65 1.98 108 3.21
  30  0.222  0.444  0.167-  54 1.97  66 1.98  57 1.98  84 1.99 108 3.21
  31  0.222  0.444  0.500-  55 1.98  67 1.98  58 1.98  85 1.99
  32  0.222  0.444  0.833-  56 1.98  68 1.98  59 1.98  86 1.99 108 3.21
  33  0.222  0.778  0.167-  57 1.98  60 1.98  69 1.98  87 1.99
  34  0.222  0.778  0.500-  58 1.98  61 1.98  70 1.98  88 1.99
  35  0.222  0.778  0.833-  59 1.98  62 1.98  71 1.98  89 1.99
  36  0.556  0.111  0.167-  69 1.98  72 1.98  63 1.98  90 1.99
  37  0.556  0.111  0.500-  70 1.98  73 1.98  64 1.98  91 1.99
  38  0.556  0.111  0.833-  71 1.98  74 1.98  65 1.98  92 1.99
  39  0.556  0.444  0.167-  63 1.98  75 1.98  66 1.98  93 1.99
  40  0.556  0.444  0.500-  64 1.98  76 1.98  67 1.98  94 1.99
  41  0.556  0.444  0.833-  65 1.98  77 1.98  68 1.98  95 1.99
  42  0.556  0.778  0.167-  66 1.98  78 1.98  69 1.98  96 1.99
  43  0.556  0.778  0.500-  67 1.98  79 1.98  70 1.98  97 1.99
  44  0.556  0.778  0.833-  68 1.98  80 1.98  71 1.98  98 1.99
  45  0.889  0.111  0.167-  72 1.98  78 1.98  99 1.99  54 2.00 108 3.21
  46  0.889  0.111  0.500-  73 1.98  79 1.98  55 1.98 100 1.99
  47  0.889  0.111  0.833-  74 1.98  80 1.98  56 1.98 101 2.01 108 3.21
  48  0.889  0.444  0.167-  72 1.98  57 1.98  75 1.98 102 1.99
  49  0.889  0.444  0.500-  73 1.98  58 1.98  76 1.98 103 1.99
  50  0.889  0.444  0.833-  74 1.98  59 1.98  77 1.98 104 1.99
  51  0.889  0.778  0.167-  75 1.98  78 1.98  60 1.98 105 1.99
  52  0.889  0.778  0.500-  76 1.98  79 1.98  61 1.98 106 1.99
  53  0.889  0.778  0.833-  77 1.98  80 1.98  62 1.98 107 1.99
  54  0.117  0.219  0.134-  27 1.88  30 1.97  45 2.00 108 2.09
  55  0.111  0.222  0.460-  31 1.98  28 1.98  46 1.98   1 1.99
  56  0.111  0.222  0.794-  32 1.98  29 1.98  47 1.98   2 1.99
  57  0.111  0.556  0.127-  33 1.98  48 1.98  30 1.98   3 1.99
  58  0.111  0.556  0.460-  34 1.98  49 1.98  31 1.98   4 1.99
  59  0.111  0.556  0.794-  35 1.98  50 1.98  32 1.98   5 1.99
  60  0.111  0.889  0.127-  33 1.98  27 1.98  51 1.98   6 1.99
  61  0.111  0.889  0.460-  34 1.98  28 1.98  52 1.98   7 1.99
  62  0.111  0.889  0.794-  35 1.98  29 1.98  53 1.98   8 1.99
  63  0.444  0.222  0.127-  39 1.98  27 1.98  36 1.98   9 1.99
  64  0.444  0.222  0.460-  40 1.98  28 1.98  37 1.98  10 1.99
  65  0.444  0.222  0.794-  41 1.98  29 1.98  38 1.98  11 1.99
  66  0.444  0.556  0.127-  42 1.98  30 1.98  39 1.98  12 1.99
  67  0.444  0.556  0.460-  43 1.98  31 1.98  40 1.98  13 1.99
  68  0.444  0.556  0.794-  44 1.98  32 1.98  41 1.98  14 1.99
  69  0.444  0.889  0.127-  36 1.98  33 1.98  42 1.98  15 1.99
  70  0.444  0.889  0.460-  37 1.98  34 1.98  43 1.98  16 1.99
  71  0.444  0.889  0.794-  38 1.98  35 1.98  44 1.98  17 1.99
  72  0.778  0.222  0.127-  48 1.98  45 1.98  36 1.98  18 1.99
  73  0.778  0.222  0.460-  49 1.98  46 1.98  37 1.98  19 1.99
  74  0.778  0.222  0.794-  50 1.98  47 1.98  38 1.98  20 1.99
  75  0.778  0.556  0.127-  51 1.98  39 1.98  48 1.98  21 1.99
  76  0.778  0.556  0.460-  52 1.98  40 1.98  49 1.98  22 1.99
  77  0.778  0.556  0.794-  53 1.98  41 1.98  50 1.98  23 1.99
  78  0.778  0.889  0.127-  51 1.98  45 1.98  42 1.98  24 1.99
  79  0.778  0.889  0.460-  52 1.98  46 1.98  43 1.98  25 1.99
  80  0.778  0.889  0.794-  53 1.98  47 1.98  44 1.98  26 1.99
  81  0.222  0.111  0.294-   1 1.98   7 1.98  10 1.98  27 1.99
  82  0.222  0.111  0.627-   2 1.98   8 1.98  11 1.98  28 1.99
  83  0.213  0.113  0.956-  29 1.91 108 1.92   6 2.01   9 2.07
  84  0.222  0.444  0.294-   1 1.98  13 1.98   4 1.98  30 1.99
  85  0.222  0.444  0.627-   2 1.98  14 1.98   5 1.98  31 1.99
  86  0.215  0.435  0.961- 108 1.90   3 1.99  32 1.99  12 2.04
  87  0.222  0.778  0.294-   4 1.98   7 1.98  16 1.98  33 1.99
  88  0.222  0.778  0.627-   5 1.98   8 1.98  17 1.98  34 1.99
  89  0.222  0.778  0.960-   3 1.98   6 1.98  15 1.98  35 1.99
  90  0.556  0.111  0.294-  16 1.98  19 1.98  10 1.98  36 1.99
  91  0.556  0.111  0.627-  17 1.98  20 1.98  11 1.98  37 1.99
  92  0.556  0.111  0.960-  15 1.98  18 1.98   9 1.98  38 1.99
  93  0.556  0.444  0.294-  10 1.98  22 1.98  13 1.98  39 1.99
  94  0.556  0.444  0.627-  11 1.98  23 1.98  14 1.98  40 1.99
  95  0.556  0.444  0.960-   9 1.98  21 1.98  12 1.98  41 1.99
  96  0.556  0.778  0.294-  13 1.98  25 1.98  16 1.98  42 1.99
  97  0.556  0.778  0.627-  14 1.98  26 1.98  17 1.98  43 1.99
  98  0.556  0.778  0.960-  12 1.98  24 1.98  15 1.98  44 1.99
  99  0.889  0.111  0.294-  19 1.98  25 1.98   1 1.98  45 1.99
 100  0.889  0.111  0.627-  20 1.98  26 1.98   2 1.98  46 1.99
 101  0.893  0.110  0.962- 108 1.94  24 1.96  47 2.01  18 2.01
 102  0.889  0.444  0.294-  19 1.98   4 1.98  22 1.98  48 1.99
 103  0.889  0.444  0.627-  20 1.98   5 1.98  23 1.98  49 1.99
 104  0.889  0.444  0.960-  18 1.98   3 1.98  21 1.98  50 1.99
 105  0.889  0.778  0.294-  22 1.98  25 1.98   7 1.98  51 1.99
 106  0.889  0.778  0.627-  23 1.98  26 1.98   8 1.98  52 1.99
 107  0.889  0.778  0.960-  21 1.98  24 1.98   6 1.98  53 1.99
 108  0.111  0.222  0.000-  86 1.90  83 1.92 101 1.94  54 2.09  30 3.21  27 3.21  45 3.21  32 3.21
                            29 3.21  47 3.21   6 3.25   9 3.25  18 3.25  24 3.25  12 3.25   3 3.25
 
  LATTYP: Found a hexagonal cell.
 ALAT       =     9.7481175735
 C/A-ratio  =     1.6035510008
  
  Lattice vectors:
  
 A1 = (   9.7481175735,   0.0000000000,   0.0000000000)
 A2 = (  -4.8740587867,   8.4421174577,   0.0000000000)
 A3 = (   0.0000000000,   0.0000000000,  15.6316036913)


Analysis of symmetry for initial positions (statically):
=====================================================================
 Subroutine PRICEL returns:
 Original cell was already a primitive cell.
 

 Routine SETGRP: Setting up the symmetry group for a 
 hexagonal supercell.


 Subroutine GETGRP returns: Found  1 space group operations
 (whereof  1 operations were pure point group operations)
 out of a pool of 24 trial point group operations.


The static configuration has the point symmetry C_1 .


Analysis of symmetry for dynamics (positions and initial velocities):
=====================================================================
 Subroutine PRICEL returns:
 Original cell was already a primitive cell.
 

 Routine SETGRP: Setting up the symmetry group for a 
 hexagonal supercell.


 Subroutine GETGRP returns: Found  1 space group operations
 (whereof  1 operations were pure point group operations)
 out of a pool of 24 trial point group operations.


The dynamic configuration has the point symmetry C_1 .


Analysis of structural, dynamic, and magnetic symmetry:
=====================================================================
 Subroutine PRICEL returns:
 Original cell was already a primitive cell.
 

 Routine SETGRP: Setting up the symmetry group for a 
 hexagonal supercell.


 Subroutine GETGRP returns: Found  1 space group operations
 (whereof  1 operations were pure point group operations)
 out of a pool of 24 trial point group operations.


The overall configuration has the point symmetry C_1 .


 Subroutine INISYM returns: Found  1 space group operations
 (whereof  1 operations are pure point group operations),
 and found     1 'primitive' translations


----------------------------------------------------------------------------------------

                                     Primitive cell                                     

  volume of cell :    1286.3990

  direct lattice vectors                    reciprocal lattice vectors
     9.748117574  0.000000000  0.000000000     0.102583908  0.059226847 -0.000000000
    -4.874058787  8.442117458  0.000000000     0.000000000  0.118453694  0.000000000
     0.000000000  0.000000000 15.631603691     0.000000000 -0.000000000  0.063972963

  length of vectors
     9.748117574  9.748117573 15.631603691     0.118453694  0.118453694  0.063972963

  position of ions in fractional coordinates (direct lattice)
     0.111111111  0.222222222  0.333480727
     0.111111111  0.222222222  0.666814061
     0.111111111  0.555555556  0.000147394
     0.111111111  0.555555556  0.333480727
     0.111111111  0.555555556  0.666814061
     0.111111111  0.888888889  0.000147394
     0.111111111  0.888888889  0.333480727
     0.111111111  0.888888889  0.666814061
     0.444444444  0.222222222  0.000147394
     0.444444444  0.222222222  0.333480727
     0.444444444  0.222222222  0.666814061
     0.444444444  0.555555556  0.000147394
     0.444444444  0.555555556  0.333480727
     0.444444444  0.555555556  0.666814061
     0.444444444  0.888888889  0.000147394
     0.444444444  0.888888889  0.333480727
     0.444444444  0.888888889  0.666814061
     0.777777778  0.222222222  0.000147394
     0.777777778  0.222222222  0.333480727
     0.777777778  0.222222222  0.666814061
     0.777777778  0.555555556  0.000147394
     0.777777778  0.555555556  0.333480727
     0.777777778  0.555555556  0.666814061
     0.777777778  0.888888889  0.000147394
     0.777777778  0.888888889  0.333480727
     0.777777778  0.888888889  0.666814061
     0.222222222  0.111111111  0.166814061
     0.222222222  0.111111111  0.500147394
     0.222222222  0.111111111  0.833480727
     0.222222222  0.444444444  0.166814061
     0.222222222  0.444444444  0.500147394
     0.222222222  0.444444444  0.833480727
     0.222222222  0.777777778  0.166814061
     0.222222222  0.777777778  0.500147394
     0.222222222  0.777777778  0.833480727
     0.555555556  0.111111111  0.166814061
     0.555555556  0.111111111  0.500147394
     0.555555556  0.111111111  0.833480727
     0.555555556  0.444444444  0.166814061
     0.555555556  0.444444444  0.500147394
     0.555555556  0.444444444  0.833480727
     0.555555556  0.777777778  0.166814061
     0.555555556  0.777777778  0.500147394
     0.555555556  0.777777778  0.833480727
     0.888888889  0.111111111  0.166814061
     0.888888889  0.111111111  0.500147394
     0.888888889  0.111111111  0.833480727
     0.888888889  0.444444444  0.166814061
     0.888888889  0.444444444  0.500147394
     0.888888889  0.444444444  0.833480727
     0.888888889  0.777777778  0.166814061
     0.888888889  0.777777778  0.500147394
     0.888888889  0.777777778  0.833480727
     0.117020172  0.219407719  0.133599003
     0.111111111  0.222222222  0.460485940
     0.111111111  0.222222222  0.793819273
     0.111111111  0.555555556  0.127152606
     0.111111111  0.555555556  0.460485940
     0.111111111  0.555555556  0.793819273
     0.111111111  0.888888889  0.127152606
     0.111111111  0.888888889  0.460485940
     0.111111111  0.888888889  0.793819273
     0.444444444  0.222222222  0.127152606
     0.444444444  0.222222222  0.460485940
     0.444444444  0.222222222  0.793819273
     0.444444444  0.555555556  0.127152606
     0.444444444  0.555555556  0.460485940
     0.444444444  0.555555556  0.793819273
     0.444444444  0.888888889  0.127152606
     0.444444444  0.888888889  0.460485940
     0.444444444  0.888888889  0.793819273
     0.777777778  0.222222222  0.127152606
     0.777777778  0.222222222  0.460485940
     0.777777778  0.222222222  0.793819273
     0.777777778  0.555555556  0.127152606
     0.777777778  0.555555556  0.460485940
     0.777777778  0.555555556  0.793819273
     0.777777778  0.888888889  0.127152606
     0.777777778  0.888888889  0.460485940
     0.777777778  0.888888889  0.793819273
     0.222222222  0.111111111  0.293819273
     0.222222222  0.111111111  0.627152606
     0.213232959  0.112675751  0.955774268
     0.222222222  0.444444444  0.293819273
     0.222222222  0.444444444  0.627152606
     0.214733808  0.435168711  0.960782419
     0.222222222  0.777777778  0.293819273
     0.222222222  0.777777778  0.627152606
     0.222222222  0.777777778  0.960485940
     0.555555556  0.111111111  0.293819273
     0.555555556  0.111111111  0.627152606
     0.555555556  0.111111111  0.960485940
     0.555555556  0.444444444  0.293819273
     0.555555556  0.444444444  0.627152606
     0.555555556  0.444444444  0.960485940
     0.555555556  0.777777778  0.293819273
     0.555555556  0.777777778  0.627152606
     0.555555556  0.777777778  0.960485940
     0.888888889  0.111111111  0.293819273
     0.888888889  0.111111111  0.627152606
     0.892856861  0.110409242  0.961795029
     0.888888889  0.444444444  0.293819273
     0.888888889  0.444444444  0.627152606
     0.888888889  0.444444444  0.960485940
     0.888888889  0.777777778  0.293819273
     0.888888889  0.777777778  0.627152606
     0.888888889  0.777777778  0.960485940
     0.111111111  0.222222222  0.000147394

  ion indices of the primitive-cell ions
   primitive index   ion index
                 1           1
                 2           2
                 3           3
                 4           4
                 5           5
                 6           6
                 7           7
                 8           8
                 9           9
                10          10
                11          11
                12          12
                13          13
                14          14
                15          15
                16          16
                17          17
                18          18
                19          19
                20          20
                21          21
                22          22
                23          23
                24          24
                25          25
                26          26
                27          27
                28          28
                29          29
                30          30
                31          31
                32          32
                33          33
                34          34
                35          35
                36          36
                37          37
                38          38
                39          39
                40          40
                41          41
                42          42
                43          43
                44          44
                45          45
                46          46
                47          47
                48          48
                49          49
                50          50
                51          51
                52          52
                53          53
                54          54
                55          55
                56          56
                57          57
                58          58
                59          59
                60          60
                61          61
                62          62
                63          63
                64          64
                65          65
                66          66
                67          67
                68          68
                69          69
                70          70
                71          71
                72          72
                73          73
                74          74
                75          75
                76          76
                77          77
                78          78
                79          79
                80          80
                81          81
                82          82
                83          83
                84          84
                85          85
                86          86
                87          87
                88          88
                89          89
                90          90
                91          91
                92          92
                93          93
                94          94
                95          95
                96          96
                97          97
                98          98
                99          99
               100         100
               101         101
               102         102
               103         103
               104         104
               105         105
               106         106
               107         107
               108         108

----------------------------------------------------------------------------------------

 
 
 KPOINTS: Num irrep kpoints: 4                    

Automatic generation of k-mesh.
 Grid dimensions read from file:
 generate k-points for:    2    2    1

 Generating k-lattice:

  Cartesian coordinates                     Fractional coordinates (reciprocal lattice)
     0.051291954  0.029613424 -0.000000000     0.500000000  0.000000000  0.000000000
     0.000000000  0.059226847  0.000000000     0.000000000  0.500000000  0.000000000
     0.000000000 -0.000000000  0.063972963     0.000000000  0.000000000  1.000000000

  Length of vectors
     0.059226847  0.059226847  0.063972963

  Shift w.r.t. Gamma in fractional coordinates (k-lattice)
     0.000000000  0.000000000  0.000000000

 
 Subroutine IBZKPT returns following result:
 ===========================================
 
 Found      4 irreducible k-points:
 
 Following reciprocal coordinates:
            Coordinates               Weight
  0.000000  0.000000  0.000000      1.000000
  0.500000  0.000000  0.000000      1.000000
  0.000000  0.500000  0.000000      1.000000
  0.500000  0.500000  0.000000      1.000000
 
 Following cartesian coordinates:
            Coordinates               Weight
  0.000000  0.000000  0.000000      1.000000
  0.051292  0.029613  0.000000      1.000000
  0.000000  0.059227  0.000000      1.000000
  0.051292  0.088840  0.000000      1.000000
 
 
 Subroutine IBZKPT_HF returns following result:
 ==============================================
 
 Found      4 k-points in 1st BZ
 the following      4 k-points will be used (e.g. in the exchange kernel)
 Following reciprocal coordinates:   # in IRBZ
  0.000000  0.000000  0.000000    0.25000000   1 t-inv F
  0.500000  0.000000  0.000000    0.25000000   2 t-inv F
  0.000000  0.500000  0.000000    0.25000000   3 t-inv F
  0.500000  0.500000  0.000000    0.25000000   4 t-inv F


--------------------------------------------------------------------------------------------------------




 Dimension of arrays:
   k-points           NKPTS =      4   k-points in BZ     NKDIM =      4   number of bands    NBANDS=    630
   number of dos      NEDOS =    301   number of ions     NIONS =    108
   non local maximal  LDIM  =      6   non local SUM 2l+1 LMDIM =     18
   total plane-waves  NPLWV = 184320
   max r-space proj   IRMAX =   1629   max aug-charges    IRDMAX=   7175
   dimension x,y,z NGX =    48 NGY =   48 NGZ =   80
   dimension x,y,z NGXF=    96 NGYF=   96 NGZF=  160
   support grid    NGXF=    96 NGYF=   96 NGZF=  160
   ions per type =              53  54   1
   NGX,Y,Z   is equivalent  to a cutoff of   8.19,  8.19,  8.51 a.u.
   NGXF,Y,Z  is equivalent  to a cutoff of  16.37, 16.37, 17.02 a.u.

 SYSTEM =  unknown system                          
 POSCAR =  Na1 Zn53 O54                            

 Startparameter for this run:
   NWRITE =      2    write-flag & timer
   PREC   = normal    normal or accurate (medium, high low for compatibility)
   ISTART =      0    job   : 0-new  1-cont  2-samecut
   ICHARG =      2    charge: 1-file 2-atom 10-const
   ISPIN  =      2    spin polarized calculation?
   LNONCOLLINEAR =      F non collinear calculations
   LSORBIT =      F    spin-orbit coupling
   INIWAV =      1    electr: 0-lowe 1-rand  2-diag
   LASPH  =      T    aspherical Exc in radial PAW
 Electronic Relaxation 1
   ENCUT  =  400.0 eV  29.40 Ry    5.42 a.u.  15.90 15.90 25.49*2*pi/ulx,y,z
   ENINI  =  400.0     initial cutoff
   ENAUG  =  605.4 eV  augmentation charge cutoff
   NELM   =    100;   NELMIN=  2; NELMDL= -5     # of ELM steps 
   EDIFF  = 0.1E-04   stopping-criterion for ELM
   LREAL  =      T    real-space projection
   NLSPLINE    = F    spline interpolate recip. space projectors
   LCOMPAT=      F    compatible to vasp.4.4
   GGA_COMPAT  = T    GGA compatible to vasp.4.4-vasp.4.6
   LMAXPAW     = -100 max onsite density
   LMAXMIX     =    2 max onsite mixed and CHGCAR
   VOSKOWN=      0    Vosko Wilk Nusair interpolation
   ROPT   =   -0.00050  -0.00050  -0.00050
 Ionic relaxation
   EDIFFG = -.3E-01   stopping-criterion for IOM
   NSW    =    300    number of steps for IOM
   NBLOCK =      1;   KBLOCK =    300    inner block; outer block 
   IBRION =      2    ionic relax: 0-MD 1-quasi-New 2-CG
   NFREE  =      1    steps in history (QN), initial steepest desc. (CG)
   ISIF   =      2    stress and relaxation
   IWAVPR =     11    prediction:  0-non 1-charg 2-wave 3-comb
   ISYM   =      3    0-nonsym 1-usesym 2-fastsym
   LCORR  =      T    Harris-Foulkes like correction to forces

   POTIM  = 0.5000    time-step for ionic-motion
   TEIN   =    0.0    initial temperature
   TEBEG  =    0.0;   TEEND  =   0.0 temperature during run
   SMASS  =  -3.00    Nose mass-parameter (am)
   estimated Nose-frequenzy (Omega)   =  0.10E-29 period in steps = 0.13E+47 mass=  -0.217E-26a.u.
   SCALEE = 1.0000    scale energy and forces
   NPACO  =    256;   APACO  = 10.0  distance and # of slots for P.C.
   PSTRESS=    0.0 pullay stress

  Mass of Ions in am
   POMASS =  65.39 16.00 22.99
  Ionic Valenz
   ZVAL   =  12.00  6.00  1.00
  Atomic Wigner-Seitz radii
   RWIGS  =  -1.00 -1.00 -1.00
  virtual crystal weights 
   VCA    =   1.00  1.00  1.00
   NELECT =     961.0000    total number of electrons
   NUPDOWN=      -1.0000    fix difference up-down

 DOS related values:
   EMIN   =  10.00;   EMAX   =-10.00  energy-range for DOS
   EFERMI =   0.00;   METHOD = LEGACY      
   ISMEAR =     0;   SIGMA  =   0.10  broadening in eV -4-tet -1-fermi 0-gaus
   EFERMI_NEDOS =   21; number of points for ismear=-14 and -15

 Electronic relaxation 2 (details)
   IALGO  =     58    algorithm
   LDIAG  =      T    sub-space diagonalisation (order eigenvalues)
   LSUBROT=      F    optimize rotation matrix (better conditioning)
   LROBUST=      F    robust break criterion during scf (extrapolated energy error)
   ISEARCH=      0    line search for conjugate gradient (0, 1=use gradient)
   TURBO    =      0    0=normal 1=particle mesh
   IRESTART =      0    0=no restart 2=restart with 2 vectors
   NREBOOT  =      0    no. of reboots
   NMIN     =      0    reboot dimension
   EREF     =   0.00    reference energy to select bands
   IMIX   =      4    mixing-type and parameters
     AMIX     =   0.40;   BMIX     =  1.00
     AMIX_MAG =   1.60;   BMIX_MAG =  1.00
     AMIN     =   0.10
     WC   =   100.;   INIMIX=   1;  MIXPRE=   1;  MAXMIX= -45

 Intra band minimization:
   WEIMIN = 0.0010     energy-eigenvalue tresh-hold
   EBREAK =  0.40E-08  absolut break condition
   DEPER  =   0.30     relativ break condition  

   TIME   =   0.40     timestep for ELM

  volume/ion in A,a.u.               =      11.91        80.38
  Fermi-wavevector in a.u.,A,eV,Ry     =   1.485448  2.807089 30.022006  2.206555
  Thomas-Fermi vector in A             =   2.598858
 
 Write flags
   LWAVE        =      T    write WAVECAR
   LDOWNSAMPLE  =      F    k-point downsampling of WAVECAR
   LCHARG       =      F    write CHGCAR
   LVTOT        =      F    write LOCPOT, total local potential
   LVHAR        =      F    write LOCPOT, Hartree potential only
   WRT_POTENTIAL= false  ! write potential to hdf5 file
   LELF         =      F    write electronic localiz. function (ELF)
   LORBIT       =     10    0 simple, 1 ext, 2 COOP (PROOUT), +10 PAW based schemes


 Python interface
   PLUGINS active      =      F    recompile with -DPLUGINS to activate
 
 Dipole corrections
   LMONO      =      F    monopole corrections only (constant potential shift)
   LDIPOL     =      F    correct potential (dipole corrections)
   IDIPOL     =      0    1-x, 2-y, 3-z, 4-all directions 
   EPSILON    =  1.0000000 bulk dielectric constant
   LVACPOTAV  =      F  vacuum potentials using an averaging scheme for the charge density
   VACPOTFLAT =  0.1000000 required flatness to determine vacuum potential
 
Coulomb truncation method
  LTRUNCATE          =      F  Coulomb kernel truncation to be used

 
 Exchange correlation treatment:
   GGA     = PE    functional components
   XC_C    = 1    coefficients multiplying the functional components
   LIBXC   =     F    Libxc                    
   VOSKOWN =     0    Vosko Wilk Nusair interpolation
   EXXOEP  =     0    0=HF, 1=EXX-LHF (local Hartree Fock) 2=EXX OEP
   LHFCALC =     T    Hartree Fock is set to
   LSYMGRAD=     F    symmetrize gradient (conserves proper symmetry)
   PRECFOCK=fast      Normal, Fast or Accurate (Low or Medium for compatibility)
   LRHFCALC=     F    long range Hartree Fock
   LRSCOR  =     F    long range correlation only (use DFT for short range part)
   LTHOMAS =     F    Thomas Fermi screening in HF
   LMODELHF=     F    short range full HF, long range fraction AEXX
   FOCKCORR=     1    mode to apply convergence corrections
   LFOCKACE=     T    use Adeptively-Compressed-Exchange operator
   ENCUT4O =  -1.0   cutoff for four orbital integrals eV
   LMAXFOCK=     4    L truncation for augmentation on plane wave grid
   LMAXFOCKAE=  -1    L truncation for all-electron charge restoration on plane wave grid
   NMAXFOCKAE=   1    number of basis functions for all-electron charge restoration
   LFOCKAEDFT=     F  apply the AE augmentation even for DFT
   NKREDX  =     1    reduce k-point grid by
   NKREDY  =     1    reduce k-point grid by
   NKREDZ  =     1    reduce k-point grid by
   SHIFTRED=     F    shift reduced grid of Gamma
   HFKIDENT=     F    idential grid for each k-point
   ODDONLY =     F    use only odd q-grid points
   EVENONLY=     F    use only even q-grid points
   HFALPHA =   -1.0000 decay constant for conv. correction
   MCALPHA =    0.0000 extent of test-charge in conv. correction in multipole expansion
   AEXX    =    0.3600 exact exchange contribution
   HFSCREEN=    0.2000 screening length (either q_TF or 0.3 A-1)
   HFSCREENC=   0.2000 screening length for correlation (either q_TF or 0.3 A-1)
   HFRCUT  =    0.0000 spherical cutoff for potential kernel
   ALDAX   =    0.6400 LDA exchange part
   AGGAX   =    0.6400 GGA exchange part
   AMGGAX  =    0.6400 meta-GGA exchange part
   ALDAC   =    1.0000 LDA correlation
   AGGAC   =    1.0000 GGA correlation
   AMGGAC  =    1.0000 meta-GGA correlation
   ENCUTFOCK=  -1.0 apply spherical cutoff to Coloumb kernel
   NBANDSGWLOW=     1    first orbital included in HF term
   NBLOCK_FOCK=    64    blocking factor in FOCK_ACC

 Parameters of functionals:
   PE:
     No parameter
 
 Van der Waals corrections
   IVDW    =     0    specifies the selected vdW correction

 Linear response parameters
   LEPSILON=     F    determine dielectric tensor
   LRPA    =     F    only Hartree local field effects (RPA)
   LNABLA  =     F    use nabla operator in PAW spheres
   LVEL    =     F    velocity operator in full k-point grid
   CSHIFT  =0.1000    complex shift for real part using Kramers Kronig
   OMEGAMAX=  -1.0    maximum frequency
   DEG_THRESHOLD= 0.2000000E-02 threshold for treating states as degnerate
   RTIME   =   -0.100 relaxation time in fs
  (WPLASMAI=    0.000 imaginary part of plasma frequency in eV, 0.658/RTIME)
   DFIELD  = 0.0000000 0.0000000 0.0000000 field for delta impulse in time
 
  Optional k-point grid parameters
   LKPOINTS_OPT  =     F    use optional k-point grid
   KPOINTS_OPT_MODE=     1    mode for optional k-point grid
 
 Orbital magnetization related:
   ORBITALMAG=     F  switch on orbital magnetization
   LCHIMAG   =     F  perturbation theory with respect to B field
   DQ        =  0.001000  dq finite difference perturbation B field
   LLRAUG    =     F  two centre corrections for induced B field
   LBONE     =     F  B-component reconstruction in AE one-centre
   LVGVCALC  =     T  calculate vGv susceptibility
   LVGVAPPL  =     F  apply vGv susceptibility instead of pGv for G=0

 Random number generation:
   RANDOM_GENERATOR = DEFAULT
   PCG_SEED         = not used


--------------------------------------------------------------------------------------------------------


 conjugate gradient relaxation of ions
 charge density and potential will be updated during run
 spin polarized calculation
 Conjugate gradient for all bands (Freysoldt, et al. PRB 79, 241103 (2009))
 preconditioned conjugated gradient                                        
 perform sub-space diagonalisation
    before iterative eigenvector-optimisation
 modified Broyden-mixing scheme, WC =      100.0
 initial mixing is a Kerker type mixing with AMIX =  0.4000 and BMIX =      1.0000
 Hartree-type preconditioning will be used
 using additional bands           149
 real space projection scheme for non local part
 use partial core corrections
 no Harris-corrections to forces 
 use gradient corrections 
 use of overlap-Matrix (Vanderbilt PP)
 Gauss-broadening in eV      SIGMA  =   0.10


--------------------------------------------------------------------------------------------------------


  energy-cutoff  :      400.00
  volume of cell :     1286.40
      direct lattice vectors                 reciprocal lattice vectors
     9.748117574  0.000000000  0.000000000     0.102583908  0.059226847 -0.000000000
    -4.874058787  8.442117458  0.000000000     0.000000000  0.118453694  0.000000000
     0.000000000  0.000000000 15.631603691     0.000000000 -0.000000000  0.063972963

  length of vectors
     9.748117574  9.748117573 15.631603691     0.118453694  0.118453694  0.063972963


 
 k-points in units of 2pi/SCALE and weight: Num irrep kpoints: 4                    
   0.00000000  0.00000000  0.00000000       0.250
   0.05129195  0.02961342  0.00000000       0.250
   0.00000000  0.05922685  0.00000000       0.250
   0.05129195  0.08884027  0.00000000       0.250
 
 k-points in reciprocal lattice and weights: Num irrep kpoints: 4                    
   0.00000000  0.00000000  0.00000000       0.250
   0.50000000  0.00000000  0.00000000       0.250
   0.00000000  0.50000000  0.00000000       0.250
   0.50000000  0.50000000  0.00000000       0.250
 
 position of ions in fractional coordinates (direct lattice) 
   0.11111111  0.22222222  0.33348073
   0.11111111  0.22222222  0.66681406
   0.11111111  0.55555556  0.00014739
   0.11111111  0.55555556  0.33348073
   0.11111111  0.55555556  0.66681406
   0.11111111  0.88888889  0.00014739
   0.11111111  0.88888889  0.33348073
   0.11111111  0.88888889  0.66681406
   0.44444444  0.22222222  0.00014739
   0.44444444  0.22222222  0.33348073
   0.44444444  0.22222222  0.66681406
   0.44444444  0.55555556  0.00014739
   0.44444444  0.55555556  0.33348073
   0.44444444  0.55555556  0.66681406
   0.44444444  0.88888889  0.00014739
   0.44444444  0.88888889  0.33348073
   0.44444444  0.88888889  0.66681406
   0.77777778  0.22222222  0.00014739
   0.77777778  0.22222222  0.33348073
   0.77777778  0.22222222  0.66681406
   0.77777778  0.55555556  0.00014739
   0.77777778  0.55555556  0.33348073
   0.77777778  0.55555556  0.66681406
   0.77777778  0.88888889  0.00014739
   0.77777778  0.88888889  0.33348073
   0.77777778  0.88888889  0.66681406
   0.22222222  0.11111111  0.16681406
   0.22222222  0.11111111  0.50014739
   0.22222222  0.11111111  0.83348073
   0.22222222  0.44444444  0.16681406
   0.22222222  0.44444444  0.50014739
   0.22222222  0.44444444  0.83348073
   0.22222222  0.77777778  0.16681406
   0.22222222  0.77777778  0.50014739
   0.22222222  0.77777778  0.83348073
   0.55555556  0.11111111  0.16681406
   0.55555556  0.11111111  0.50014739
   0.55555556  0.11111111  0.83348073
   0.55555556  0.44444444  0.16681406
   0.55555556  0.44444444  0.50014739
   0.55555556  0.44444444  0.83348073
   0.55555556  0.77777778  0.16681406
   0.55555556  0.77777778  0.50014739
   0.55555556  0.77777778  0.83348073
   0.88888889  0.11111111  0.16681406
   0.88888889  0.11111111  0.50014739
   0.88888889  0.11111111  0.83348073
   0.88888889  0.44444444  0.16681406
   0.88888889  0.44444444  0.50014739
   0.88888889  0.44444444  0.83348073
   0.88888889  0.77777778  0.16681406
   0.88888889  0.77777778  0.50014739
   0.88888889  0.77777778  0.83348073
   0.11702017  0.21940772  0.13359900
   0.11111111  0.22222222  0.46048594
   0.11111111  0.22222222  0.79381927
   0.11111111  0.55555556  0.12715261
   0.11111111  0.55555556  0.46048594
   0.11111111  0.55555556  0.79381927
   0.11111111  0.88888889  0.12715261
   0.11111111  0.88888889  0.46048594
   0.11111111  0.88888889  0.79381927
   0.44444444  0.22222222  0.12715261
   0.44444444  0.22222222  0.46048594
   0.44444444  0.22222222  0.79381927
   0.44444444  0.55555556  0.12715261
   0.44444444  0.55555556  0.46048594
   0.44444444  0.55555556  0.79381927
   0.44444444  0.88888889  0.12715261
   0.44444444  0.88888889  0.46048594
   0.44444444  0.88888889  0.79381927
   0.77777778  0.22222222  0.12715261
   0.77777778  0.22222222  0.46048594
   0.77777778  0.22222222  0.79381927
   0.77777778  0.55555556  0.12715261
   0.77777778  0.55555556  0.46048594
   0.77777778  0.55555556  0.79381927
   0.77777778  0.88888889  0.12715261
   0.77777778  0.88888889  0.46048594
   0.77777778  0.88888889  0.79381927
   0.22222222  0.11111111  0.29381927
   0.22222222  0.11111111  0.62715261
   0.21323296  0.11267575  0.95577427
   0.22222222  0.44444444  0.29381927
   0.22222222  0.44444444  0.62715261
   0.21473381  0.43516871  0.96078242
   0.22222222  0.77777778  0.29381927
   0.22222222  0.77777778  0.62715261
   0.22222222  0.77777778  0.96048594
   0.55555556  0.11111111  0.29381927
   0.55555556  0.11111111  0.62715261
   0.55555556  0.11111111  0.96048594
   0.55555556  0.44444444  0.29381927
   0.55555556  0.44444444  0.62715261
   0.55555556  0.44444444  0.96048594
   0.55555556  0.77777778  0.29381927
   0.55555556  0.77777778  0.62715261
   0.55555556  0.77777778  0.96048594
   0.88888889  0.11111111  0.29381927
   0.88888889  0.11111111  0.62715261
   0.89285686  0.11040924  0.96179503
   0.88888889  0.44444444  0.29381927
   0.88888889  0.44444444  0.62715261
   0.88888889  0.44444444  0.96048594
   0.88888889  0.77777778  0.29381927
   0.88888889  0.77777778  0.62715261
   0.88888889  0.77777778  0.96048594
   0.11111111  0.22222222  0.00014739
 
 position of ions in cartesian coordinates  (Angst):
   0.00000000  1.87602610  5.21283857
   0.00000000  1.87602610 10.42337313
  -1.62468626  4.69006525  0.00230400
  -1.62468626  4.69006525  5.21283857
  -1.62468626  4.69006525 10.42337313
  -3.24937252  7.50410441  0.00230400
  -3.24937252  7.50410441  5.21283857
  -3.24937252  7.50410441 10.42337313
   3.24937252  1.87602610  0.00230400
   3.24937252  1.87602610  5.21283857
   3.24937252  1.87602610 10.42337313
   1.62468626  4.69006525  0.00230400
   1.62468626  4.69006525  5.21283857
   1.62468626  4.69006525 10.42337313
  -0.00000000  7.50410441  0.00230400
  -0.00000000  7.50410441  5.21283857
  -0.00000000  7.50410441 10.42337313
   6.49874505  1.87602610  0.00230400
   6.49874505  1.87602610  5.21283857
   6.49874505  1.87602610 10.42337313
   4.87405879  4.69006525  0.00230400
   4.87405879  4.69006525  5.21283857
   4.87405879  4.69006525 10.42337313
   3.24937252  7.50410441  0.00230400
   3.24937252  7.50410441  5.21283857
   3.24937252  7.50410441 10.42337313
   1.62468626  0.93801305  2.60757128
   1.62468626  0.93801305  7.81810585
   1.62468626  0.93801305 13.02864041
   0.00000000  3.75205220  2.60757128
   0.00000000  3.75205220  7.81810585
   0.00000000  3.75205220 13.02864041
  -1.62468626  6.56609136  2.60757128
  -1.62468626  6.56609136  7.81810585
  -1.62468626  6.56609136 13.02864041
   4.87405879  0.93801305  2.60757128
   4.87405879  0.93801305  7.81810585
   4.87405879  0.93801305 13.02864041
   3.24937253  3.75205220  2.60757128
   3.24937253  3.75205220  7.81810585
   3.24937253  3.75205220 13.02864041
   1.62468626  6.56609136  2.60757128
   1.62468626  6.56609136  7.81810585
   1.62468626  6.56609136 13.02864041
   8.12343131  0.93801305  2.60757128
   8.12343131  0.93801305  7.81810585
   8.12343131  0.93801305 13.02864041
   6.49874505  3.75205220  2.60757128
   6.49874505  3.75205220  7.81810585
   6.49874505  3.75205220 13.02864041
   4.87405879  6.56609136  2.60757128
   4.87405879  6.56609136  7.81810585
   4.87405879  6.56609136 13.02864041
   0.07132028  1.85226573  2.08836667
   0.00000000  1.87602610  7.19813371
   0.00000000  1.87602610 12.40866827
  -1.62468626  4.69006525  1.98759915
  -1.62468626  4.69006525  7.19813371
  -1.62468626  4.69006525 12.40866827
  -3.24937252  7.50410441  1.98759915
  -3.24937252  7.50410441  7.19813371
  -3.24937252  7.50410441 12.40866827
   3.24937252  1.87602610  1.98759915
   3.24937252  1.87602610  7.19813371
   3.24937252  1.87602610 12.40866827
   1.62468626  4.69006525  1.98759915
   1.62468626  4.69006525  7.19813371
   1.62468626  4.69006525 12.40866827
  -0.00000000  7.50410441  1.98759915
  -0.00000000  7.50410441  7.19813371
  -0.00000000  7.50410441 12.40866827
   6.49874505  1.87602610  1.98759915
   6.49874505  1.87602610  7.19813371
   6.49874505  1.87602610 12.40866827
   4.87405879  4.69006525  1.98759915
   4.87405879  4.69006525  7.19813371
   4.87405879  4.69006525 12.40866827
   3.24937252  7.50410441  1.98759915
   3.24937252  7.50410441  7.19813371
   3.24937252  7.50410441 12.40866827
   1.62468626  0.93801305  4.59286643
   1.62468626  0.93801305  9.80340099
   1.52943171  0.95122193 14.94028458
   0.00000000  3.75205220  4.59286643
   0.00000000  3.75205220  9.80340099
  -0.02778747  3.67374537 15.01857001
  -1.62468626  6.56609136  4.59286643
  -1.62468626  6.56609136  9.80340099
  -1.62468626  6.56609136 15.01393556
   4.87405879  0.93801305  4.59286643
   4.87405879  0.93801305  9.80340099
   4.87405879  0.93801305 15.01393556
   3.24937253  3.75205220  4.59286643
   3.24937253  3.75205220  9.80340099
   3.24937253  3.75205220 15.01393556
   1.62468626  6.56609136  4.59286643
   1.62468626  6.56609136  9.80340099
   1.62468626  6.56609136 15.01393556
   8.12343131  0.93801305  4.59286643
   8.12343131  0.93801305  9.80340099
   8.16553252  0.93208779 15.03439873
   6.49874505  3.75205220  4.59286643
   6.49874505  3.75205220  9.80340099
   6.49874505  3.75205220 15.01393556
   4.87405879  6.56609136  4.59286643
   4.87405879  6.56609136  9.80340099
   4.87405879  6.56609136 15.01393556
   0.00000000  1.87602610  0.00230400
 


--------------------------------------------------------------------------------------------------------


 k-point     1 :   0.0000 0.0000 0.0000  plane waves:   23295
 k-point     2 :   0.5000 0.0000 0.0000  plane waves:   23392
 k-point     3 :   0.0000 0.5000 0.0000  plane waves:   23392
 k-point     4 :   0.5000 0.5000 0.0000  plane waves:   23392

 maximum and minimum number of plane-waves per node :     23392    23295

 maximum number of plane-waves:     23392
 maximum index in each direction: 
   IXMAX=   15   IYMAX=   15   IZMAX=   25
   IXMIN=  -16   IYMIN=  -16   IZMIN=  -25


 serial   3D FFT for wavefunctions
 parallel 3D FFT for charge:
    minimum data exchange during FFTs selected (reduces bandwidth)


 FFT grid for exact exchange (Hartree Fock) 
  NGX = 36; NGY = 36; NGZ = 54

 
 Radii for the augmentation spheres in the non-local exchange
 for species   1 augmentation radius   1.285 (default was   0.952)
       energy cutoff for augmentation   1600.0
 for species   2 augmentation radius   0.974 (default was   0.722)
       energy cutoff for augmentation   1600.0
 for species   3 augmentation radius   1.514 (default was   1.121)
       energy cutoff for augmentation   1600.0
 Maximum index for augmentation-charges in exchange           791
  SETUP_FOCK is finished

 total amount of memory used by VASP MPI-rank0  6255761. kBytes
=======================================================================

   base                                    :      30000. kBytes
   nonlr-proj                              :      30002. kBytes
   fftplans                                :      50796. kBytes
   grid                                    :     145907. kBytes
   one-center                              :       3359. kBytes
   HF                                      :        194. kBytes
   wavefun                                 :    5995503. kBytes
 
     INWAV:  cpu time      0.0000: real time      0.0000
 Broyden mixing: mesh for mixing (old mesh)
   NGX = 31   NGY = 31   NGZ = 51
  (NGX  = 96   NGY  = 96   NGZ  =160)
  gives a total of  49011 points

 initial charge density was supplied:
 charge density of overlapping atoms calculated
 number of electron     961.0000000 magnetization     108.0000000
 keeping initial charge density in first step


--------------------------------------------------------------------------------------------------------


 Maximum index for non-local projection operator          1554
 Maximum index for augmentation-charges          6753 (set IRDMAX)


--------------------------------------------------------------------------------------------------------


 First call to EWALD:  gamma=   0.163
 Maximum number of real-space cells   3x   3x   2
 Maximum number of reciprocal cells   3x   3x   4

    FEWALD:  cpu time      0.3430: real time      0.3440


--------------------------------------- Ionic step        1  -------------------------------------------




--------------------------------------- Iteration      1(   1)  ---------------------------------------


    POTLOK:  cpu time      0.0335: real time      0.0336
    SETDIJ:  cpu time      4.6424: real time      4.6567
    TRIAL :  cpu time      2.6890: real time      4.1088
    CORREC:  cpu time      0.0011: real time      0.0011
    --------------------------------------------
      LOOP:  cpu time      8.1580: real time      9.5952

 eigenvalue-minimisations  : 10080
 total energy-change (2. order) :-0.2282551E+05  (-0.3405819E+05)
 number of electron     961.0000000 magnetization     108.0000000
 augmentation part      961.0000000 magnetization     108.0000000

 Free energy of the ion-electron system (eV)
  ---------------------------------------------------
  alpha Z        PSCENC =      6142.85744291
  Ewald energy   TEWEN  =    -78108.94951981
  -Hartree energ DENC   =    -34875.94815755
  -exchange      EXHF   =         0.00000000
  -V(xc)+E(xc)   XCENC  =      4501.72414850
  PAW double counting   =     95867.48440194  -136843.28661525
  entropy T*S    EENTRO =        -0.03903567
  eigenvalues    EBANDS =      4822.35320718
  atomic energy  EATOM  =    115668.29297923
  ---------------------------------------------------
  free energy    TOTEN  =    -22825.51114853 eV

  energy without entropy =   -22825.47211286  energy(sigma->0) =   -22825.49163069
  exchange ACFDT corr.  =         0.00000000  see jH, gK, PRB 81, 115126


--------------------------------------------------------------------------------------------------------




--------------------------------------- Iteration      1(   2)  ---------------------------------------


    TRIAL :  cpu time      2.2718: real time      2.2797
    CORREC:  cpu time      0.0014: real time      0.0014
    --------------------------------------------
      LOOP:  cpu time      2.2734: real time      2.2816

 eigenvalue-minimisations  : 10080
 total energy-change (2. order) :-0.1040981E+05  (-0.9702134E+04)
 number of electron     961.0000000 magnetization     108.0000000
 augmentation part      961.0000000 magnetization     108.0000000

 Free energy of the ion-electron system (eV)
  ---------------------------------------------------
  alpha Z        PSCENC =      6142.85744291
  Ewald energy   TEWEN  =    -78108.94951981
  -Hartree energ DENC   =    -34875.94815755
  -exchange      EXHF   =         0.00000000
  -V(xc)+E(xc)   XCENC  =      4501.72414850
  PAW double counting   =     95867.48440194  -136843.28661525
  entropy T*S    EENTRO =        -0.04417385
  eigenvalues    EBANDS =     -5587.45082396
  atomic energy  EATOM  =    115668.29297923
  ---------------------------------------------------
  free energy    TOTEN  =    -33235.32031786 eV

  energy without entropy =   -33235.27614400  energy(sigma->0) =   -33235.29823093
  exchange ACFDT corr.  =         0.00000000  see jH, gK, PRB 81, 115126


--------------------------------------------------------------------------------------------------------




--------------------------------------- Iteration      1(   3)  ---------------------------------------


    TRIAL :  cpu time      2.3471: real time      2.3553
    CORREC:  cpu time      0.0016: real time      0.0017
    --------------------------------------------
      LOOP:  cpu time      2.3489: real time      2.3574

 eigenvalue-minimisations  : 10560
 total energy-change (2. order) :-0.2490564E+04  (-0.2375584E+04)
 number of electron     961.0000000 magnetization     108.0000000
 augmentation part      961.0000000 magnetization     108.0000000

 Free energy of the ion-electron system (eV)
  ---------------------------------------------------
  alpha Z        PSCENC =      6142.85744291
  Ewald energy   TEWEN  =    -78108.94951981
  -Hartree energ DENC   =    -34875.94815755
  -exchange      EXHF   =         0.00000000
  -V(xc)+E(xc)   XCENC  =      4501.72414850
  PAW double counting   =     95867.48440194  -136843.28661525
  entropy T*S    EENTRO =        -0.03728447
  eigenvalues    EBANDS =     -8078.02153514
  atomic energy  EATOM  =    115668.29297923
  ---------------------------------------------------
  free energy    TOTEN  =    -35725.88413964 eV

  energy without entropy =   -35725.84685517  energy(sigma->0) =   -35725.86549741
  exchange ACFDT corr.  =         0.00000000  see jH, gK, PRB 81, 115126


--------------------------------------------------------------------------------------------------------




--------------------------------------- Iteration      1(   4)  ---------------------------------------


    TRIAL :  cpu time      2.5161: real time      2.5247
    CORREC:  cpu time      0.0017: real time      0.0017
    --------------------------------------------
      LOOP:  cpu time      2.5180: real time      2.5269

 eigenvalue-minimisations  : 11520
 total energy-change (2. order) :-0.2104780E+03  (-0.2063778E+03)
 number of electron     961.0000000 magnetization     108.0000000
 augmentation part      961.0000000 magnetization     108.0000000

 Free energy of the ion-electron system (eV)
  ---------------------------------------------------
  alpha Z        PSCENC =      6142.85744291
  Ewald energy   TEWEN  =    -78108.94951981
  -Hartree energ DENC   =    -34875.94815755
  -exchange      EXHF   =         0.00000000
  -V(xc)+E(xc)   XCENC  =      4501.72414850
  PAW double counting   =     95867.48440194  -136843.28661525
  entropy T*S    EENTRO =        -0.06994037
  eigenvalues    EBANDS =     -8288.46686841
  atomic energy  EATOM  =    115668.29297923
  ---------------------------------------------------
  free energy    TOTEN  =    -35936.36212881 eV

  energy without entropy =   -35936.29218845  energy(sigma->0) =   -35936.32715863
  exchange ACFDT corr.  =         0.00000000  see jH, gK, PRB 81, 115126


--------------------------------------------------------------------------------------------------------




--------------------------------------- Iteration      1(   5)  ---------------------------------------


    POTLOK:  cpu time      2.5418: real time      2.5491
    SETDIJ:  cpu time     16.4257: real time     16.4754
    TRIAL :  cpu time    104.2308: real time    104.6483
    CORREC:  cpu time      0.0018: real time      0.0018
    CHARGE:  cpu time      0.4366: real time      0.4634
    --------------------------------------------
      LOOP:  cpu time    123.6368: real time    124.1384

 eigenvalue-minimisations  : 12608
 total energy-change (2. order) : 0.3517397E+05  (-0.3910785E+02)
 number of electron     961.0001801 magnetization       0.9999981
 augmentation part      485.5286468 magnetization       3.2963094

 Free energy of the ion-electron system (eV)
  ---------------------------------------------------
  alpha Z        PSCENC =      6142.85744291
  Ewald energy   TEWEN  =    -78108.94951981
  -Hartree energ DENC   =    -34875.94815755
  -exchange      EXHF   =      4292.18399335
  -V(xc)+E(xc)   XCENC  =      2955.78437091
  PAW double counting   =     97359.79960525  -105766.28794197
  entropy T*S    EENTRO =        -0.05069936
  eigenvalues    EBANDS =     -8430.07312271
  atomic energy  EATOM  =    115668.29297923
  ---------------------------------------------------
  free energy    TOTEN  =      -762.39104975 eV

  energy without entropy =     -762.34035039  energy(sigma->0) =     -762.36570007
  exchange ACFDT corr.  =        -0.06873928  see jH, gK, PRB 81, 115126


--------------------------------------------------------------------------------------------------------




--------------------------------------- Iteration      1(   6)  ---------------------------------------


    POTLOK:  cpu time      2.6032: real time      2.6104
    SETDIJ:  cpu time     16.6318: real time     16.6814
    TRIAL :  cpu time    103.9446: real time    104.3026
    CORREC:  cpu time    121.7844: real time    122.9357
    CHARGE:  cpu time      0.2590: real time      0.2898
    --------------------------------------------
      LOOP:  cpu time    245.2271: real time    246.8246

 eigenvalue-minimisations  :     0
 total energy-change (2. order) : 0.3208528E+03  (-0.2002492E+03)
 number of electron     961.0001925 magnetization       0.9999982
 augmentation part      472.9077369 magnetization       2.4501710

 Free energy of the ion-electron system (eV)
  ---------------------------------------------------
  alpha Z        PSCENC =      6142.85744291
  Ewald energy   TEWEN  =    -78108.94951981
  -Hartree energ DENC   =    -38477.58145811
  -exchange      EXHF   =      4275.55332849
  -V(xc)+E(xc)   XCENC  =      3111.37214419
  PAW double counting   =    115416.60430338  -124247.26104319
  entropy T*S    EENTRO =        -0.05069936
  eigenvalues    EBANDS =     -4222.37568568
  atomic energy  EATOM  =    115668.29297923
  ---------------------------------------------------
  free energy    TOTEN  =      -441.53820795 eV

  energy without entropy =     -441.48750859  energy(sigma->0) =     -441.51285827
  exchange ACFDT corr.  =        -0.03955899  see jH, gK, PRB 81, 115126


--------------------------------------------------------------------------------------------------------




--------------------------------------- Iteration      1(   7)  ---------------------------------------


    POTLOK:  cpu time      2.5333: real time      2.5488
    SETDIJ:  cpu time     16.7223: real time     16.7722
    TRIAL :  cpu time    103.6971: real time    104.1860
    CORREC:  cpu time    121.7421: real time    123.1465
    CHARGE:  cpu time      0.2551: real time      0.2729
    --------------------------------------------
      LOOP:  cpu time    244.9519: real time    246.9331

 eigenvalue-minimisations  :     0
 total energy-change (2. order) :-0.2004856E+03  (-0.2275333E+02)
 number of electron     961.0001960 magnetization       0.9999984
 augmentation part      469.4840360 magnetization       1.4020445

 Free energy of the ion-electron system (eV)
  ---------------------------------------------------
  alpha Z        PSCENC =      6142.85744291
  Ewald energy   TEWEN  =    -78108.94951981
  -Hartree energ DENC   =    -36226.14619305
  -exchange      EXHF   =      4097.17882824
  -V(xc)+E(xc)   XCENC  =      3010.68149910
  PAW double counting   =    116536.96009822  -125145.10956360
  entropy T*S    EENTRO =        -0.04756564
  eigenvalues    EBANDS =     -6617.74185073
  atomic energy  EATOM  =    115668.29297923
  ---------------------------------------------------
  free energy    TOTEN  =      -642.02384513 eV

  energy without entropy =     -641.97627949  energy(sigma->0) =     -642.00006231
  exchange ACFDT corr.  =        -0.13427062  see jH, gK, PRB 81, 115126


--------------------------------------------------------------------------------------------------------




--------------------------------------- Iteration      1(   8)  ---------------------------------------


    POTLOK:  cpu time      2.5703: real time      2.6135
    SETDIJ:  cpu time     16.6946: real time     16.7535
    TRIAL :  cpu time    103.8715: real time    104.2640
    CORREC:  cpu time    121.8628: real time    122.4280
    CHARGE:  cpu time      0.2536: real time      0.2544
    --------------------------------------------
      LOOP:  cpu time    245.2534: real time    246.3291

 eigenvalue-minimisations  :     0
 total energy-change (2. order) :-0.2253919E+02  (-0.7145517E+01)
 number of electron     961.0001963 magnetization       0.9999986
 augmentation part      469.3322955 magnetization       1.0098518

 Free energy of the ion-electron system (eV)
  ---------------------------------------------------
  alpha Z        PSCENC =      6142.85744291
  Ewald energy   TEWEN  =    -78108.94951981
  -Hartree energ DENC   =    -36042.57918795
  -exchange      EXHF   =      4078.79786911
  -V(xc)+E(xc)   XCENC  =      3001.13594175
  PAW double counting   =    116816.97348829  -125395.86823924
  entropy T*S    EENTRO =        -0.04100737
  eigenvalues    EBANDS =     -6825.18279872
  atomic energy  EATOM  =    115668.29297923
  ---------------------------------------------------
  free energy    TOTEN  =      -664.56303181 eV

  energy without entropy =     -664.52202444  energy(sigma->0) =     -664.54252812
  exchange ACFDT corr.  =        -0.06199050  see jH, gK, PRB 81, 115126


--------------------------------------------------------------------------------------------------------




--------------------------------------- Iteration      1(   9)  ---------------------------------------


    POTLOK:  cpu time      2.5285: real time      2.5354
    SETDIJ:  cpu time     16.7244: real time     16.8019
    TRIAL :  cpu time    103.6278: real time    104.2137
    CORREC:  cpu time    121.6526: real time    122.1060
    CHARGE:  cpu time      0.2537: real time      0.2547
    --------------------------------------------
      LOOP:  cpu time    244.7958: real time    245.9234

 eigenvalue-minimisations  :     0
 total energy-change (2. order) :-0.7133780E+01  (-0.1719438E+01)
 number of electron     961.0001954 magnetization       0.9999973
 augmentation part      469.0140793 magnetization       0.9148887

 Free energy of the ion-electron system (eV)
  ---------------------------------------------------
  alpha Z        PSCENC =      6142.85744291
  Ewald energy   TEWEN  =    -78108.94951981
  -Hartree energ DENC   =    -36020.63177228
  -exchange      EXHF   =      4070.55999484
  -V(xc)+E(xc)   XCENC  =      2999.60951387
  PAW double counting   =    116806.22460129  -125431.27384205
  entropy T*S    EENTRO =        -0.03286076
  eigenvalues    EBANDS =     -6798.35334896
  atomic energy  EATOM  =    115668.29297923
  ---------------------------------------------------
  free energy    TOTEN  =      -671.69681171 eV

  energy without entropy =     -671.66395096  energy(sigma->0) =     -671.68038133
  exchange ACFDT corr.  =        -0.06118443  see jH, gK, PRB 81, 115126


--------------------------------------------------------------------------------------------------------




--------------------------------------- Iteration      1(  10)  ---------------------------------------


    POTLOK:  cpu time      2.5684: real time      2.5769
    SETDIJ:  cpu time     16.5924: real time     16.6421
    TRIAL :  cpu time    103.7501: real time    104.9956
    CORREC:  cpu time    121.7056: real time    122.1791
    CHARGE:  cpu time      0.2543: real time      0.2552
    --------------------------------------------
      LOOP:  cpu time    244.8721: real time    246.6557

 eigenvalue-minimisations  :     0
 total energy-change (2. order) :-0.1722547E+01  (-0.3930434E+00)
 number of electron     961.0001950 magnetization       0.9998887
 augmentation part      469.1131903 magnetization       0.8487478

 Free energy of the ion-electron system (eV)
  ---------------------------------------------------
  alpha Z        PSCENC =      6142.85744291
  Ewald energy   TEWEN  =    -78108.94951981
  -Hartree energ DENC   =    -35953.78694862
  -exchange      EXHF   =      4065.22459354
  -V(xc)+E(xc)   XCENC  =      2997.60108305
  PAW double counting   =    116625.53013113  -125232.54225260
  entropy T*S    EENTRO =        -0.02532185
  eigenvalues    EBANDS =     -6877.62154602
  atomic energy  EATOM  =    115668.29297923
  ---------------------------------------------------
  free energy    TOTEN  =      -673.41935904 eV

  energy without entropy =     -673.39403720  energy(sigma->0) =     -673.40669812
  exchange ACFDT corr.  =        -0.04551987  see jH, gK, PRB 81, 115126


--------------------------------------------------------------------------------------------------------




--------------------------------------- Iteration      1(  11)  ---------------------------------------


    POTLOK:  cpu time      2.5794: real time      2.5870
    SETDIJ:  cpu time     16.6614: real time     16.7141
    TRIAL :  cpu time    103.9344: real time    104.4024
    CORREC:  cpu time    121.6601: real time    122.8551
    CHARGE:  cpu time      0.2547: real time      0.2756
    --------------------------------------------
      LOOP:  cpu time    245.0908: real time    246.8504

 eigenvalue-minimisations  :     0
 total energy-change (2. order) :-0.3923941E+00  (-0.8898383E-01)
 number of electron     961.0001951 magnetization       0.9998812
 augmentation part      469.1489639 magnetization       0.7578653

 Free energy of the ion-electron system (eV)
  ---------------------------------------------------
  alpha Z        PSCENC =      6142.85744291
  Ewald energy   TEWEN  =    -78108.94951981
  -Hartree energ DENC   =    -35957.42000192
  -exchange      EXHF   =      4064.60033008
[...]
      3.21909      7.50974      0.01254        -0.002188     -0.002446     -0.000756
      3.24628      7.50132      5.22271         0.000455      0.001556     -0.004325
      3.24611      7.50255     10.40348         0.000120     -0.007809      0.004521
      1.62326      0.93784      2.65748        -0.013626      0.006764     -0.005474
      1.61941      0.94092      7.82023         0.005402     -0.001721     -0.006220
      1.62170      0.93858     12.84158         0.002196     -0.007238     -0.000458
     -0.00083      3.74374      2.62943         0.003086     -0.003051     -0.008643
     -0.00025      3.74917      7.80485        -0.001098      0.007673      0.004708
     -0.00376      3.78076     13.02274         0.002426      0.005947      0.011354
     -1.61441      6.55912      2.62624         0.004913     -0.003092     -0.006076
     -1.62058      6.56565      7.81731         0.002378     -0.001197      0.000891
     -1.62048      6.55629     13.01554         0.003930     -0.000249      0.006715
      4.88459      0.93212      2.62580         0.006895     -0.006150     -0.003319
      4.87656      0.93466      7.81749        -0.001833     -0.000876     -0.001384
      4.88397      0.93765     13.01580         0.002696     -0.003459      0.003554
      3.24329      3.76300      2.63018        -0.006561      0.000813     -0.004407
      3.25129      3.75580      7.81665         0.002209      0.001834     -0.005052
      3.24139      3.76266     13.01644         0.000087      0.002308      0.002545
      1.62374      6.56562      2.61413        -0.011612      0.005751     -0.002260
      1.62282      6.56707      7.81444        -0.001102     -0.000304      0.001096
      1.63047      6.56115     13.02826        -0.010756      0.006357      0.005730
      8.12964      0.94075      2.62967         0.000931     -0.002758     -0.006819
      8.12562      0.93963      7.80488        -0.005055     -0.004202      0.004239
      8.09499      0.92382     13.02175        -0.004632     -0.006993      0.015170
      6.50563      3.74757      2.60589        -0.004419      0.001625     -0.001875
      6.49688      3.75302      7.81573         0.000794      0.002707      0.004361
      6.50221      3.74892     13.02848        -0.004524      0.002614      0.004434
      4.86053      6.56388      2.63064        -0.001239      0.006893     -0.003984
      4.87182      6.56215      7.81617        -0.002914     -0.003808     -0.001620
      4.86018      6.56542     13.01626        -0.002434      0.001906      0.002200
      0.01166      1.86800      2.17251         0.019627     -0.007252     -0.009417
      0.00198      1.87493      7.19493        -0.004109     -0.000224      0.011370
     -0.01064      1.88025     12.41152         0.004249      0.000152     -0.005484
     -1.62498      4.69514      1.99019        -0.011895      0.004723      0.001159
     -1.62829      4.69221      7.20625         0.004113     -0.008078     -0.004777
     -1.64104      4.69522     12.38431        -0.000953     -0.009470      0.000981
     -3.25050      7.50153      2.00613        -0.001915     -0.007775     -0.001736
     -3.24907      7.50254      7.21952        -0.003811      0.009488     -0.005052
     -3.25314      7.49212     12.39122        -0.004768     -0.005358      0.003207
      3.24987      1.87659      2.00519         0.007779      0.005729      0.002567
      3.25069      1.87647      7.21956        -0.008808     -0.003471     -0.006434
      3.25632      1.88339     12.39153         0.012310      0.009413      0.002249
      1.62566      4.69174      2.00227         0.009829      0.002830      0.001639
      1.62759      4.69189      7.20736        -0.006563     -0.007386     -0.003590
      1.63321      4.69408     12.38005         0.001106     -0.001924     -0.001917
     -0.00329      7.50532      1.98833        -0.003683      0.004398      0.012092
     -0.00043      7.50429      7.19890        -0.001866      0.001566     -0.007282
     -0.00115      7.50361     12.40897        -0.000791      0.003062      0.001429
      6.49437      1.87282      1.99046        -0.015095      0.005644      0.000591
      6.49497      1.87803      7.20603         0.010394     -0.001181     -0.003252
      6.48551      1.88619     12.38422         0.000272      0.003461     -0.001256
      4.87247      4.68995      1.99214        -0.001586     -0.000521      0.005638
      4.87440      4.68937      7.19858         0.001050      0.001833     -0.006291
      4.87372      4.68901     12.41330        -0.001598     -0.002559      0.000656
      3.24807      7.50044      2.00207        -0.003561     -0.008780      0.002529
      3.24913      7.50050      7.20746         0.004429      0.009449     -0.002239
      3.24927      7.49187     12.37978        -0.001942     -0.002082     -0.002430
      1.64349      0.92684      4.64004        -0.000956      0.001447      0.004154
      1.62049      0.94008      9.82114        -0.005023      0.003174     -0.003132
      1.86049      0.79956     14.90839         0.005130     -0.001848     -0.004968
     -0.00046      3.76834      4.62688         0.000066     -0.003909     -0.000779
     -0.00193      3.75281      9.79400         0.001614     -0.004972      0.000914
      0.00458      3.90623     14.94771        -0.002588     -0.002035     -0.001842
     -1.62557      6.56633      4.60493        -0.001991      0.001323     -0.001326
     -1.61912      6.56706      9.80103        -0.003222      0.002766      0.004047
     -1.63884      6.58784     15.00510         0.015274      0.002985     -0.004629
      4.87354      0.93848      4.60481        -0.005322      0.001044     -0.004020
      4.87590      0.93236      9.80110        -0.005367      0.002126      0.005601
      4.84694      0.93556     15.00525        -0.002536      0.000880     -0.005665
      3.25088      3.75100      4.60910        -0.000242     -0.004141     -0.006238
      3.25358      3.75673      9.79984        -0.003773     -0.004015      0.006122
      3.23954      3.76346     15.01146         0.000732      0.001127     -0.001303
      1.62422      6.56637      4.60003        -0.004283      0.000218     -0.001868
      1.62051      6.56802      9.79449         0.000635     -0.000930      0.009476
      1.61430      6.56879     15.00765         0.003928      0.003561     -0.003077
      8.10933      0.92977      4.62691         0.002219      0.001799      0.001149
      8.12159      0.93838      9.79411         0.004357      0.000411     -0.000375
      7.98723      0.85149     14.94618         0.005506      0.003265      0.003619
      6.49841      3.75201      4.59454         0.000455      0.000558     -0.005320
      6.49465      3.75414      9.79673         0.000275     -0.000263      0.010308
      6.48791      3.75632     15.01939         0.005722     -0.001026      0.002795
      4.87552      6.56453      4.60943         0.003683      0.000500     -0.004666
      4.87221      6.55922      9.79969        -0.001748      0.004055      0.002715
      4.85783      6.56660     15.01115        -0.001894     -0.004176      0.000681
     -0.04044      1.89383      0.01761         0.016489     -0.014704     -0.017604
 -----------------------------------------------------------------------------------
    total drift:                                0.027394     -0.005129      0.870236


--------------------------------------------------------------------------------------------------------



  FREE ENERGIE OF THE ION-ELECTRON SYSTEM (eV)
  ---------------------------------------------------
  free  energy   TOTEN  =      -675.59546021 eV

  energy  without entropy=     -675.59546021  energy(sigma->0) =     -675.59546021
 d Force = 0.7339826E-03[-0.111E-03, 0.158E-02]  d Energy = 0.7460183E-03-0.120E-04
 d Force =-0.1719482E+01[-0.176E+01,-0.168E+01]  d Ewald  =-0.1719490E+01 0.814E-05
 


--------------------------------------------------------------------------------------------------------


    POTLOK:  cpu time     19.2578: real time     19.4452


--------------------------------------------------------------------------------------------------------


 Conjugate gradient step on ions:
 trial-energy change:   -0.000746  1 .order   -0.000734   -0.001579    0.000111
  (g-gl).g = 0.116E-02      g.g   = 0.102E-02  gl.gl    = 0.231E-02
 g(Force)  = 0.102E-02   g(Stress)= 0.000E+00 ortho     =-0.225E-04
 gamma     =   0.50428
 trial     =   1.57084
 opt step  =   1.46735  (harmonic =   1.46735) maximal distance =0.00746315
 next E    =  -675.595452   (d E  =  -0.00074)


--------------------------------------------------------------------------------------------------------


  
 reached required accuracy - stopping structural energy minimisation
 writing wavefunctions
     LOOP+:  cpu time   2357.6114: real time   2386.7649
    4ORBIT:  cpu time      0.0000: real time      0.0000



 total charge

# of ion       s       p       d       tot
------------------------------------------
    1        0.407   0.470   9.948  10.825
    2        0.412   0.479   9.949  10.840
    3        0.417   0.486   9.950  10.852
    4        0.413   0.483   9.951  10.848
    5        0.413   0.483   9.951  10.847
    6        0.427   0.499   9.947  10.874
    7        0.413   0.483   9.951  10.847
    8        0.413   0.482   9.951  10.845
    9        0.427   0.499   9.947  10.873
   10        0.413   0.483   9.951  10.847
   11        0.413   0.482   9.951  10.845
   12        0.419   0.496   9.955  10.871
   13        0.413   0.483   9.951  10.847
   14        0.412   0.483   9.951  10.847
   15        0.409   0.476   9.949  10.834
   16        0.412   0.481   9.950  10.843
   17        0.412   0.481   9.950  10.843
   18        0.417   0.486   9.950  10.853
   19        0.413   0.483   9.951  10.848
   20        0.413   0.483   9.951  10.848
   21        0.413   0.481   9.950  10.844
   22        0.413   0.483   9.951  10.847
   23        0.412   0.480   9.950  10.842
   24        0.419   0.496   9.955  10.871
   25        0.413   0.483   9.951  10.847
   26        0.412   0.483   9.951  10.847
   27        0.417   0.491   9.953  10.861
   28        0.410   0.476   9.949  10.835
   29        0.424   0.489   9.945  10.857
   30        0.415   0.485   9.951  10.850
   31        0.411   0.479   9.950  10.841
   32        0.415   0.488   9.953  10.856
   33        0.412   0.480   9.949  10.841
   34        0.413   0.483   9.951  10.847
   35        0.410   0.477   9.949  10.837
   36        0.412   0.479   9.949  10.841
   37        0.413   0.483   9.951  10.847
   38        0.410   0.477   9.949  10.836
   39        0.411   0.478   9.949  10.839
   40        0.413   0.483   9.951  10.847
   41        0.410   0.477   9.949  10.837
   42        0.412   0.480   9.950  10.842
   43        0.413   0.484   9.952  10.849
   44        0.410   0.476   9.948  10.834
   45        0.415   0.485   9.951  10.850
   46        0.411   0.479   9.950  10.840
   47        0.415   0.488   9.953  10.856
   48        0.410   0.476   9.948  10.835
   49        0.413   0.484   9.952  10.848
   50        0.411   0.478   9.949  10.838
   51        0.411   0.479   9.949  10.839
   52        0.413   0.483   9.951  10.847
   53        0.410   0.478   9.949  10.837
   54        1.574   3.540   0.000   5.114
   55        1.574   3.527   0.000   5.101
   56        1.574   3.523   0.000   5.097
   57        1.574   3.525   0.000   5.099
   58        1.574   3.530   0.000   5.104
   59        1.574   3.530   0.000   5.104
   60        1.574   3.527   0.000   5.101
   61        1.574   3.530   0.000   5.104
   62        1.574   3.529   0.000   5.104
   63        1.574   3.527   0.000   5.101
   64        1.574   3.530   0.000   5.104
   65        1.574   3.529   0.000   5.104
   66        1.574   3.526   0.000   5.100
   67        1.574   3.530   0.000   5.104
   68        1.574   3.530   0.000   5.104
   69        1.574   3.526   0.000   5.100
   70        1.574   3.530   0.000   5.104
   71        1.574   3.528   0.000   5.101
   72        1.574   3.525   0.000   5.099
   73        1.574   3.530   0.000   5.104
   74        1.574   3.531   0.000   5.104
   75        1.574   3.524   0.000   5.098
   76        1.574   3.530   0.000   5.104
   77        1.574   3.529   0.000   5.103
   78        1.574   3.526   0.000   5.100
   79        1.574   3.530   0.000   5.104
   80        1.574   3.530   0.000   5.104
   81        1.574   3.533   0.000   5.108
   82        1.575   3.524   0.000   5.098
   83        1.616   3.306   0.000   4.922
   84        1.575   3.531   0.000   5.105
   85        1.574   3.529   0.000   5.103
   86        1.574   3.546   0.000   5.120
   87        1.574   3.529   0.000   5.103
   88        1.574   3.531   0.000   5.105
   89        1.576   3.526   0.000   5.101
   90        1.574   3.529   0.000   5.103
   91        1.574   3.531   0.000   5.105
   92        1.576   3.526   0.000   5.101
   93        1.574   3.529   0.000   5.103
   94        1.574   3.531   0.000   5.105
   95        1.574   3.529   0.000   5.103
   96        1.574   3.529   0.000   5.103
   97        1.574   3.531   0.000   5.105
   98        1.574   3.535   0.000   5.110
   99        1.575   3.531   0.000   5.105
  100        1.574   3.529   0.000   5.103
  101        1.574   3.546   0.000   5.120
  102        1.574   3.528   0.000   5.102
  103        1.574   3.531   0.000   5.105
  104        1.574   3.522   0.000   5.097
  105        1.574   3.529   0.000   5.103
  106        1.574   3.531   0.000   5.105
  107        1.574   3.529   0.000   5.103
  108        0.097   0.069   0.000   0.166
--------------------------------------------------
tot        107.054 216.026 527.367 850.447



 magnetization (x)

# of ion       s       p       d       tot
------------------------------------------
    1       -0.000  -0.000  -0.000  -0.000
    2       -0.000  -0.000   0.000  -0.000
    3       -0.000   0.001   0.001   0.002
    4       -0.000  -0.000   0.000   0.000
    5       -0.000  -0.000   0.000  -0.000
    6       -0.005  -0.006   0.012   0.001
    7       -0.000   0.000   0.000   0.000
    8       -0.000   0.000   0.000   0.000
    9       -0.005  -0.006   0.012   0.001
   10       -0.000   0.000   0.000   0.000
   11       -0.000   0.000   0.000   0.000
   12       -0.000  -0.000   0.000  -0.000
   13       -0.000  -0.000   0.000  -0.000
   14       -0.000  -0.000   0.000   0.000
   15       -0.000  -0.001   0.000  -0.001
   16       -0.000  -0.000   0.000   0.000
   17       -0.000  -0.000   0.000   0.000
   18       -0.000   0.001   0.001   0.001
   19       -0.000  -0.000   0.000   0.000
   20       -0.000  -0.000   0.000  -0.000
   21       -0.000  -0.000  -0.000  -0.000
   22       -0.000   0.000   0.000   0.000
   23       -0.000  -0.000  -0.000  -0.000
   24       -0.000  -0.000   0.000  -0.000
   25       -0.000  -0.000   0.000  -0.000
   26       -0.000  -0.000   0.000   0.000
   27       -0.000  -0.000  -0.000  -0.000
   28       -0.000  -0.000   0.000  -0.000
   29       -0.003  -0.006   0.010   0.001
   30       -0.000   0.000   0.000   0.000
   31       -0.000   0.000   0.000   0.000
   32       -0.000  -0.000   0.000  -0.000
   33       -0.000  -0.000   0.000  -0.000
   34       -0.000   0.000   0.000   0.000
   35       -0.000  -0.000  -0.000  -0.001
   36       -0.000  -0.000   0.000  -0.000
   37       -0.000   0.000   0.000   0.000
   38       -0.000  -0.000  -0.000  -0.001
   39       -0.000  -0.000  -0.000  -0.000
   40       -0.000   0.000   0.000   0.000
   41       -0.000   0.000   0.000   0.000
   42       -0.000  -0.000  -0.000  -0.000
   43       -0.000  -0.000   0.000   0.000
   44       -0.000  -0.000   0.000  -0.000
   45       -0.000   0.000   0.000   0.000
   46       -0.000   0.000   0.000   0.000
   47       -0.000  -0.000   0.000  -0.000
   48       -0.000   0.000   0.000   0.000
   49       -0.000  -0.000   0.000   0.000
   50       -0.000  -0.000   0.000  -0.000
   51       -0.000  -0.000  -0.000  -0.000
   52       -0.000   0.000   0.000   0.000
   53       -0.000   0.000   0.000   0.000
   54        0.000   0.005   0.000   0.005
   55       -0.000   0.000   0.000   0.000
   56        0.000   0.005   0.000   0.005
   57       -0.000   0.000   0.000   0.000
   58        0.000   0.000   0.000   0.000
   59        0.000   0.001   0.000   0.001
   60       -0.000  -0.001   0.000  -0.001
   61       -0.000   0.000   0.000   0.000
   62        0.000   0.006   0.000   0.006
   63       -0.000  -0.001   0.000  -0.001
   64       -0.000   0.000   0.000   0.000
   65        0.000   0.005   0.000   0.005
   66       -0.000  -0.000   0.000  -0.000
   67       -0.000   0.000   0.000   0.000
   68       -0.000   0.000   0.000   0.000
   69       -0.000  -0.000   0.000  -0.000
   70        0.000   0.000   0.000   0.000
   71       -0.000   0.000   0.000   0.000
   72       -0.000   0.000   0.000   0.000
   73        0.000   0.000   0.000   0.000
   74        0.000   0.001   0.000   0.001
   75       -0.000  -0.000   0.000  -0.000
   76       -0.000   0.000   0.000   0.000
   77       -0.000   0.000   0.000   0.000
   78       -0.000  -0.000   0.000  -0.000
   79       -0.000   0.000   0.000   0.000
   80       -0.000   0.000   0.000   0.000
   81       -0.000   0.000   0.000   0.000
   82       -0.000  -0.000   0.000  -0.000
   83        0.014   0.707   0.000   0.721
   84        0.000   0.000   0.000   0.000
   85        0.000   0.000   0.000   0.000
   86        0.000   0.007   0.000   0.008
   87       -0.000   0.000   0.000   0.000
   88        0.000   0.000   0.000   0.000
   89        0.001   0.031   0.000   0.032
   90       -0.000   0.000   0.000   0.000
   91        0.000   0.000   0.000   0.000
   92        0.001   0.031   0.000   0.032
   93       -0.000  -0.000   0.000  -0.000
   94        0.000   0.000   0.000   0.000
   95       -0.000  -0.001   0.000  -0.001
   96       -0.000  -0.000   0.000  -0.000
   97        0.000   0.000   0.000   0.000
   98        0.000   0.001   0.000   0.001
   99        0.000   0.000   0.000   0.000
  100        0.000   0.000   0.000   0.000
  101        0.000   0.007   0.000   0.008
  102       -0.000   0.000   0.000   0.000
  103       -0.000   0.000   0.000   0.000
  104       -0.000   0.000   0.000   0.000
  105       -0.000  -0.000   0.000  -0.000
  106        0.000   0.000   0.000   0.000
  107       -0.000  -0.001   0.000  -0.001
  108        0.000   0.003   0.000   0.003
--------------------------------------------------
tot          0.000   0.789   0.038   0.827
 

 total amount of memory used by VASP MPI-rank0  6666275. kBytes
=======================================================================

   base                                    :      30000. kBytes
   nonlr-proj                              :     246434. kBytes
   fftplans                                :      50796. kBytes
   grid                                    :     145907. kBytes
   one-center                              :       3359. kBytes
   HF                                      :        194. kBytes
   wavefun                                 :    5995503. kBytes
   fock_wrk                                :     194082. kBytes
 
  
  
 General timing and accounting informations for this job:
 ========================================================
  
                  Total CPU time used (sec):    58598.805
                            User time (sec):    58527.592
                          System time (sec):       71.212
                         Elapsed time (sec):    59136.693
  
                   Maximum memory used (kb):    10455012.
                   Average memory used (kb):          N/A
  
                          Minor page faults:      1161750
                          Major page faults:       147912
                 Voluntary context switches:      1812317
