 running    2 mpi-ranks, on    1 nodes
 distrk:  each k-point on    1 cores,    2 groups
 distr:  one band on    1 cores,    1 groups
 Offloading initialized ...    2 GPUs detected
 vasp.6.5.1 10Mar25 (build May 13 2025 11:33:44) complex                         
 POSCAR found type information on POSCAR ZnO Na
 POSCAR found :  3 types and     108 ions
 -----------------------------------------------------------------------------
|                                                                             |
|           W    W    AA    RRRRR   N    N  II  N    N   GGGG   !!!           |
|           W    W   A  A   R    R  NN   N  II  NN   N  G    G  !!!           |
|           W    W  A    A  R    R  N N  N  II  N N  N  G       !!!           |
|           W WW W  AAAAAA  RRRRR   N  N N  II  N  N N  G  GGG   !            |
|           WW  WW  A    A  R   R   N   NN  II  N   NN  G    G                |
|           W    W  A    A  R    R  N    N  II  N    N   GGGG   !!!           |
|                                                                             |
|     You requested a magnetic or noncollinear calculation, but did not       |
|     specify the initial magnetic moment with the MAGMOM tag. Note that      |
|     a default of 1 will be used for all atoms. This ferromagnetic setup     |
|     may break the symmetry of the crystal, in particular it may rule        |
|     out finding an antiferromagnetic solution. Thence, we recommend         |
|     setting the initial magnetic moment manually or verifying carefully     |
|     that this magnetic setup is desired.                                    |
|                                                                             |
 -----------------------------------------------------------------------------

 scaLAPACK will be used selectively (only on CPU)
 LDA part: xc-table for (Slater+PW92), standard interpolation
 POSCAR, INCAR and KPOINTS ok, starting setup
 FFT: planning ... GRIDC
 FFT: planning ... GRID_SOFT
 FFT: planning ... GRID
 WAVECAR not read
 entering main loop
       N       E                     dE             d eps       ncg     rms           ort
DAV:   1    -0.228255111485E+05   -0.22826E+05   -0.34058E+05  2520   0.216E+03  
DAV:   2    -0.332353203179E+05   -0.10410E+05   -0.97021E+04  2520   0.545E+02  
DAV:   3    -0.357258841396E+05   -0.24906E+04   -0.23756E+04  2520   0.225E+02  
DAV:   4    -0.359363621288E+05   -0.21048E+03   -0.20638E+03  2520   0.692E+01  
DAV:   5    -0.762391049752E+03    0.35174E+05   -0.39108E+02  2520   0.882E+01  
SDA:   6    -0.441538207950E+03    0.32085E+03   -0.39108E+02  2520   0.104E+04   0.000E+00
 gam= 0.000 g(H,U,f)=  0.795E+03 0.246E+03 0.480E+00 ort(H,U,f) = 0.000E+00 0.000E+00 0.000E+00
 gam= 0.000 trial= 0.400  step=  0.3848 mean=  0.4000
CGA:   7    -0.642023845127E+03   -0.20049E+03   -0.20025E+03  2520   0.573E+02  -0.120E+02
 gam= 0.055 g(H,U,f)=  0.347E+02 0.225E+02 0.106E+00 ort(H,U,f) =-0.908E+02 0.789E+02-0.293E-01
 gam= 0.055 trial= 0.398  step=  0.8033 mean=  0.3985
CGA:   8    -0.664563031806E+03   -0.22539E+02   -0.22753E+02  2520   0.214E+02  -0.127E+01
 gam= 0.373 g(H,U,f)=  0.170E+02 0.429E+01 0.408E-01 ort(H,U,f) =-0.116E+02 0.103E+02-0.243E-02
 gam= 0.373 trial= 0.439  step=  0.6837 mean=  0.4390
CGA:   9    -0.671696811713E+03   -0.71338E+01   -0.71455E+01  2520   0.648E+01  -0.108E+00
 gam= 0.303 g(H,U,f)=  0.590E+01 0.536E+00 0.389E-01 ort(H,U,f) =-0.176E+01 0.165E+01 0.569E-02
 gam= 0.303 trial= 0.463  step=  0.5337 mean=  0.4634
CGA:  10    -0.673419359044E+03   -0.17225E+01   -0.17194E+01  2520   0.126E+01   0.532E-01
 gam= 0.195 g(H,U,f)=  0.111E+01 0.150E+00 0.220E-02 ort(H,U,f) =-0.226E-01 0.779E-01-0.205E-02
 gam= 0.195 trial= 0.470  step=  0.6185 mean=  0.4705
CGA:  11    -0.673811753152E+03   -0.39239E+00   -0.39304E+00  2520   0.337E+00  -0.662E-02
 gam= 0.268 g(H,U,f)=  0.229E+00 0.936E-01 0.149E-01 ort(H,U,f) =-0.120E-01 0.543E-02-0.802E-04
 gam= 0.268 trial= 0.485  step=  0.5304 mean=  0.4853
CGA:  12    -0.673901275608E+03   -0.89522E-01   -0.88984E-01  2520   0.132E+00   0.137E-01
 gam= 0.393 g(H,U,f)=  0.787E-01 0.531E-01 0.558E-03 ort(H,U,f) =-0.733E-02 0.224E-01-0.132E-02
 gam= 0.393 trial= 0.490  step=  0.5303 mean=  0.4898
CGA:  13    -0.673937809310E+03   -0.36534E-01   -0.36540E-01  2520   0.514E-01  -0.141E-03
 gam= 0.388 g(H,U,f)=  0.295E-01 0.207E-01 0.119E-02 ort(H,U,f) =-0.179E-01 0.177E-01 0.145E-03
 gam= 0.388 trial= 0.494  step=  0.7888 mean=  0.4938
CGA:  14    -0.673958261175E+03   -0.20452E-01   -0.20235E-01  2520   0.278E-01   0.126E-02
 gam= 0.541 g(H,U,f)=  0.209E-01 0.660E-02 0.339E-03 ort(H,U,f) =-0.133E-01 0.143E-01 0.325E-03
 gam= 0.541 trial= 0.523  step=  0.8163 mean=  0.5233
CGA:  15    -0.673969876650E+03   -0.11615E-01   -0.11625E-01  2520   0.194E-01  -0.485E-04
 gam= 0.697 g(H,U,f)=  0.150E-01 0.429E-02 0.764E-04 ort(H,U,f) =-0.668E-02 0.664E-02-0.477E-05
 gam= 0.697 trial= 0.553  step=  0.7346 mean=  0.5526
CGA:  16    -0.673976977314E+03   -0.71007E-02   -0.71039E-02  2520   0.126E-01  -0.277E-04
 gam= 0.652 g(H,U,f)=  0.743E-02 0.427E-02 0.932E-03 ort(H,U,f) =-0.377E-02 0.320E-02 0.540E-03
 gam= 0.652 trial= 0.571  step=  0.7453 mean=  0.5708
CGA:  17    -0.673981681699E+03   -0.47044E-02   -0.47015E-02  2520   0.785E-02   0.120E-04
 gam= 0.621 g(H,U,f)=  0.532E-02 0.248E-02 0.507E-04 ort(H,U,f) =-0.212E-02 0.185E-02 0.290E-03
 gam= 0.621 trial= 0.588  step=  0.8863 mean=  0.5883
CGA:  18    -0.673985150619E+03   -0.34689E-02   -0.34812E-02  2520   0.629E-02  -0.812E-04
 gam= 0.802 g(H,U,f)=  0.414E-02 0.144E-02 0.714E-03 ort(H,U,f) =-0.238E-02 0.144E-02 0.852E-03
 gam= 0.802 trial= 0.618  step=  1.0445 mean=  0.6181
CGA:  19    -0.673988362020E+03   -0.32114E-02   -0.32517E-02  2520   0.666E-02  -0.169E-03
 gam= 1.059 g(H,U,f)=  0.475E-02 0.165E-02 0.266E-03 ort(H,U,f) =-0.212E-02 0.119E-02 0.763E-03
 gam= 1.059 trial= 0.661  step=  0.9057 mean=  0.6607
CGA:  20    -0.673991243239E+03   -0.28812E-02   -0.29353E-02  2520   0.600E-02  -0.336E-03
 gam= 0.900 g(H,U,f)=  0.368E-02 0.202E-02 0.301E-03 ort(H,U,f) =-0.164E-02 0.569E-03 0.737E-03
 gam= 0.900 trial= 0.685  step=  0.8280 mean=  0.6852
CGA:  21    -0.673993625890E+03   -0.23827E-02   -0.23573E-02  2520   0.482E-02   0.260E-03
 gam= 0.804 g(H,U,f)=  0.263E-02 0.214E-02 0.591E-04 ort(H,U,f) =-0.121E-02 0.125E-02 0.216E-03
 gam= 0.804 trial= 0.700  step=  0.9044 mean=  0.6995
CGA:  22    -0.673995758375E+03   -0.21325E-02   -0.22758E-02  2520   0.849E-02  -0.117E-02
 gam= 1.761 g(H,U,f)=  0.456E-02 0.362E-02 0.313E-03 ort(H,U,f) =-0.553E-03 0.269E-03-0.886E-03
 gam= 1.761 trial= 0.720  step=  0.5737 mean=  0.7200
CGA:  23    -0.673997634049E+03   -0.18757E-02   -0.18454E-02  2520   0.231E-01  -0.182E-03
 gam= 2.715 g(H,U,f)=  0.971E-02 0.125E-01 0.828E-03 ort(H,U,f) = 0.238E-02-0.169E-03-0.240E-02
 gam= 2.715 trial= 0.705  step=  0.5906 mean=  0.7054
SDA:  24    -0.674006753979E+03   -0.91199E-02   -0.66636E-02  2520   0.484E-01  -0.111E-01
 gam= 0.000 g(H,U,f)=  0.331E-01 0.150E-01 0.359E-03 ort(H,U,f) =-0.258E-01 0.139E-01 0.828E-03
 gam= 0.000 trial= 0.694  step=  0.5710 mean=  0.6939
CGA:  25    -0.674020635428E+03   -0.13881E-01   -0.13832E-01  2520   0.164E-01  -0.218E-03
 gam= 0.339 g(H,U,f)=  0.987E-02 0.599E-02 0.573E-03 ort(H,U,f) =-0.303E-02 0.319E-02-0.379E-03
 gam= 0.339 trial= 0.682  step=  1.0086 mean=  0.6816
CGA:  26    -0.674028861688E+03   -0.82263E-02   -0.82508E-02  2520   0.129E-01  -0.131E-03
 gam= 0.784 g(H,U,f)=  0.838E-02 0.383E-02 0.672E-03 ort(H,U,f) =-0.526E-02 0.467E-02 0.464E-03
 gam= 0.784 trial= 0.714  step=  1.0035 mean=  0.7143
CGA:  27    -0.674035316023E+03   -0.64543E-02   -0.64108E-02  2520   0.133E-01   0.213E-03
 gam= 1.031 g(H,U,f)=  0.104E-01 0.280E-02 0.370E-04 ort(H,U,f) =-0.441E-02 0.448E-02 0.138E-03
 gam= 1.031 trial= 0.743  step=  0.9021 mean=  0.7432
CGA:  28    -0.674041322936E+03   -0.60069E-02   -0.60860E-02  2520   0.127E-01  -0.683E-03
 gam= 0.959 g(H,U,f)=  0.808E-02 0.423E-02 0.428E-03 ort(H,U,f) =-0.446E-02 0.327E-02 0.505E-03
 gam= 0.959 trial= 0.759  step=  0.8647 mean=  0.7591
CGA:  29    -0.674046578500E+03   -0.52556E-02   -0.52215E-02  2520   0.862E-02   0.378E-03
 gam= 0.677 g(H,U,f)=  0.592E-02 0.266E-02 0.279E-04 ort(H,U,f) =-0.223E-02 0.250E-02 0.117E-03
 gam= 0.677 trial= 0.770  step=  0.7626 mean=  0.7697
CGA:  30    -0.674049959816E+03   -0.33813E-02   -0.33825E-02  2520   0.520E-02   0.178E-03
 gam= 0.603 g(H,U,f)=  0.359E-02 0.160E-02 0.533E-05 ort(H,U,f) =-0.113E-02 0.134E-02-0.273E-04
 gam= 0.603 trial= 0.769  step=  0.7890 mean=  0.7690
CGA:  31    -0.674052051576E+03   -0.20918E-02   -0.20921E-02  2520   0.296E-02  -0.891E-05
 gam= 0.570 g(H,U,f)=  0.193E-02 0.103E-02 0.949E-06 ort(H,U,f) =-0.117E-02 0.116E-02-0.317E-05
 gam= 0.570 trial= 0.771  step=  0.8656 mean=  0.7710
CGA:  32    -0.674053332507E+03   -0.12809E-02   -0.12807E-02  2520   0.186E-02   0.442E-05
 gam= 0.627 g(H,U,f)=  0.130E-02 0.563E-03 0.406E-06 ort(H,U,f) =-0.747E-03 0.752E-03-0.559E-06
 gam= 0.627 trial= 0.780  step=  0.8496 mean=  0.7804
CGA:  33    -0.674054123669E+03   -0.79116E-03   -0.79126E-03  2520   0.119E-02  -0.383E-05
 gam= 0.640 g(H,U,f)=  0.828E-03 0.362E-03 0.847E-06 ort(H,U,f) =-0.371E-03 0.367E-03-0.241E-06
 gam= 0.640 trial= 0.787  step=  0.8356 mean=  0.7873
CGA:  34    -0.674054619704E+03   -0.49604E-03   -0.49638E-03  2520   0.710E-03  -0.115E-04
 gam= 0.596 g(H,U,f)=  0.506E-03 0.204E-03 0.362E-07 ort(H,U,f) =-0.229E-03 0.217E-03 0.982E-07
 gam= 0.596 trial= 0.792  step=  0.8597 mean=  0.7922
CGA:  35    -0.674054921774E+03   -0.30207E-03   -0.30232E-03  2520   0.485E-03  -0.725E-05
 gam= 0.683 g(H,U,f)=  0.332E-03 0.153E-03 0.207E-07 ort(H,U,f) =-0.142E-03 0.135E-03-0.630E-07
 gam= 0.683 trial= 0.799  step=  0.8589 mean=  0.7989
CGA:  36    -0.674055127745E+03   -0.20597E-03   -0.20602E-03  2520   0.402E-03  -0.181E-05
 gam= 0.829 g(H,U,f)=  0.260E-03 0.141E-03 0.566E-07 ort(H,U,f) =-0.135E-03 0.133E-03 0.674E-07
 gam= 0.829 trial= 0.805  step=  0.9523 mean=  0.8049
CGA:  37    -0.674055318482E+03   -0.19074E-03   -0.19058E-03  2520   0.391E-03   0.201E-05
 gam= 0.973 g(H,U,f)=  0.286E-03 0.105E-03 0.843E-08 ort(H,U,f) =-0.138E-03 0.140E-03-0.506E-08
 gam= 0.973 trial= 0.820  step=  0.8753 mean=  0.8197
CGA:  38    -0.674055490600E+03   -0.17212E-03   -0.17202E-03  2520   0.350E-03   0.338E-05
 gam= 0.895 g(H,U,f)=  0.269E-03 0.811E-04 0.200E-08 ort(H,U,f) =-0.120E-03 0.123E-03-0.275E-08
 gam= 0.895 trial= 0.825  step=  0.8122 mean=  0.8252
CGA:  39    -0.674055633925E+03   -0.14332E-03   -0.14335E-03  2520   0.258E-03   0.356E-05
 gam= 0.737 g(H,U,f)=  0.201E-03 0.570E-04 0.109E-06 ort(H,U,f) =-0.859E-04 0.893E-04 0.960E-07
 gam= 0.737 trial= 0.824  step=  0.7527 mean=  0.8239
CGA:  40    -0.674055731871E+03   -0.97946E-04   -0.98027E-04  2520   0.172E-03   0.218E-05
 gam= 0.665 g(H,U,f)=  0.128E-03 0.439E-04 0.250E-07 ort(H,U,f) =-0.520E-04 0.541E-04 0.690E-07
 gam= 0.665 trial= 0.817  step=  0.7733 mean=  0.8168
CGA:  41    -0.674055798778E+03   -0.66906E-04   -0.66885E-04  2520   0.128E-03  -0.961E-06
 gam= 0.744 g(H,U,f)=  0.906E-04 0.369E-04 0.364E-07 ort(H,U,f) =-0.412E-04 0.403E-04-0.888E-07
 gam= 0.744 trial= 0.812  step=  0.8071 mean=  0.8125
CGA:  42    -0.674055849980E+03   -0.51203E-04   -0.51195E-04  2520   0.103E-03  -0.294E-05
 gam= 0.805 g(H,U,f)=  0.778E-04 0.248E-04 0.297E-07 ort(H,U,f) =-0.404E-04 0.375E-04-0.273E-07
 gam= 0.805 trial= 0.812  step=  0.8341 mean=  0.8119
CGA:  43    -0.674055891771E+03   -0.41790E-04   -0.41816E-04  2520   0.746E-04  -0.231E-05
 gam= 0.727 g(H,U,f)=  0.591E-04 0.155E-04 0.403E-07 ort(H,U,f) =-0.283E-04 0.260E-04 0.945E-08
 gam= 0.727 trial= 0.814  step=  0.7813 mean=  0.8141
CGA:  44    -0.674055920276E+03   -0.28505E-04   -0.28501E-04  2520   0.486E-04  -0.235E-06
 gam= 0.651 g(H,U,f)=  0.387E-04 0.974E-05 0.114E-06 ort(H,U,f) =-0.145E-04 0.142E-04 0.803E-07
 gam= 0.651 trial= 0.811  step=  0.7130 mean=  0.8109
CGA:  45    -0.674055937506E+03   -0.17230E-04   -0.17257E-04  2520   0.297E-04   0.551E-06
 gam= 0.612 g(H,U,f)=  0.237E-04 0.594E-05 0.501E-07 ort(H,U,f) =-0.707E-05 0.751E-05 0.108E-06
 gam= 0.612 trial= 0.801  step=  0.6846 mean=  0.8011
CGA:  46    -0.674055947740E+03   -0.10234E-04   -0.10288E-04  2520   0.171E-04   0.927E-06
 gam= 0.575 g(H,U,f)=  0.133E-04 0.382E-05 0.464E-08 ort(H,U,f) =-0.325E-05 0.414E-05 0.342E-07
 gam= 0.575 trial= 0.789  step=  0.6997 mean=  0.7894
CGA:  47    -0.674055953862E+03   -0.61221E-05   -0.61698E-05  2520   0.102E-04   0.106E-05
 gam= 0.598 g(H,U,f)=  0.756E-05 0.266E-05 0.969E-09 ort(H,U,f) =-0.219E-05 0.325E-05 0.106E-07
 gam= 0.598 trial= 0.780  step=  0.7589 mean=  0.7805
 final diagonalization occupied
   1 F= -.67405595E+03 E0= -.67405588E+03  d E =-.674056E+03  mag=     0.9998
 curvature:   0.00 expect dE= 0.000E+00 dE for cont linesearch  0.000E+00
 trial: gam= 0.00000 g(F)=  0.229E+01 g(S)=  0.000E+00 ort = 0.000E+00 (trialstep = 0.100E+01)
 search vector abs. value=  0.229E+01
 bond charge predicted
 wavefunctions rotated
 writing wavefunctions
       N       E                     dE             d eps       ncg     rms           ort
SDA:   1    -0.602748475865E+03    0.71307E+02    0.00000E+00  2520   0.187E+03   0.000E+00
 gam= 0.000 g(H,U,f)=  0.158E+03 0.243E+02 0.523E+01 ort(H,U,f) = 0.000E+00 0.000E+00 0.000E+00
 gam= 0.000 trial= 0.778  step=  0.6224 mean=  0.7783
CGA:   2    -0.659499045360E+03   -0.56751E+02   -0.58201E+02  2520   0.499E+02   0.524E+01
 gam= 0.267 g(H,U,f)=  0.455E+02 0.443E+01 0.693E-14 ort(H,U,f) = 0.824E+01-0.300E+01 0.563E-14
 gam= 0.267 trial= 0.763  step=  0.4897 mean=  0.7627
CGA:   3    -0.672584979930E+03   -0.13086E+02   -0.12563E+02  2520   0.745E+01   0.171E+01
 gam= 0.149 g(H,U,f)=  0.667E+01 0.776E+00 0.952E-03 ort(H,U,f) = 0.138E+01 0.337E+00-0.338E-02
 gam= 0.149 trial= 0.735  step=  0.5158 mean=  0.7354
CGA:   4    -0.674567856393E+03   -0.19829E+01   -0.19868E+01  2520   0.170E+01   0.183E-01
 gam= 0.228 g(H,U,f)=  0.130E+01 0.395E+00 0.170E-04 ort(H,U,f) =-0.500E+00 0.519E+00 0.103E-04
 gam= 0.228 trial= 0.713  step=  0.5317 mean=  0.7135
CGA:   5    -0.675017267774E+03   -0.44941E+00   -0.45206E+00  2520   0.422E+00   0.964E-02
 gam= 0.249 g(H,U,f)=  0.278E+00 0.144E+00 0.296E-09 ort(H,U,f) =-0.234E+00 0.244E+00 0.294E-08
 gam= 0.249 trial= 0.695  step=  0.6890 mean=  0.6953
CGA:   6    -0.675163440318E+03   -0.14617E+00   -0.14617E+00  2520   0.172E+00  -0.695E-03
 gam= 0.407 g(H,U,f)=  0.122E+00 0.496E-01 0.305E-07 ort(H,U,f) =-0.962E-01 0.955E-01-0.225E-07
 gam= 0.407 trial= 0.695  step=  0.6559 mean=  0.6946
CGA:   7    -0.675219654246E+03   -0.56214E-01   -0.56239E-01  2520   0.558E-01   0.666E-03
 gam= 0.325 g(H,U,f)=  0.474E-01 0.836E-02 0.334E-09 ort(H,U,f) =-0.311E-01 0.318E-01 0.339E-09
 gam= 0.325 trial= 0.691  step=  0.6469 mean=  0.6908
CGA:   8    -0.675237756451E+03   -0.18102E-01   -0.18116E-01  2520   0.159E-01   0.313E-03
 gam= 0.285 g(H,U,f)=  0.135E-01 0.237E-02 0.771E-10 ort(H,U,f) =-0.480E-02 0.511E-02 0.104E-09
 gam= 0.285 trial= 0.686  step=  0.5652 mean=  0.6864
CGA:   9    -0.675242272085E+03   -0.45156E-02   -0.45159E-02  2520   0.391E-02   0.155E-04
 gam= 0.246 g(H,U,f)=  0.277E-02 0.113E-02 0.931E-10 ort(H,U,f) =-0.148E-02 0.149E-02 0.831E-10
 gam= 0.246 trial= 0.674  step=  0.6618 mean=  0.6743
CGA:  10    -0.675243565576E+03   -0.12935E-02   -0.12936E-02  2520   0.162E-02   0.178E-05
 gam= 0.414 g(H,U,f)=  0.112E-02 0.493E-03 0.212E-11 ort(H,U,f) =-0.687E-03 0.689E-03 0.100E-10
 gam= 0.414 trial= 0.673  step=  0.6778 mean=  0.6730
CGA:  11    -0.675244113730E+03   -0.54815E-03   -0.54816E-03  2520   0.106E-02  -0.262E-05
 gam= 0.659 g(H,U,f)=  0.782E-03 0.283E-03 0.179E-12 ort(H,U,f) =-0.494E-03 0.491E-03 0.128E-11
 gam= 0.659 trial= 0.674  step=  0.7735 mean=  0.6735
CGA:  12    -0.675244524595E+03   -0.41086E-03   -0.41121E-03  2520   0.763E-03  -0.665E-05
 gam= 0.716 g(H,U,f)=  0.582E-03 0.180E-03 0.145E-12 ort(H,U,f) =-0.355E-03 0.348E-03 0.665E-12
 gam= 0.716 trial= 0.684  step=  0.8530 mean=  0.6835
CGA:  13    -0.675244847497E+03   -0.32290E-03   -0.32331E-03  2520   0.640E-03  -0.510E-05
 gam= 0.840 g(H,U,f)=  0.456E-03 0.184E-03 0.265E-13 ort(H,U,f) =-0.221E-03 0.216E-03-0.172E-12
 gam= 0.840 trial= 0.700  step=  0.8385 mean=  0.7005
CGA:  14    -0.675245114242E+03   -0.26674E-03   -0.26671E-03  2520   0.649E-03   0.551E-06
 gam= 1.014 g(H,U,f)=  0.461E-03 0.189E-03 0.965E-13 ort(H,U,f) =-0.224E-03 0.225E-03-0.199E-12
 gam= 1.014 trial= 0.714  step=  0.9089 mean=  0.7143
CGA:  15    -0.675245409689E+03   -0.29545E-03   -0.29533E-03  2520   0.696E-03   0.149E-05
 gam= 1.072 g(H,U,f)=  0.512E-03 0.184E-03 0.125E-13 ort(H,U,f) =-0.254E-03 0.256E-03-0.297E-13
 gam= 1.072 trial= 0.734  step=  0.8960 mean=  0.7337
CGA:  16    -0.675245722404E+03   -0.31271E-03   -0.31257E-03  2520   0.740E-03   0.230E-05
 gam= 1.063 g(H,U,f)=  0.584E-03 0.156E-03 0.520E-14 ort(H,U,f) =-0.257E-03 0.259E-03-0.978E-14
 gam= 1.063 trial= 0.750  step=  0.7903 mean=  0.7499
CGA:  17    -0.675246015693E+03   -0.29329E-03   -0.29321E-03  2520   0.614E-03   0.474E-05
 gam= 0.830 g(H,U,f)=  0.476E-03 0.138E-03 0.536E-13 ort(H,U,f) =-0.208E-03 0.213E-03-0.362E-13
 gam= 0.830 trial= 0.754  step=  0.7261 mean=  0.7540
CGA:  18    -0.675246239998E+03   -0.22431E-03   -0.22433E-03  2520   0.419E-03   0.192E-05
 gam= 0.682 g(H,U,f)=  0.321E-03 0.980E-04 0.518E-13 ort(H,U,f) =-0.168E-03 0.170E-03 0.168E-13
 gam= 0.682 trial= 0.751  step=  0.7471 mean=  0.7512
CGA:  19    -0.675246396952E+03   -0.15695E-03   -0.15695E-03  2520   0.282E-03  -0.189E-05
 gam= 0.674 g(H,U,f)=  0.228E-03 0.538E-04 0.735E-14 ort(H,U,f) =-0.112E-03 0.110E-03 0.216E-13
 gam= 0.674 trial= 0.751  step=  0.6615 mean=  0.7508
CGA:  20    -0.675246489898E+03   -0.92946E-04   -0.92899E-04  2520   0.161E-03  -0.115E-05
 gam= 0.569 g(H,U,f)=  0.128E-03 0.327E-04 0.268E-14 ort(H,U,f) =-0.659E-04 0.648E-04 0.127E-13
 gam= 0.569 trial= 0.742  step=  0.6800 mean=  0.7419
CGA:  21    -0.675246544285E+03   -0.54387E-04   -0.54353E-04  2520   0.873E-04  -0.114E-05
 gam= 0.544 g(H,U,f)=  0.702E-04 0.171E-04 0.360E-14 ort(H,U,f) =-0.343E-04 0.331E-04 0.118E-13
 gam= 0.544 trial= 0.736  step=  0.6370 mean=  0.7357
CGA:  22    -0.675246571954E+03   -0.27669E-04   -0.27614E-04  2520   0.468E-04  -0.111E-05
 gam= 0.536 g(H,U,f)=  0.381E-04 0.869E-05 0.997E-16 ort(H,U,f) =-0.171E-04 0.160E-04 0.175E-14
 gam= 0.536 trial= 0.726  step=  0.5973 mean=  0.7258
CGA:  23    -0.675246585779E+03   -0.13825E-04   -0.13804E-04  2520   0.225E-04  -0.331E-06
 gam= 0.481 g(H,U,f)=  0.184E-04 0.412E-05 0.601E-15 ort(H,U,f) =-0.832E-05 0.799E-05-0.259E-14
 gam= 0.481 trial= 0.713  step=  0.5624 mean=  0.7130
CGA:  24    -0.675246592070E+03   -0.62909E-05   -0.62896E-05  2520   0.112E-04  -0.172E-07
 gam= 0.498 g(H,U,f)=  0.941E-05 0.181E-05 0.187E-15 ort(H,U,f) =-0.405E-05 0.404E-05-0.473E-15
 gam= 0.498 trial= 0.698  step=  0.5303 mean=  0.6979
 final diagonalization occupied
   2 F= -.67524659E+03 E0= -.67524659E+03  d E =-.119064E+01  mag=     1.0000
 trial-energy change:   -1.190638  1 .order   -1.237193   -2.294437   -0.179949
 step:   1.0996(harm=  1.0851)  dis= 0.18633  next Energy=  -675.255504 (dE=-0.120E+01)
 bond charge predicted
 wavefunctions rotated
 writing wavefunctions
       N       E                     dE             d eps       ncg     rms           ort
SDA:   1    -0.674576238412E+03    0.67035E+00    0.00000E+00  2520   0.155E+01   0.000E+00
 gam= 0.000 g(H,U,f)=  0.152E+01 0.286E-01 0.202E-12 ort(H,U,f) = 0.000E+00 0.000E+00 0.000E+00
 gam= 0.000 trial= 0.681  step=  0.7411 mean=  0.6811
CGA:   2    -0.675151065861E+03   -0.57483E+00   -0.57473E+00  2520   0.366E+00   0.170E-02
 gam= 0.236 g(H,U,f)=  0.354E+00 0.121E-01 0.231E-13 ort(H,U,f) = 0.141E-01-0.124E-01-0.168E-13
 gam= 0.236 trial= 0.687  step=  0.4981 mean=  0.6871
CGA:   3    -0.675242353486E+03   -0.91288E-01   -0.91204E-01  2520   0.430E-01  -0.132E-03
 gam= 0.118 g(H,U,f)=  0.406E-01 0.240E-02 0.422E-15 ort(H,U,f) =-0.204E-02 0.191E-02-0.456E-14
 gam= 0.118 trial= 0.668  step=  0.5001 mean=  0.6682
CGA:   4    -0.675253098945E+03   -0.10745E-01   -0.10746E-01  2520   0.775E-02   0.571E-05
 gam= 0.180 g(H,U,f)=  0.690E-02 0.850E-03 0.177E-14 ort(H,U,f) =-0.124E-02 0.125E-02 0.268E-15
 gam= 0.180 trial= 0.651  step=  0.5111 mean=  0.6514
CGA:   5    -0.675255077983E+03   -0.19790E-02   -0.19799E-02  2520   0.156E-02   0.110E-04
 gam= 0.201 g(H,U,f)=  0.122E-02 0.339E-03 0.172E-15 ort(H,U,f) =-0.633E-03 0.644E-03 0.567E-15
 gam= 0.201 trial= 0.637  step=  0.5522 mean=  0.6374
CGA:   6    -0.675255508648E+03   -0.43067E-03   -0.43039E-03  2520   0.497E-03  -0.627E-05
 gam= 0.319 g(H,U,f)=  0.349E-03 0.148E-03 0.133E-16 ort(H,U,f) =-0.301E-03 0.294E-03 0.749E-16
 gam= 0.319 trial= 0.629  step=  0.6363 mean=  0.6289
CGA:   7    -0.675255665985E+03   -0.15734E-03   -0.15733E-03  2520   0.173E-03   0.122E-05
 gam= 0.349 g(H,U,f)=  0.141E-03 0.325E-04 0.232E-16 ort(H,U,f) =-0.105E-03 0.106E-03 0.427E-16
 gam= 0.349 trial= 0.630  step=  0.5977 mean=  0.6296
CGA:   8    -0.675255717889E+03   -0.51904E-04   -0.51914E-04  2520   0.633E-04   0.645E-06
 gam= 0.365 g(H,U,f)=  0.553E-04 0.801E-05 0.428E-17 ort(H,U,f) =-0.251E-04 0.258E-04 0.353E-17
 gam= 0.365 trial= 0.626  step=  0.5129 mean=  0.6264
CGA:   9    -0.675255734175E+03   -0.16286E-04   -0.16299E-04  2520   0.153E-04   0.223E-06
 gam= 0.242 g(H,U,f)=  0.135E-04 0.184E-05 0.233E-17 ort(H,U,f) =-0.569E-05 0.591E-05 0.277E-17
 gam= 0.242 trial= 0.615  step=  0.5160 mean=  0.6151
CGA:  10    -0.675255738126E+03   -0.39505E-05   -0.39616E-05  2520   0.430E-05   0.225E-06
 gam= 0.281 g(H,U,f)=  0.336E-05 0.935E-06 0.108E-17 ort(H,U,f) =-0.144E-05 0.166E-05 0.218E-17
 gam= 0.281 trial= 0.605  step=  0.6028 mean=  0.6052
 final diagonalization occupied
   3 F= -.67525574E+03 E0= -.67525574E+03  d E =-.119978E+01  mag=     1.0000
 curvature:  -0.53 expect dE=-0.148E+00 dE for cont linesearch -0.181E-07
 trial: gam= 0.12257 g(F)=  0.281E+00 g(S)=  0.000E+00 ort = 0.281E-03 (trialstep = 0.102E+01)
 search vector abs. value=  0.316E+00
 bond charge predicted
 wavefunctions rotated
 writing wavefunctions
       N       E                     dE             d eps       ncg     rms           ort
SDA:   1    -0.666294609596E+03    0.89611E+01    0.00000E+00  2520   0.200E+02   0.000E+00
 gam= 0.000 g(H,U,f)=  0.196E+02 0.418E+00 0.525E-14 ort(H,U,f) = 0.000E+00 0.000E+00 0.000E+00
 gam= 0.000 trial= 0.605  step=  0.7803 mean=  0.6049
CGA:   2    -0.674128783781E+03   -0.78342E+01   -0.78200E+01  2520   0.500E+01   0.107E+00
 gam= 0.249 g(H,U,f)=  0.475E+01 0.247E+00 0.282E-12 ort(H,U,f) = 0.318E+00-0.211E+00-0.196E-12
 gam= 0.249 trial= 0.622  step=  0.4501 mean=  0.6225
CGA:   3    -0.675261684924E+03   -0.11329E+01   -0.11307E+01  2520   0.730E+00  -0.441E-02
 gam= 0.146 g(H,U,f)=  0.685E+00 0.455E-01 0.730E-15 ort(H,U,f) =-0.399E-01 0.355E-01 0.100E-14
 gam= 0.146 trial= 0.605  step=  0.4309 mean=  0.6052
CGA:   4    -0.675418709692E+03   -0.15702E+00   -0.15715E+00  2520   0.104E+00   0.215E-03
 gam= 0.142 g(H,U,f)=  0.928E-01 0.111E-01 0.247E-17 ort(H,U,f) =-0.148E-01 0.150E-01-0.208E-16
 gam= 0.142 trial= 0.588  step=  0.5428 mean=  0.5878
CGA:   5    -0.675446927414E+03   -0.28218E-01   -0.28221E-01  2520   0.169E-01   0.126E-03
 gam= 0.163 g(H,U,f)=  0.128E-01 0.410E-02 0.984E-18 ort(H,U,f) =-0.758E-02 0.771E-02 0.152E-17
 gam= 0.163 trial= 0.583  step=  0.6105 mean=  0.5833
CGA:   6    -0.675452105501E+03   -0.51781E-02   -0.51782E-02  2520   0.548E-02  -0.998E-05
 gam= 0.324 g(H,U,f)=  0.396E-02 0.152E-02 0.819E-19 ort(H,U,f) =-0.314E-02 0.313E-02 0.688E-19
 gam= 0.324 trial= 0.586  step=  0.6284 mean=  0.5860
CGA:   7    -0.675453827437E+03   -0.17219E-02   -0.17216E-02  2520   0.184E-02   0.166E-04
 gam= 0.335 g(H,U,f)=  0.142E-02 0.417E-03 0.110E-19 ort(H,U,f) =-0.119E-02 0.120E-02-0.570E-20
 gam= 0.335 trial= 0.590  step=  0.6713 mean=  0.5903
CGA:   8    -0.675454445599E+03   -0.61816E-03   -0.61796E-03  2520   0.633E-03   0.484E-05
 gam= 0.345 g(H,U,f)=  0.542E-03 0.904E-04 0.170E-15 ort(H,U,f) =-0.285E-03 0.290E-03-0.169E-15
 gam= 0.345 trial= 0.598  step=  0.5529 mean=  0.5984
CGA:   9    -0.675454620825E+03   -0.17523E-03   -0.17534E-03  2520   0.137E-03   0.511E-05
 gam= 0.216 g(H,U,f)=  0.111E-03 0.260E-04 0.199E-17 ort(H,U,f) =-0.596E-04 0.647E-04-0.111E-16
 gam= 0.216 trial= 0.594  step=  0.6636 mean=  0.5938
CGA:  10    -0.675454666536E+03   -0.45711E-04   -0.45715E-04  2520   0.458E-04  -0.905E-07
 gam= 0.335 g(H,U,f)=  0.293E-04 0.165E-04 0.123E-17 ort(H,U,f) =-0.231E-04 0.230E-04 0.102E-17
 gam= 0.335 trial= 0.601  step=  0.8368 mean=  0.6008
CGA:  11    -0.675454685669E+03   -0.19132E-04   -0.19163E-04  2520   0.424E-04  -0.260E-06
 gam= 0.926 g(H,U,f)=  0.301E-04 0.123E-04 0.816E-19 ort(H,U,f) =-0.173E-04 0.170E-04 0.220E-18
 gam= 0.926 trial= 0.624  step=  0.9042 mean=  0.6244
CGA:  12    -0.675454704751E+03   -0.19082E-04   -0.19069E-04  2520   0.516E-04   0.998E-07
 gam= 1.216 g(H,U,f)=  0.399E-04 0.117E-04 0.776E-17 ort(H,U,f) =-0.190E-04 0.191E-04-0.310E-17
 gam= 1.216 trial= 0.652  step=  1.0022 mean=  0.6524
CGA:  13    -0.675454730524E+03   -0.25773E-04   -0.25915E-04  2520   0.670E-04  -0.798E-06
 gam= 1.299 g(H,U,f)=  0.528E-04 0.142E-04 0.163E-16 ort(H,U,f) =-0.217E-04 0.209E-04 0.615E-17
 gam= 1.299 trial= 0.687  step=  0.9338 mean=  0.6874
CGA:  14    -0.675454761250E+03   -0.30726E-04   -0.30815E-04  2520   0.692E-04  -0.713E-06
 gam= 1.032 g(H,U,f)=  0.526E-04 0.165E-04 0.810E-18 ort(H,U,f) =-0.228E-04 0.221E-04-0.407E-17
 gam= 1.032 trial= 0.712  step=  0.9168 mean=  0.7120
CGA:  15    -0.675454792641E+03   -0.31391E-04   -0.31367E-04  2520   0.582E-04   0.236E-06
 gam= 0.841 g(H,U,f)=  0.452E-04 0.130E-04 0.249E-16 ort(H,U,f) =-0.202E-04 0.204E-04-0.303E-16
 gam= 0.841 trial= 0.732  step=  0.7219 mean=  0.7325
CGA:  16    -0.675454813718E+03   -0.21077E-04   -0.21079E-04  2520   0.389E-04   0.254E-06
 gam= 0.668 g(H,U,f)=  0.318E-04 0.709E-05 0.164E-16 ort(H,U,f) =-0.153E-04 0.155E-04-0.652E-18
 gam= 0.668 trial= 0.731  step=  0.5914 mean=  0.7314
CGA:  17    -0.675454825238E+03   -0.11520E-04   -0.11546E-04  2520   0.184E-04   0.369E-06
 gam= 0.473 g(H,U,f)=  0.149E-04 0.351E-05 0.845E-17 ort(H,U,f) =-0.822E-05 0.859E-05 0.106E-16
 gam= 0.473 trial= 0.717  step=  0.6060 mean=  0.7174
CGA:  18    -0.675454830850E+03   -0.56120E-05   -0.56248E-05  2520   0.763E-05   0.230E-06
 gam= 0.415 g(H,U,f)=  0.601E-05 0.162E-05 0.375E-17 ort(H,U,f) =-0.338E-05 0.361E-05 0.820E-17
 gam= 0.415 trial= 0.706  step=  0.5965 mean=  0.7063
 final diagonalization occupied
   4 F= -.67545483E+03 E0= -.67545483E+03  d E =-.199093E+00  mag=     1.0000
 trial-energy change:   -0.199093  1 .order   -0.199218   -0.287139   -0.111296
 step:   1.6654(harm=  1.6654)  dis= 0.09151  next Energy=  -675.490178 (dE=-0.234E+00)
 bond charge predicted
 wavefunctions rotated
 writing wavefunctions
       N       E                     dE             d eps       ncg     rms           ort
SDA:   1    -0.671814380432E+03    0.36404E+01    0.00000E+00  2520   0.801E+01   0.000E+00
 gam= 0.000 g(H,U,f)=  0.783E+01 0.179E+00 0.783E-14 ort(H,U,f) = 0.000E+00 0.000E+00 0.000E+00
 gam= 0.000 trial= 0.695  step=  0.7901 mean=  0.6953
CGA:   2    -0.674979990643E+03   -0.31656E+01   -0.31638E+01  2520   0.187E+01   0.198E-01
 gam= 0.233 g(H,U,f)=  0.177E+01 0.996E-01 0.180E-13 ort(H,U,f) = 0.118E+00-0.984E-01-0.174E-13
 gam= 0.233 trial= 0.705  step=  0.4755 mean=  0.7048
CGA:   3    -0.675425523008E+03   -0.44553E+00   -0.44501E+00  2520   0.238E+00  -0.496E-03
 gam= 0.128 g(H,U,f)=  0.225E+00 0.128E-01 0.195E-13 ort(H,U,f) =-0.127E-01 0.122E-01 0.667E-13
 gam= 0.128 trial= 0.682  step=  0.4372 mean=  0.6818
CGA:   4    -0.675477565543E+03   -0.52043E-01   -0.52057E-01  2520   0.392E-01  -0.616E-04
 gam= 0.164 g(H,U,f)=  0.352E-01 0.393E-02 0.409E-15 ort(H,U,f) =-0.505E-02 0.499E-02-0.480E-14
 gam= 0.164 trial= 0.657  step=  0.5204 mean=  0.6574
CGA:   5    -0.675487749531E+03   -0.10184E-01   -0.10187E-01  2520   0.620E-02   0.466E-04
 gam= 0.158 g(H,U,f)=  0.476E-02 0.145E-02 0.856E-15 ort(H,U,f) =-0.268E-02 0.272E-02 0.907E-15
 gam= 0.158 trial= 0.644  step=  0.6073 mean=  0.6437
CGA:   6    -0.675489635682E+03   -0.18862E-02   -0.18859E-02  2520   0.195E-02  -0.123E-04
 gam= 0.315 g(H,U,f)=  0.141E-02 0.543E-03 0.211E-15 ort(H,U,f) =-0.109E-02 0.108E-02 0.416E-15
 gam= 0.315 trial= 0.640  step=  0.6351 mean=  0.6400
CGA:   7    -0.675490254055E+03   -0.61837E-03   -0.61840E-03  2520   0.611E-03   0.961E-05
 gam= 0.313 g(H,U,f)=  0.468E-03 0.143E-03 0.126E-17 ort(H,U,f) =-0.397E-03 0.406E-03-0.195E-16
 gam= 0.313 trial= 0.640  step=  0.6995 mean=  0.6395
CGA:   8    -0.675490468926E+03   -0.21487E-03   -0.21490E-03  2520   0.219E-03  -0.905E-06
 gam= 0.359 g(H,U,f)=  0.192E-03 0.278E-04 0.114E-16 ort(H,U,f) =-0.980E-04 0.971E-04-0.111E-16
 gam= 0.359 trial= 0.646  step=  0.5116 mean=  0.6455
CGA:   9    -0.675490524704E+03   -0.55778E-04   -0.56017E-04  2520   0.516E-04   0.358E-05
 gam= 0.235 g(H,U,f)=  0.438E-04 0.781E-05 0.272E-19 ort(H,U,f) =-0.185E-04 0.220E-04-0.216E-18
 gam= 0.235 trial= 0.632  step=  0.5841 mean=  0.6321
CGA:  10    -0.675490540040E+03   -0.15337E-04   -0.15321E-04  2520   0.162E-04  -0.633E-06
 gam= 0.314 g(H,U,f)=  0.120E-04 0.421E-05 0.309E-19 ort(H,U,f) =-0.759E-05 0.696E-05 0.607E-19
 gam= 0.314 trial= 0.627  step=  0.5949 mean=  0.6273
CGA:  11    -0.675490544809E+03   -0.47685E-05   -0.47669E-05  2520   0.100E-04  -0.102E-06
 gam= 0.619 g(H,U,f)=  0.703E-05 0.301E-05 0.498E-19 ort(H,U,f) =-0.471E-05 0.460E-05 0.612E-19
 gam= 0.619 trial= 0.624  step=  0.7680 mean=  0.6241
 final diagonalization occupied
   5 F= -.67549054E+03 E0= -.67549054E+03  d E =-.234807E+00  mag=     1.0000
 curvature:  -0.93 expect dE=-0.900E-01 dE for cont linesearch -0.172E-04
 trial: gam= 0.39106 g(F)=  0.963E-01 g(S)=  0.000E+00 ort = 0.241E-02 (trialstep = 0.115E+01)
 search vector abs. value=  0.146E+00
 bond charge predicted
 wavefunctions rotated
 writing wavefunctions
       N       E                     dE             d eps       ncg     rms           ort
SDA:   1    -0.670109289654E+03    0.53813E+01    0.00000E+00  2520   0.123E+02   0.000E+00
 gam= 0.000 g(H,U,f)=  0.120E+02 0.326E+00 0.741E-15 ort(H,U,f) = 0.000E+00 0.000E+00 0.000E+00
 gam= 0.000 trial= 0.638  step=  0.7453 mean=  0.6385
CGA:   2    -0.674700564937E+03   -0.45913E+01   -0.45886E+01  2520   0.294E+01   0.285E-01
 gam= 0.239 g(H,U,f)=  0.273E+01 0.217E+00 0.107E-12 ort(H,U,f) = 0.227E+00-0.199E+00-0.130E-12
 gam= 0.239 trial= 0.649  step=  0.5165 mean=  0.6492
CGA:   3    -0.675463358208E+03   -0.76279E+00   -0.76217E+00  2520   0.345E+00  -0.272E-02
 gam= 0.117 g(H,U,f)=  0.318E+00 0.269E-01 0.634E-14 ort(H,U,f) =-0.365E-01 0.338E-01 0.166E-13
 gam= 0.117 trial= 0.636  step=  0.4381 mean=  0.6359
CGA:   4    -0.675538789507E+03   -0.75431E-01   -0.75463E-01  2520   0.631E-01  -0.653E-04
 gam= 0.183 g(H,U,f)=  0.569E-01 0.620E-02 0.338E-15 ort(H,U,f) =-0.101E-01 0.101E-01 0.293E-14
 gam= 0.183 trial= 0.616  step=  0.5290 mean=  0.6161
CGA:   5    -0.675555472537E+03   -0.16683E-01   -0.16685E-01  2520   0.988E-02   0.529E-04
 gam= 0.157 g(H,U,f)=  0.742E-02 0.246E-02 0.391E-15 ort(H,U,f) =-0.485E-02 0.491E-02 0.941E-15
 gam= 0.157 trial= 0.607  step=  0.6218 mean=  0.6074
CGA:   6    -0.675558545454E+03   -0.30729E-02   -0.30730E-02  2520   0.296E-02  -0.149E-04
 gam= 0.300 g(H,U,f)=  0.214E-02 0.819E-03 0.327E-15 ort(H,U,f) =-0.174E-02 0.172E-02 0.389E-15
 gam= 0.300 trial= 0.609  step=  0.6596 mean=  0.6089
CGA:   7    -0.675559521197E+03   -0.97574E-03   -0.97536E-03  2520   0.868E-03   0.155E-04
 gam= 0.293 g(H,U,f)=  0.668E-03 0.200E-03 0.444E-18 ort(H,U,f) =-0.545E-03 0.560E-03 0.363E-17
 gam= 0.293 trial= 0.614  step=  0.7098 mean=  0.6139
CGA:   8    -0.675559831004E+03   -0.30981E-03   -0.30977E-03  2520   0.291E-03   0.802E-06
 gam= 0.335 g(H,U,f)=  0.250E-03 0.406E-04 0.253E-17 ort(H,U,f) =-0.121E-03 0.121E-03-0.528E-17
 gam= 0.335 trial= 0.624  step=  0.5106 mean=  0.6235
CGA:   9    -0.675559905016E+03   -0.74011E-04   -0.74281E-04  2520   0.749E-04   0.479E-05
 gam= 0.257 g(H,U,f)=  0.598E-04 0.151E-04 0.214E-20 ort(H,U,f) =-0.302E-04 0.350E-04 0.137E-19
 gam= 0.257 trial= 0.612  step=  0.6365 mean=  0.6122
CGA:  10    -0.675559929219E+03   -0.24204E-04   -0.24215E-04  2520   0.254E-04  -0.898E-06
 gam= 0.340 g(H,U,f)=  0.174E-04 0.806E-05 0.466E-19 ort(H,U,f) =-0.142E-04 0.133E-04 0.280E-19
 gam= 0.340 trial= 0.615  step=  0.8029 mean=  0.6147
CGA:  11    -0.675559939308E+03   -0.10088E-04   -0.10094E-04  2520   0.193E-04  -0.626E-07
 gam= 0.758 g(H,U,f)=  0.135E-04 0.584E-05 0.810E-19 ort(H,U,f) =-0.827E-05 0.821E-05 0.703E-19
 gam= 0.758 trial= 0.633  step=  0.8621 mean=  0.6335
CGA:  12    -0.675559947646E+03   -0.83388E-05   -0.82975E-05  2520   0.221E-04   0.362E-06
 gam= 1.145 g(H,U,f)=  0.165E-04 0.564E-05 0.358E-19 ort(H,U,f) =-0.783E-05 0.819E-05-0.895E-19
 gam= 1.145 trial= 0.656  step=  0.9626 mean=  0.6563
CGA:  13    -0.675559958358E+03   -0.10712E-04   -0.10839E-04  2520   0.306E-04  -0.828E-06
 gam= 1.385 g(H,U,f)=  0.239E-04 0.668E-05 0.307E-18 ort(H,U,f) =-0.106E-04 0.976E-05-0.224E-18
 gam= 1.385 trial= 0.687  step=  0.9848 mean=  0.6870
CGA:  14    -0.675559972831E+03   -0.14473E-04   -0.14515E-04  2520   0.396E-04  -0.286E-06
 gam= 1.294 g(H,U,f)=  0.321E-04 0.759E-05 0.954E-19 ort(H,U,f) =-0.118E-04 0.115E-04-0.627E-20
 gam= 1.294 trial= 0.717  step=  0.7022 mean=  0.7167
CGA:  15    -0.675559986618E+03   -0.13787E-04   -0.13788E-04  2520   0.353E-04   0.138E-06
 gam= 0.889 g(H,U,f)=  0.290E-04 0.630E-05 0.354E-20 ort(H,U,f) =-0.126E-04 0.128E-04-0.130E-20
 gam= 0.889 trial= 0.715  step=  0.6320 mean=  0.7153
CGA:  16    -0.675559997806E+03   -0.11188E-04   -0.11180E-04  2520   0.211E-04  -0.213E-06
 gam= 0.598 g(H,U,f)=  0.178E-04 0.327E-05 0.215E-20 ort(H,U,f) =-0.875E-05 0.854E-05-0.120E-19
 gam= 0.598 trial= 0.707  step=  0.5594 mean=  0.7070
CGA:  17    -0.675560003638E+03   -0.58314E-05   -0.58591E-05  2520   0.845E-05   0.381E-06
 gam= 0.401 g(H,U,f)=  0.696E-05 0.149E-05 0.877E-20 ort(H,U,f) =-0.351E-05 0.389E-05-0.101E-19
 gam= 0.401 trial= 0.692  step=  0.5285 mean=  0.6922
 final diagonalization occupied
   6 F= -.67556000E+03 E0= -.67556000E+03  d E =-.694588E-01  mag=     1.0000
 trial-energy change:   -0.069459  1 .order   -0.069411   -0.111693   -0.027129
 step:   1.5176(harm=  1.5176)  dis= 0.05127  next Energy=  -675.564307 (dE=-0.738E-01)
 bond charge predicted
 wavefunctions rotated
 writing wavefunctions
       N       E                     dE             d eps       ncg     rms           ort
SDA:   1    -0.675002346509E+03    0.55765E+00    0.00000E+00  2520   0.127E+01   0.000E+00
 gam= 0.000 g(H,U,f)=  0.123E+01 0.361E-01 0.683E-16 ort(H,U,f) = 0.000E+00 0.000E+00 0.000E+00
 gam= 0.000 trial= 0.676  step=  0.7492 mean=  0.6758
CGA:   2    -0.675476651800E+03   -0.47431E+00   -0.47425E+00  2520   0.293E+00   0.751E-03
 gam= 0.231 g(H,U,f)=  0.270E+00 0.228E-01 0.165E-12 ort(H,U,f) = 0.236E-01-0.228E-01-0.186E-12
 gam= 0.231 trial= 0.683  step=  0.5409 mean=  0.6832
CGA:   3    -0.675555900299E+03   -0.79248E-01   -0.79231E-01  2520   0.280E-01  -0.752E-04
 gam= 0.096 g(H,U,f)=  0.262E-01 0.178E-02 0.898E-17 ort(H,U,f) =-0.306E-02 0.299E-02 0.236E-16
 gam= 0.096 trial= 0.669  step=  0.4756 mean=  0.6689
CGA:   4    -0.675562559401E+03   -0.66591E-02   -0.66577E-02  2520   0.626E-02  -0.104E-04
 gam= 0.223 g(H,U,f)=  0.566E-02 0.598E-03 0.306E-18 ort(H,U,f) =-0.104E-02 0.103E-02-0.149E-17
 gam= 0.223 trial= 0.650  step=  0.4970 mean=  0.6496
CGA:   5    -0.675564113140E+03   -0.15537E-02   -0.15545E-02  2520   0.101E-02   0.966E-05
 gam= 0.161 g(H,U,f)=  0.788E-03 0.218E-03 0.929E-19 ort(H,U,f) =-0.475E-03 0.485E-03 0.260E-18
 gam= 0.161 trial= 0.634  step=  0.5941 mean=  0.6343
CGA:   6    -0.675564412510E+03   -0.29937E-03   -0.29929E-03  2520   0.324E-03  -0.379E-05
 gam= 0.322 g(H,U,f)=  0.244E-03 0.802E-04 0.115E-17 ort(H,U,f) =-0.169E-03 0.166E-03 0.740E-19
 gam= 0.322 trial= 0.630  step=  0.5918 mean=  0.6303
CGA:   7    -0.675564508005E+03   -0.95494E-04   -0.95522E-04  2520   0.106E-03   0.141E-05
 gam= 0.328 g(H,U,f)=  0.855E-04 0.206E-04 0.199E-19 ort(H,U,f) =-0.602E-04 0.617E-04-0.149E-18
 gam= 0.328 trial= 0.626  step=  0.5902 mean=  0.6265
CGA:   8    -0.675564539454E+03   -0.31449E-04   -0.31465E-04  2520   0.402E-04   0.895E-06
 gam= 0.379 g(H,U,f)=  0.353E-04 0.498E-05 0.998E-19 ort(H,U,f) =-0.159E-04 0.167E-04-0.662E-19
 gam= 0.379 trial= 0.623  step=  0.4610 mean=  0.6228
CGA:   9    -0.675564548798E+03   -0.93446E-05   -0.93548E-05  2520   0.121E-04   0.125E-06
 gam= 0.300 g(H,U,f)=  0.108E-04 0.132E-05 0.203E-21 ort(H,U,f) =-0.449E-05 0.461E-05-0.240E-20
 gam= 0.300 trial= 0.607  step=  0.4677 mean=  0.6067
 final diagonalization occupied
   7 F= -.67556455E+03 E0= -.67556455E+03  d E =-.740040E-01  mag=     1.0000
 curvature:  -1.14 expect dE=-0.229E-01 dE for cont linesearch -0.104E-05
 trial: gam= 0.23940 g(F)=  0.200E-01 g(S)=  0.000E+00 ort = 0.366E-03 (trialstep = 0.122E+01)
 search vector abs. value=  0.286E-01
 bond charge predicted
 wavefunctions rotated
 writing wavefunctions
       N       E                     dE             d eps       ncg     rms           ort
SDA:   1    -0.674374970335E+03    0.11896E+01    0.00000E+00  2520   0.265E+01   0.000E+00
 gam= 0.000 g(H,U,f)=  0.256E+01 0.812E-01 0.146E-15 ort(H,U,f) = 0.000E+00 0.000E+00 0.000E+00
 gam= 0.000 trial= 0.593  step=  0.7729 mean=  0.5928
CGA:   2    -0.675397676023E+03   -0.10227E+01   -0.10225E+01  2520   0.622E+00   0.166E-02
 gam= 0.235 g(H,U,f)=  0.556E+00 0.661E-01 0.225E-12 ort(H,U,f) = 0.647E-01-0.631E-01-0.115E-12
 gam= 0.235 trial= 0.611  step=  0.5351 mean=  0.6108
CGA:   3    -0.675564335542E+03   -0.16666E+00   -0.16665E+00  2520   0.511E-01  -0.893E-04
 gam= 0.082 g(H,U,f)=  0.479E-01 0.317E-02 0.319E-17 ort(H,U,f) =-0.615E-02 0.606E-02 0.184E-16
 gam= 0.082 trial= 0.603  step=  0.4666 mean=  0.6032
CGA:   4    -0.675576251493E+03   -0.11916E-01   -0.11912E-01  2520   0.114E-01  -0.521E-04
 gam= 0.223 g(H,U,f)=  0.104E-01 0.100E-02 0.407E-18 ort(H,U,f) =-0.157E-02 0.152E-02-0.983E-18
 gam= 0.223 trial= 0.590  step=  0.4842 mean=  0.5896
CGA:   5    -0.675579004777E+03   -0.27533E-02   -0.27547E-02  2520   0.166E-02   0.280E-04
 gam= 0.146 g(H,U,f)=  0.130E-02 0.359E-03 0.166E-18 ort(H,U,f) =-0.738E-03 0.766E-03 0.172E-18
 gam= 0.146 trial= 0.579  step=  0.6031 mean=  0.5790
CGA:   6    -0.675579507128E+03   -0.50235E-03   -0.50247E-03  2520   0.519E-03  -0.944E-05
 gam= 0.312 g(H,U,f)=  0.389E-03 0.130E-03 0.962E-19 ort(H,U,f) =-0.263E-03 0.253E-03 0.140E-18
 gam= 0.312 trial= 0.581  step=  0.6059 mean=  0.5814
CGA:   7    -0.675579663490E+03   -0.15636E-03   -0.15630E-03  2520   0.151E-03   0.490E-05
 gam= 0.292 g(H,U,f)=  0.115E-03 0.362E-04 0.600E-20 ort(H,U,f) =-0.949E-04 0.998E-04-0.266E-19
 gam= 0.292 trial= 0.584  step=  0.7056 mean=  0.5839
CGA:   8    -0.675579717426E+03   -0.53935E-04   -0.53907E-04  2520   0.519E-04   0.463E-06
 gam= 0.343 g(H,U,f)=  0.451E-04 0.682E-05 0.640E-20 ort(H,U,f) =-0.238E-04 0.242E-04-0.151E-20
 gam= 0.343 trial= 0.596  step=  0.5317 mean=  0.5960
CGA:   9    -0.675579731262E+03   -0.13837E-04   -0.13848E-04  2520   0.151E-04   0.352E-06
 gam= 0.291 g(H,U,f)=  0.131E-04 0.198E-05 0.310E-21 ort(H,U,f) =-0.544E-05 0.579E-05-0.116E-20
 gam= 0.291 trial= 0.590  step=  0.4870 mean=  0.5896
CGA:  10    -0.675579734954E+03   -0.36915E-05   -0.37044E-05  2520   0.442E-05   0.250E-06
 gam= 0.293 g(H,U,f)=  0.348E-05 0.935E-06 0.918E-22 ort(H,U,f) =-0.169E-05 0.194E-05 0.787E-22
 gam= 0.293 trial= 0.579  step=  0.5633 mean=  0.5793
 final diagonalization occupied
   8 F= -.67557973E+03 E0= -.67557973E+03  d E =-.151862E-01  mag=     1.0000
 trial-energy change:   -0.015186  1 .order   -0.015038   -0.024590   -0.005487
 step:   1.5544(harm=  1.5740)  dis= 0.01668  next Energy=  -675.580482 (dE=-0.159E-01)
 bond charge predicted
 wavefunctions rotated
 writing wavefunctions
       N       E                     dE             d eps       ncg     rms           ort
SDA:   1    -0.675491816629E+03    0.87915E-01    0.00000E+00  2520   0.194E+00   0.000E+00
 gam= 0.000 g(H,U,f)=  0.188E+00 0.610E-02 0.489E-17 ort(H,U,f) = 0.000E+00 0.000E+00 0.000E+00
 gam= 0.000 trial= 0.578  step=  0.7721 mean=  0.5777
CGA:   2    -0.675566870624E+03   -0.75054E-01   -0.75050E-01  2520   0.453E-01   0.179E-04
 gam= 0.233 g(H,U,f)=  0.405E-01 0.476E-02 0.478E-17 ort(H,U,f) = 0.469E-02-0.467E-02-0.386E-17
 gam= 0.233 trial= 0.597  step=  0.5480 mean=  0.5972
CGA:   3    -0.675579276889E+03   -0.12406E-01   -0.12406E-01  2520   0.426E-02  -0.208E-05
 gam= 0.094 g(H,U,f)=  0.404E-02 0.213E-03 0.635E-19 ort(H,U,f) =-0.444E-03 0.441E-03 0.458E-18
 gam= 0.094 trial= 0.592  step=  0.4425 mean=  0.5923
CGA:   4    -0.675580218973E+03   -0.94208E-03   -0.94179E-03  2520   0.105E-02  -0.369E-05
 gam= 0.246 g(H,U,f)=  0.974E-03 0.711E-04 0.520E-19 ort(H,U,f) =-0.124E-03 0.121E-03 0.289E-20
 gam= 0.246 trial= 0.577  step=  0.4886 mean=  0.5773
CGA:   5    -0.675580474106E+03   -0.25513E-03   -0.25519E-03  2520   0.179E-03   0.121E-05
 gam= 0.172 g(H,U,f)=  0.154E-03 0.249E-04 0.834E-20 ort(H,U,f) =-0.565E-04 0.577E-04 0.277E-19
 gam= 0.172 trial= 0.568  step=  0.5114 mean=  0.5684
CGA:   6    -0.675580520008E+03   -0.45901E-04   -0.45907E-04  2520   0.540E-04   0.195E-06
 gam= 0.301 g(H,U,f)=  0.432E-04 0.108E-04 0.325E-20 ort(H,U,f) =-0.212E-04 0.214E-04 0.120E-20
 gam= 0.301 trial= 0.563  step=  0.5380 mean=  0.5627
CGA:   7    -0.675580534562E+03   -0.14554E-04   -0.14546E-04  2520   0.199E-04  -0.653E-06
 gam= 0.368 g(H,U,f)=  0.157E-04 0.419E-05 0.270E-21 ort(H,U,f) =-0.108E-04 0.102E-04 0.942E-21
 gam= 0.368 trial= 0.560  step=  0.5490 mean=  0.5602
CGA:   8    -0.675580539945E+03   -0.53833E-05   -0.53852E-05  2520   0.821E-05   0.353E-06
 gam= 0.414 g(H,U,f)=  0.680E-05 0.142E-05 0.499E-21 ort(H,U,f) =-0.364E-05 0.399E-05-0.306E-22
 gam= 0.414 trial= 0.559  step=  0.5045 mean=  0.5591
 final diagonalization occupied
   9 F= -.67558054E+03 E0= -.67558054E+03  d E =-.159911E-01  mag=     1.0000
 curvature:  -1.12 expect dE=-0.945E-02 dE for cont linesearch -0.124E-05
 trial: gam= 0.41780 g(F)=  0.847E-02 g(S)=  0.000E+00 ort = 0.178E-03 (trialstep = 0.129E+01)
 search vector abs. value=  0.136E-01
 bond charge predicted
 wavefunctions rotated
 writing wavefunctions
       N       E                     dE             d eps       ncg     rms           ort
SDA:   1    -0.674943071766E+03    0.63746E+00    0.00000E+00  2520   0.142E+01   0.000E+00
 gam= 0.000 g(H,U,f)=  0.138E+01 0.373E-01 0.287E-16 ort(H,U,f) = 0.000E+00 0.000E+00 0.000E+00
 gam= 0.000 trial= 0.554  step=  0.7823 mean=  0.5537
CGA:   2    -0.675496599154E+03   -0.55353E+00   -0.55350E+00  2520   0.306E+00   0.122E-03
 gam= 0.216 g(H,U,f)=  0.272E+00 0.335E-01 0.832E-16 ort(H,U,f) = 0.301E-01-0.300E-01-0.605E-16
 gam= 0.216 trial= 0.577  step=  0.5416 mean=  0.5765
CGA:   3    -0.675579402106E+03   -0.82803E-01   -0.82804E-01  2520   0.266E-01   0.441E-04
 gam= 0.087 g(H,U,f)=  0.252E-01 0.139E-02 0.231E-18 ort(H,U,f) =-0.270E-02 0.274E-02 0.329E-17
 gam= 0.087 trial= 0.573  step=  0.4824 mean=  0.5730
CGA:   4    -0.675585810411E+03   -0.64083E-02   -0.64071E-02  2520   0.562E-02  -0.250E-04
 gam= 0.211 g(H,U,f)=  0.517E-02 0.450E-03 0.502E-20 ort(H,U,f) =-0.747E-03 0.722E-03 0.623E-19
 gam= 0.211 trial= 0.564  step=  0.4837 mean=  0.5640
CGA:   5    -0.675587166740E+03   -0.13563E-02   -0.13568E-02  2520   0.835E-03   0.125E-04
 gam= 0.149 g(H,U,f)=  0.656E-03 0.178E-03 0.130E-18 ort(H,U,f) =-0.343E-03 0.355E-03 0.107E-18
 gam= 0.149 trial= 0.556  step=  0.5887 mean=  0.5559
CGA:   6    -0.675587412967E+03   -0.24623E-03   -0.24627E-03  2520   0.279E-03  -0.244E-05
 gam= 0.334 g(H,U,f)=  0.206E-03 0.732E-04 0.817E-21 ort(H,U,f) =-0.139E-03 0.137E-03 0.102E-19
 gam= 0.334 trial= 0.559  step=  0.5925 mean=  0.5592
CGA:   7    -0.675587495362E+03   -0.82396E-04   -0.82357E-04  2520   0.865E-04   0.230E-05
 gam= 0.310 g(H,U,f)=  0.653E-04 0.211E-04 0.250E-20 ort(H,U,f) =-0.550E-04 0.573E-04-0.746E-20
 gam= 0.310 trial= 0.563  step=  0.6516 mean=  0.5625
CGA:   8    -0.675587523771E+03   -0.28408E-04   -0.28400E-04  2520   0.355E-04   0.196E-06
 gam= 0.411 g(H,U,f)=  0.303E-04 0.515E-05 0.124E-21 ort(H,U,f) =-0.157E-04 0.159E-04 0.269E-22
 gam= 0.411 trial= 0.571  step=  0.4997 mean=  0.5715
CGA:   9    -0.675587532655E+03   -0.88840E-05   -0.88891E-05  2520   0.119E-04   0.144E-06
 gam= 0.335 g(H,U,f)=  0.100E-04 0.186E-05 0.155E-22 ort(H,U,f) =-0.503E-05 0.518E-05-0.486E-22
 gam= 0.335 trial= 0.564  step=  0.5368 mean=  0.5643
 final diagonalization occupied
  10 F= -.67558753E+03 E0= -.67558753E+03  d E =-.699271E-02  mag=     1.0000
 trial-energy change:   -0.006993  1 .order   -0.006846   -0.011012   -0.002680
 step:   1.6542(harm=  1.7037)  dis= 0.00875  next Energy=  -675.587916 (dE=-0.738E-02)
 bond charge predicted
 wavefunctions rotated
 writing wavefunctions
       N       E                     dE             d eps       ncg     rms           ort
SDA:   1    -0.675536289121E+03    0.51235E-01    0.00000E+00  2520   0.114E+00   0.000E+00
 gam= 0.000 g(H,U,f)=  0.111E+00 0.300E-02 0.322E-17 ort(H,U,f) = 0.000E+00 0.000E+00 0.000E+00
 gam= 0.000 trial= 0.562  step=  0.7769 mean=  0.5615
CGA:   2    -0.675580540706E+03   -0.44252E-01   -0.44251E-01  2520   0.248E-01   0.274E-05
 gam= 0.217 g(H,U,f)=  0.221E-01 0.262E-02 0.653E-17 ort(H,U,f) = 0.238E-02-0.237E-02-0.485E-17
 gam= 0.217 trial= 0.583  step=  0.5408 mean=  0.5831
CGA:   3    -0.675587233187E+03   -0.66925E-02   -0.66926E-02  2520   0.275E-02   0.253E-05
 gam= 0.111 g(H,U,f)=  0.263E-02 0.120E-03 0.129E-19 ort(H,U,f) =-0.252E-03 0.254E-03 0.225E-18
 gam= 0.111 trial= 0.579  step=  0.4337 mean=  0.5788
CGA:   4    -0.675587830653E+03   -0.59747E-03   -0.59732E-03  2520   0.589E-03  -0.194E-05
 gam= 0.214 g(H,U,f)=  0.551E-03 0.383E-04 0.160E-20 ort(H,U,f) =-0.628E-04 0.609E-04-0.119E-19
 gam= 0.214 trial= 0.564  step=  0.4874 mean=  0.5643
CGA:   5    -0.675587974116E+03   -0.14346E-03   -0.14347E-03  2520   0.111E-03   0.191E-06
 gam= 0.188 g(H,U,f)=  0.952E-04 0.153E-04 0.499E-20 ort(H,U,f) =-0.306E-04 0.308E-04 0.232E-20
 gam= 0.188 trial= 0.557  step=  0.4835 mean=  0.5566
CGA:   6    -0.675588000843E+03   -0.26727E-04   -0.26743E-04  2520   0.339E-04   0.437E-06
 gam= 0.307 g(H,U,f)=  0.264E-04 0.752E-05 0.327E-21 ort(H,U,f) =-0.139E-04 0.143E-04 0.138E-20
 gam= 0.307 trial= 0.549  step=  0.5840 mean=  0.5493
CGA:   7    -0.675588010780E+03   -0.99366E-05   -0.99388E-05  2520   0.129E-04  -0.132E-06
 gam= 0.381 g(H,U,f)=  0.976E-05 0.315E-05 0.443E-21 ort(H,U,f) =-0.710E-05 0.697E-05-0.878E-21
 gam= 0.381 trial= 0.553  step=  0.5865 mean=  0.5528
 final diagonalization occupied
  11 F= -.67558801E+03 E0= -.67558801E+03  d E =-.747083E-02  mag=     1.0000
 curvature:  -1.34 expect dE=-0.534E-02 dE for cont linesearch -0.104E-04
 trial: gam= 0.44764 g(F)=  0.399E-02 g(S)=  0.000E+00 ort = 0.325E-03 (trialstep = 0.136E+01)
 search vector abs. value=  0.701E-02
 bond charge predicted
 wavefunctions rotated
 writing wavefunctions
       N       E                     dE             d eps       ncg     rms           ort
SDA:   1    -0.675247606727E+03    0.34039E+00    0.00000E+00  2520   0.764E+00   0.000E+00
 gam= 0.000 g(H,U,f)=  0.742E+00 0.221E-01 0.354E-16 ort(H,U,f) = 0.000E+00 0.000E+00 0.000E+00
 gam= 0.000 trial= 0.556  step=  0.7647 mean=  0.5562
CGA:   2    -0.675539634366E+03   -0.29203E+00   -0.29202E+00  2520   0.172E+00   0.327E-04
 gam= 0.226 g(H,U,f)=  0.150E+00 0.225E-01 0.220E-15 ort(H,U,f) = 0.200E-01-0.200E-01-0.153E-15
 gam= 0.226 trial= 0.577  step=  0.5583 mean=  0.5770
CGA:   3    -0.675587773094E+03   -0.48139E-01   -0.48139E-01  2520   0.129E-01   0.190E-04
 gam= 0.075 g(H,U,f)=  0.123E-01 0.656E-03 0.350E-18 ort(H,U,f) =-0.145E-02 0.146E-02 0.495E-17
 gam= 0.075 trial= 0.575  step=  0.4854 mean=  0.5751
CGA:   4    -0.675590913905E+03   -0.31408E-02   -0.31402E-02  2520   0.309E-02  -0.133E-04
 gam= 0.239 g(H,U,f)=  0.285E-02 0.234E-03 0.400E-19 ort(H,U,f) =-0.381E-03 0.368E-03 0.210E-18
 gam= 0.239 trial= 0.566  step=  0.4595 mean=  0.5662
CGA:   5    -0.675591621723E+03   -0.70782E-03   -0.70817E-03  2520   0.435E-03   0.654E-05
 gam= 0.141 g(H,U,f)=  0.346E-03 0.894E-04 0.832E-19 ort(H,U,f) =-0.182E-03 0.188E-03 0.122E-18
 gam= 0.141 trial= 0.556  step=  0.6203 mean=  0.5555
CGA:   6    -0.675591756998E+03   -0.13527E-03   -0.13529E-03  2520   0.136E-03  -0.549E-06
 gam= 0.311 g(H,U,f)=  0.996E-04 0.359E-04 0.281E-21 ort(H,U,f) =-0.670E-04 0.665E-04 0.409E-20
 gam= 0.311 trial= 0.562  step=  0.5935 mean=  0.5620
CGA:   7    -0.675591797176E+03   -0.40178E-04   -0.40169E-04  2520   0.455E-04   0.573E-06
 gam= 0.336 g(H,U,f)=  0.350E-04 0.105E-04 0.162E-21 ort(H,U,f) =-0.276E-04 0.282E-04-0.147E-20
 gam= 0.336 trial= 0.565  step=  0.6236 mean=  0.5651
CGA:   8    -0.675591811450E+03   -0.14274E-04   -0.14259E-04  2520   0.184E-04   0.511E-06
 gam= 0.404 g(H,U,f)=  0.155E-04 0.287E-05 0.457E-22 ort(H,U,f) =-0.823E-05 0.874E-05-0.142E-21
 gam= 0.404 trial= 0.571  step=  0.5300 mean=  0.5710
CGA:   9    -0.675591816386E+03   -0.49363E-05   -0.49340E-05  2520   0.640E-05  -0.110E-06
 gam= 0.348 g(H,U,f)=  0.528E-05 0.111E-05 0.240E-21 ort(H,U,f) =-0.305E-05 0.294E-05-0.915E-22
 gam= 0.348 trial= 0.567  step=  0.5833 mean=  0.5669
 final diagonalization occupied
  12 F= -.67559182E+03 E0= -.67559182E+03  d E =-.380561E-02  mag=     1.0000
 trial-energy change:   -0.003806  1 .order   -0.003742   -0.005637   -0.001847
 step:   1.9422(harm=  2.0259)  dis= 0.00713  next Energy=  -675.592215 (dE=-0.420E-02)
 bond charge predicted
 wavefunctions rotated
 writing wavefunctions
       N       E                     dE             d eps       ncg     rms           ort
SDA:   1    -0.675529890090E+03    0.61921E-01    0.00000E+00  2520   0.138E+00   0.000E+00
 gam= 0.000 g(H,U,f)=  0.134E+00 0.400E-02 0.667E-17 ort(H,U,f) = 0.000E+00 0.000E+00 0.000E+00
 gam= 0.000 trial= 0.569  step=  0.7633 mean=  0.5685
CGA:   2    -0.675582685228E+03   -0.52795E-01   -0.52795E-01  2520   0.313E-01   0.593E-06
 gam= 0.226 g(H,U,f)=  0.272E-01 0.403E-02 0.321E-16 ort(H,U,f) = 0.359E-02-0.359E-02-0.221E-16
 gam= 0.226 trial= 0.588  step=  0.5640 mean=  0.5880
CGA:   3    -0.675591498147E+03   -0.88129E-02   -0.88130E-02  2520   0.267E-02   0.219E-05
 gam= 0.085 g(H,U,f)=  0.255E-02 0.120E-03 0.397E-19 ort(H,U,f) =-0.270E-03 0.272E-03 0.687E-18
 gam= 0.085 trial= 0.586  step=  0.4620 mean=  0.5856
CGA:   4    -0.675592114460E+03   -0.61631E-03   -0.61619E-03  2520   0.645E-03  -0.206E-05
 gam= 0.242 g(H,U,f)=  0.603E-03 0.425E-04 0.398E-20 ort(H,U,f) =-0.689E-04 0.668E-04 0.196E-19
 gam= 0.242 trial= 0.573  step=  0.4686 mean=  0.5732
CGA:   5    -0.675592265483E+03   -0.15102E-03   -0.15105E-03  2520   0.105E-03   0.495E-06
 gam= 0.162 g(H,U,f)=  0.884E-04 0.163E-04 0.110E-19 ort(H,U,f) =-0.341E-04 0.346E-04 0.154E-19
 gam= 0.162 trial= 0.563  step=  0.5405 mean=  0.5628
CGA:   6    -0.675592293786E+03   -0.28303E-04   -0.28305E-04  2520   0.337E-04   0.237E-06
 gam= 0.322 g(H,U,f)=  0.264E-04 0.729E-05 0.238E-21 ort(H,U,f) =-0.136E-04 0.139E-04 0.190E-20
 gam= 0.322 trial= 0.561  step=  0.5536 mean=  0.5606
CGA:   7    -0.675592303145E+03   -0.93587E-05   -0.93584E-05  2520   0.122E-04  -0.845E-07
 gam= 0.362 g(H,U,f)=  0.942E-05 0.281E-05 0.137E-21 ort(H,U,f) =-0.688E-05 0.679E-05-0.574E-21
 gam= 0.362 trial= 0.560  step=  0.5576 mean=  0.5599
 final diagonalization occupied
  13 F= -.67559230E+03 E0= -.67559230E+03  d E =-.429237E-02  mag=     1.0000
 curvature:  -1.69 expect dE=-0.390E-02 dE for cont linesearch -0.114E-04
 trial: gam= 0.57763 g(F)=  0.231E-02 g(S)=  0.000E+00 ort = 0.218E-03 (trialstep = 0.148E+01)
 search vector abs. value=  0.490E-02
 bond charge predicted
 wavefunctions rotated
 writing wavefunctions
       N       E                     dE             d eps       ncg     rms           ort
SDA:   1    -0.675350376951E+03    0.24192E+00    0.00000E+00  2520   0.542E+00   0.000E+00
 gam= 0.000 g(H,U,f)=  0.528E+00 0.140E-01 0.331E-16 ort(H,U,f) = 0.000E+00 0.000E+00 0.000E+00
 gam= 0.000 trial= 0.560  step=  0.7697 mean=  0.5596
CGA:   2    -0.675558931850E+03   -0.20855E+00   -0.20855E+00  2520   0.116E+00   0.452E-05
 gam= 0.214 g(H,U,f)=  0.102E+00 0.137E-01 0.379E-15 ort(H,U,f) = 0.123E-01-0.123E-01-0.267E-15
 gam= 0.214 trial= 0.581  step=  0.5629 mean=  0.5806
CGA:   3    -0.675591610123E+03   -0.32678E-01   -0.32678E-01  2520   0.935E-02   0.151E-04
 gam= 0.081 g(H,U,f)=  0.888E-02 0.467E-03 0.247E-19 ort(H,U,f) =-0.781E-03 0.796E-03 0.123E-17
 gam= 0.081 trial= 0.579  step=  0.4986 mean=  0.5789
CGA:   4    -0.675593941689E+03   -0.23316E-02   -0.23313E-02  2520   0.210E-02  -0.787E-05
 gam= 0.225 g(H,U,f)=  0.191E-02 0.192E-03 0.511E-19 ort(H,U,f) =-0.273E-03 0.266E-03 0.163E-18
 gam= 0.225 trial= 0.571  step=  0.4539 mean=  0.5708
CGA:   5    -0.675594418219E+03   -0.47653E-03   -0.47680E-03  2520   0.336E-03   0.454E-05
 gam= 0.160 g(H,U,f)=  0.269E-03 0.674E-04 0.630E-19 ort(H,U,f) =-0.133E-03 0.138E-03 0.869E-19
 gam= 0.160 trial= 0.559  step=  0.6129 mean=  0.5592
CGA:   6    -0.675594521398E+03   -0.10318E-03   -0.10319E-03  2520   0.990E-04  -0.344E-06
 gam= 0.295 g(H,U,f)=  0.714E-04 0.276E-04 0.410E-21 ort(H,U,f) =-0.531E-04 0.528E-04-0.544E-20
 gam= 0.295 trial= 0.565  step=  0.6261 mean=  0.5645
CGA:   7    -0.675594552369E+03   -0.30971E-04   -0.30966E-04  2520   0.331E-04   0.164E-06
 gam= 0.335 g(H,U,f)=  0.257E-04 0.744E-05 0.429E-21 ort(H,U,f) =-0.201E-04 0.203E-04-0.137E-20
 gam= 0.335 trial= 0.571  step=  0.6207 mean=  0.5707
CGA:   8    -0.675594562682E+03   -0.10313E-04   -0.10301E-04  2520   0.132E-04   0.485E-06
 gam= 0.399 g(H,U,f)=  0.112E-04 0.202E-05 0.257E-22 ort(H,U,f) =-0.566E-05 0.614E-05-0.451E-23
 gam= 0.399 trial= 0.576  step=  0.5061 mean=  0.5757
CGA:   9    -0.675594566079E+03   -0.33966E-05   -0.33937E-05  2520   0.509E-05  -0.834E-07
 gam= 0.385 g(H,U,f)=  0.422E-05 0.867E-06 0.130E-21 ort(H,U,f) =-0.229E-05 0.221E-05 0.218E-22
 gam= 0.385 trial= 0.569  step=  0.5456 mean=  0.5687
 final diagonalization occupied
  14 F= -.67559457E+03 E0= -.67559457E+03  d E =-.226293E-02  mag=     1.0000
 trial-energy change:   -0.002263  1 .order   -0.002230   -0.003600   -0.000859
 step:   1.9417(harm=  1.9417)  dis= 0.01072  next Energy=  -675.594667 (dE=-0.236E-02)
 bond charge predicted
 wavefunctions rotated
 writing wavefunctions
       N       E                     dE             d eps       ncg     rms           ort
SDA:   1    -0.675570704313E+03    0.23858E-01    0.00000E+00  2520   0.532E-01   0.000E+00
 gam= 0.000 g(H,U,f)=  0.518E-01 0.138E-02 0.362E-17 ort(H,U,f) = 0.000E+00 0.000E+00 0.000E+00
 gam= 0.000 trial= 0.566  step=  0.7676 mean=  0.5664
CGA:   2    -0.675591111301E+03   -0.20407E-01   -0.20407E-01  2520   0.115E-01  -0.794E-06
 gam= 0.216 g(H,U,f)=  0.102E-01 0.131E-02 0.165E-16 ort(H,U,f) = 0.119E-02-0.119E-02-0.113E-16
 gam= 0.216 trial= 0.587  step=  0.5697 mean=  0.5865
CGA:   3    -0.675594381585E+03   -0.32703E-02   -0.32703E-02  2520   0.109E-02   0.547E-06
 gam= 0.095 g(H,U,f)=  0.104E-02 0.483E-04 0.268E-20 ort(H,U,f) =-0.857E-04 0.863E-04-0.143E-19
 gam= 0.095 trial= 0.585  step=  0.4771 mean=  0.5849
CGA:   4    -0.675594640621E+03   -0.25904E-03   -0.25902E-03  2520   0.237E-03  -0.300E-06
 gam= 0.218 g(H,U,f)=  0.219E-03 0.183E-04 0.128E-20 ort(H,U,f) =-0.265E-04 0.262E-04 0.774E-20
 gam= 0.218 trial= 0.574  step=  0.4840 mean=  0.5741
CGA:   5    -0.675594697990E+03   -0.57369E-04   -0.57374E-04  2520   0.459E-04   0.123E-06
 gam= 0.194 g(H,U,f)=  0.393E-04 0.667E-05 0.400E-20 ort(H,U,f) =-0.134E-04 0.136E-04 0.480E-20
 gam= 0.194 trial= 0.565  step=  0.5275 mean=  0.5651
CGA:   6    -0.675594710113E+03   -0.12124E-04   -0.12124E-04  2520   0.154E-04  -0.548E-08
 gam= 0.335 g(H,U,f)=  0.122E-04 0.317E-05 0.196E-22 ort(H,U,f) =-0.615E-05 0.615E-05-0.439E-22
 gam= 0.335 trial= 0.561  step=  0.5298 mean=  0.5613
CGA:   7    -0.675594714192E+03   -0.40786E-05   -0.40788E-05  2520   0.603E-05   0.100E-07
 gam= 0.392 g(H,U,f)=  0.466E-05 0.138E-05 0.145E-21 ort(H,U,f) =-0.317E-05 0.318E-05-0.294E-21
 gam= 0.392 trial= 0.558  step=  0.5345 mean=  0.5582
 final diagonalization occupied
  15 F= -.67559471E+03 E0= -.67559471E+03  d E =-.241105E-02  mag=     1.0000
 curvature:  -1.95 expect dE=-0.199E-02 dE for cont linesearch -0.202E-06
 trial: gam= 0.50428 g(F)=  0.102E-02 g(S)=  0.000E+00 ort =-0.225E-04 (trialstep = 0.157E+01)
 search vector abs. value=  0.224E-02
 bond charge predicted
 wavefunctions rotated
 writing wavefunctions
       N       E                     dE             d eps       ncg     rms           ort
SDA:   1    -0.675496726948E+03    0.97983E-01    0.00000E+00  2520   0.208E+00   0.000E+00
 gam= 0.000 g(H,U,f)=  0.204E+00 0.394E-02 0.145E-16 ort(H,U,f) = 0.000E+00 0.000E+00 0.000E+00
 gam= 0.000 trial= 0.556  step=  0.8339 mean=  0.5558
CGA:   2    -0.675583276413E+03   -0.86549E-01   -0.86550E-01  2520   0.419E-01  -0.597E-05
 gam= 0.202 g(H,U,f)=  0.377E-01 0.422E-02 0.670E-16 ort(H,U,f) = 0.360E-02-0.361E-02-0.449E-16
 gam= 0.202 trial= 0.584  step=  0.5293 mean=  0.5836
CGA:   3    -0.675594373881E+03   -0.11097E-01   -0.11098E-01  2520   0.346E-02   0.102E-04
 gam= 0.083 g(H,U,f)=  0.331E-02 0.150E-03 0.491E-19 ort(H,U,f) =-0.196E-03 0.206E-03-0.936E-18
 gam= 0.083 trial= 0.578  step=  0.4990 mean=  0.5782
CGA:   4    -0.675595237611E+03   -0.86373E-03   -0.86352E-03  2520   0.739E-03  -0.540E-05
 gam= 0.214 g(H,U,f)=  0.685E-03 0.538E-04 0.570E-20 ort(H,U,f) =-0.735E-04 0.681E-04 0.181E-19
 gam= 0.214 trial= 0.570  step=  0.4683 mean=  0.5703
CGA:   5    -0.675595410249E+03   -0.17264E-03   -0.17277E-03  2520   0.126E-03   0.252E-05
 gam= 0.170 g(H,U,f)=  0.105E-03 0.202E-04 0.243E-19 ort(H,U,f) =-0.363E-04 0.388E-04 0.166E-19
 gam= 0.170 trial= 0.560  step=  0.5612 mean=  0.5601
CGA:   6    -0.675595445625E+03   -0.35375E-04   -0.35376E-04  2520   0.388E-04  -0.499E-06
 gam= 0.309 g(H,U,f)=  0.295E-04 0.921E-05 0.114E-20 ort(H,U,f) =-0.170E-04 0.165E-04-0.505E-20
 gam= 0.309 trial= 0.560  step=  0.5650 mean=  0.5602
CGA:   7    -0.675595456531E+03   -0.10907E-04   -0.10907E-04  2520   0.149E-04   0.297E-07
 gam= 0.384 g(H,U,f)=  0.118E-04 0.314E-05 0.726E-21 ort(H,U,f) =-0.790E-05 0.793E-05-0.591E-21
 gam= 0.384 trial= 0.561  step=  0.4944 mean=  0.5607
CGA:   8    -0.675595460210E+03   -0.36787E-05   -0.36863E-05  2520   0.682E-05   0.227E-06
 gam= 0.458 g(H,U,f)=  0.562E-05 0.120E-05 0.399E-22 ort(H,U,f) =-0.314E-05 0.336E-05-0.775E-22
 gam= 0.458 trial= 0.554  step=  0.5320 mean=  0.5540
 final diagonalization occupied
  16 F= -.67559546E+03 E0= -.67559546E+03  d E =-.746018E-03  mag=     1.0000
 trial-energy change:   -0.000746  1 .order   -0.000734   -0.001579    0.000111
 step:   1.4674(harm=  1.4674)  dis= 0.00746  next Energy=  -675.595452 (dE=-0.738E-03)
 reached required accuracy - stopping structural energy minimisation
 writing wavefunctions
