       N       E                     dE             d eps       ncg     rms          rms(c)
DAV:   1     0.182444159986E+03    0.18244E+03   -0.10940E+04   324   0.107E+03
DAV:   2     0.389179904880E+01   -0.17855E+03   -0.17584E+03   468   0.226E+02
DAV:   3    -0.835802377528E+01   -0.12250E+02   -0.12220E+02   390   0.727E+01
DAV:   4    -0.850476461341E+01   -0.14674E+00   -0.14667E+00   404   0.927E+00
DAV:   5    -0.850719634359E+01   -0.24317E-02   -0.24316E-02   392   0.117E+00    0.168E+01
DAV:   6    -0.814886596983E+01    0.35833E+00   -0.26160E-01   354   0.341E+00    0.111E+01
DAV:   7    -0.803823120834E+01    0.11063E+00   -0.57864E-01   364   0.494E+00    0.964E-01
DAV:   8    -0.802394189001E+01    0.14289E-01   -0.73944E-02   344   0.192E+00    0.412E-01
DAV:   9    -0.802409693071E+01   -0.15504E-03   -0.20850E-03   394   0.322E-01    0.111E-01
DAV:  10    -0.802417308091E+01   -0.76150E-04   -0.14762E-04   434   0.871E-02    0.627E-02
DAV:  11    -0.802417838906E+01   -0.53081E-05   -0.41015E-05   348   0.412E-02    0.131E-02
DAV:  12    -0.802417838597E+01    0.30859E-08   -0.39030E-06   356   0.150E-02    0.590E-03
DAV:  13    -0.802417882611E+01   -0.44014E-06   -0.10806E-06   420   0.714E-03    0.205E-03
DAV:  14    -0.802417883267E+01   -0.65609E-08   -0.13495E-07   200   0.266E-03
   1 F= -.80241788E+01 E0= -.80241788E+01  d E =-.802418E+01
       N       E                     dE             d eps       ncg     rms          rms(c)
DAV:   1    -0.803956092297E+01   -0.15382E-01   -0.75339E-01   324   0.504E+00    0.703E-01
DAV:   2    -0.803376202640E+01    0.57989E-02   -0.35459E-02   358   0.140E+00    0.253E-01
DAV:   3    -0.803188236868E+01    0.18797E-02   -0.35055E-03   352   0.349E-01    0.170E-01
DAV:   4    -0.803169972416E+01    0.18264E-03   -0.34665E-04   414   0.119E-01    0.113E-01
DAV:   5    -0.803168617362E+01    0.13551E-04   -0.75970E-05   366   0.614E-02    0.112E-02
DAV:   6    -0.803168553100E+01    0.64262E-06   -0.12606E-05   346   0.228E-02    0.853E-03
DAV:   7    -0.803168558546E+01   -0.54469E-07   -0.13409E-06   424   0.776E-03    0.559E-03
DAV:   8    -0.803168565775E+01   -0.72282E-07   -0.14394E-07   206   0.283E-03
   2 F= -.80316857E+01 E0= -.80316857E+01  d E =-.750683E-02
       N       E                     dE             d eps       ncg     rms          rms(c)
DAV:   1    -0.812115718939E+01   -0.89472E-01   -0.68345E+00   324   0.152E+01    0.212E+00
DAV:   2    -0.806745457497E+01    0.53703E-01   -0.32570E-01   358   0.420E+00    0.770E-01
DAV:   3    -0.805083633141E+01    0.16618E-01   -0.30686E-02   346   0.104E+00    0.530E-01
DAV:   4    -0.804900695513E+01    0.18294E-02   -0.33417E-03   414   0.372E-01    0.341E-01
DAV:   5    -0.804880314264E+01    0.20381E-03   -0.71404E-04   358   0.188E-01    0.341E-02
DAV:   6    -0.804879933731E+01    0.38053E-05   -0.95382E-05   348   0.640E-02    0.259E-02
DAV:   7    -0.804880055941E+01   -0.12221E-05   -0.11818E-05   420   0.230E-02    0.166E-02
DAV:   8    -0.804880086541E+01   -0.30600E-06   -0.15465E-06   348   0.862E-03    0.324E-03
DAV:   9    -0.804880091561E+01   -0.50195E-07   -0.22573E-07   274   0.363E-03
   3 F= -.80488009E+01 E0= -.80488009E+01  d E =-.246221E-01
       N       E                     dE             d eps       ncg     rms          rms(c)
DAV:   1    -0.835043745351E+01   -0.30164E+00   -0.27739E+01   324   0.306E+01    0.430E+00
DAV:   2    -0.812869922398E+01    0.22174E+00   -0.13582E+00   366   0.847E+00    0.160E+00
DAV:   3    -0.806297787394E+01    0.65721E-01   -0.11887E-01   352   0.209E+00    0.114E+00
DAV:   4    -0.805482321076E+01    0.81547E-02   -0.14629E-02   406   0.792E-01    0.710E-01
DAV:   5    -0.805387553118E+01    0.94768E-03   -0.31840E-03   368   0.397E-01    0.681E-02
DAV:   6    -0.805387271531E+01    0.28159E-05   -0.31594E-04   364   0.121E-01    0.529E-02
DAV:   7    -0.805387658939E+01   -0.38741E-05   -0.45720E-05   414   0.451E-02    0.313E-02
DAV:   8    -0.805387659895E+01   -0.95698E-08   -0.66181E-06   350   0.176E-02    0.710E-03
DAV:   9    -0.805387684203E+01   -0.24307E-06   -0.82619E-07   410   0.678E-03    0.141E-03
DAV:  10    -0.805387689301E+01   -0.50984E-07   -0.92104E-08   212   0.226E-03
   4 F= -.80538769E+01 E0= -.80538769E+01  d E =-.296981E-01
       N       E                     dE             d eps       ncg     rms          rms(c)
DAV:   1    -0.812333168382E+01   -0.69455E-01   -0.63066E+00   324   0.149E+01    0.181E+00
DAV:   2    -0.807695401947E+01    0.46378E-01   -0.30385E-01   370   0.411E+00    0.765E-01
DAV:   3    -0.805911782329E+01    0.17836E-01   -0.33490E-02   340   0.109E+00    0.529E-01
DAV:   4    -0.805791263495E+01    0.12052E-02   -0.20343E-03   418   0.292E-01    0.374E-01
DAV:   5    -0.805759341999E+01    0.31921E-03   -0.73190E-04   360   0.189E-01    0.306E-02
DAV:   6    -0.805758485941E+01    0.85606E-05   -0.10664E-04   348   0.669E-02    0.236E-02
DAV:   7    -0.805758714478E+01   -0.22854E-05   -0.88647E-06   418   0.204E-02    0.121E-02
DAV:   8    -0.805758771307E+01   -0.56829E-06   -0.89137E-07   356   0.672E-03    0.312E-03
DAV:   9    -0.805758786199E+01   -0.14892E-06   -0.16401E-07   196   0.322E-03    0.536E-04
DAV:  10    -0.805758786424E+01   -0.22517E-08   -0.50228E-08   180   0.150E-03
   5 F= -.80575879E+01 E0= -.80575879E+01  d E =-.334090E-01
       N       E                     dE             d eps       ncg     rms          rms(c)
DAV:   1    -0.806852799471E+01   -0.10940E-01   -0.30563E-01   324   0.353E+00    0.631E-01
DAV:   2    -0.806303055439E+01    0.54974E-02   -0.11655E-02   344   0.763E-01    0.221E-01
DAV:   3    -0.806147265320E+01    0.15579E-02   -0.35831E-03   338   0.347E-01    0.155E-01
DAV:   4    -0.806142469870E+01    0.47955E-04   -0.10667E-04   418   0.690E-02    0.133E-01
DAV:   5    -0.806140249526E+01    0.22203E-04   -0.94194E-05   350   0.671E-02    0.142E-02
DAV:   6    -0.806140474077E+01   -0.22455E-05   -0.69889E-06   404   0.183E-02    0.480E-03
DAV:   7    -0.806140435892E+01    0.38185E-06   -0.73582E-07   358   0.576E-03    0.274E-03
DAV:   8    -0.806140434584E+01    0.13077E-07   -0.15259E-07   200   0.289E-03
   6 F= -.80614043E+01 E0= -.80614043E+01  d E =-.381648E-02
       N       E                     dE             d eps       ncg     rms          rms(c)
DAV:   1    -0.807602049154E+01   -0.14616E-01   -0.53332E-01   324   0.467E+00    0.842E-01
DAV:   2    -0.806647651982E+01    0.95440E-02   -0.20337E-02   344   0.101E+00    0.293E-01
DAV:   3    -0.806376094543E+01    0.27156E-02   -0.61820E-03   338   0.457E-01    0.204E-01
DAV:   4    -0.806367161119E+01    0.89334E-04   -0.19097E-04   418   0.921E-02    0.177E-01
DAV:   5    -0.806362711420E+01    0.44497E-04   -0.16271E-04   350   0.883E-02    0.187E-02
DAV:   6    -0.806363038668E+01   -0.32725E-05   -0.12155E-05   404   0.241E-02    0.630E-03
DAV:   7    -0.806362987300E+01    0.51368E-06   -0.12852E-06   366   0.763E-03    0.365E-03
DAV:   8    -0.806362989862E+01   -0.25619E-07   -0.28613E-07   280   0.379E-03
   7 F= -.80636299E+01 E0= -.80636299E+01  d E =-.604203E-02
       N       E                     dE             d eps       ncg     rms          rms(c)
DAV:   1    -0.806405040894E+01   -0.42054E-03   -0.16054E-02   324   0.809E-01    0.146E-01
DAV:   2    -0.806376025824E+01    0.29015E-03   -0.60882E-04   344   0.175E-01    0.509E-02
DAV:   3    -0.806367772754E+01    0.82531E-04   -0.18649E-04   338   0.795E-02    0.355E-02
DAV:   4    -0.806367582299E+01    0.19046E-05   -0.58575E-06   426   0.161E-02    0.310E-02
DAV:   5    -0.806367714106E+01   -0.13181E-05   -0.47466E-06   350   0.151E-02    0.331E-03
DAV:   6    -0.806367750364E+01   -0.36258E-06   -0.35034E-07   276   0.415E-03    0.113E-03
DAV:   7    -0.806367740981E+01    0.93821E-07   -0.39987E-08   174   0.141E-03
   8 F= -.80636774E+01 E0= -.80636774E+01  d E =-.608955E-02
       N       E                     dE             d eps       ncg     rms          rms(c)
DAV:   1    -0.806394050365E+01   -0.26300E-03   -0.58237E-03   324   0.458E-01    0.351E-02
DAV:   2    -0.806394212408E+01   -0.16204E-05   -0.25607E-04   406   0.117E-01    0.173E-02
DAV:   3    -0.806393418685E+01    0.79372E-05   -0.57296E-06   358   0.177E-02    0.106E-02
DAV:   4    -0.806393083539E+01    0.33515E-05   -0.86925E-06   354   0.189E-02    0.313E-03
DAV:   5    -0.806393066403E+01    0.17136E-06   -0.70642E-07   340   0.616E-03    0.126E-03
DAV:   6    -0.806393065881E+01    0.52208E-08   -0.55799E-08   176   0.182E-03
   9 F= -.80639307E+01 E0= -.80639307E+01  d E =-.253249E-03
       N       E                     dE             d eps       ncg     rms          rms(c)
DAV:   1    -0.806474153484E+01   -0.81087E-03   -0.52363E-02   324   0.137E+00    0.105E-01
DAV:   2    -0.806475337697E+01   -0.11842E-04   -0.23008E-03   406   0.350E-01    0.518E-02
DAV:   3    -0.806468191084E+01    0.71466E-04   -0.51632E-05   358   0.530E-02    0.317E-02
DAV:   4    -0.806465316911E+01    0.28742E-04   -0.77958E-05   354   0.565E-02    0.941E-03
DAV:   5    -0.806465295681E+01    0.21230E-06   -0.63143E-06   340   0.184E-02    0.375E-03
DAV:   6    -0.806465291229E+01    0.44523E-07   -0.55949E-07   346   0.546E-03
  10 F= -.80646529E+01 E0= -.80646529E+01  d E =-.975502E-03
       N       E                     dE             d eps       ncg     rms          rms(c)
DAV:   1    -0.806628265988E+01   -0.16297E-02   -0.20957E-01   324   0.274E+00    0.211E-01
DAV:   2    -0.806632696382E+01   -0.44304E-04   -0.91839E-03   406   0.699E-01    0.104E-01
DAV:   3    -0.806603975920E+01    0.28720E-03   -0.20758E-04   358   0.106E-01    0.632E-02
DAV:   4    -0.806592593098E+01    0.11383E-03   -0.31273E-04   354   0.113E-01    0.189E-02
DAV:   5    -0.806592642137E+01   -0.49039E-06   -0.25372E-05   340   0.369E-02    0.750E-03
DAV:   6    -0.806592623243E+01    0.18894E-06   -0.22994E-06   366   0.111E-02    0.374E-03
DAV:   7    -0.806592638524E+01   -0.15281E-06   -0.28411E-07   304   0.395E-03    0.648E-04
DAV:   8    -0.806592638876E+01   -0.35210E-08   -0.30681E-08   186   0.134E-03
  11 F= -.80659264E+01 E0= -.80659264E+01  d E =-.224898E-02
       N       E                     dE             d eps       ncg     rms          rms(c)
DAV:   1    -0.806920254654E+01   -0.32762E-02   -0.83817E-01   324   0.548E+00    0.422E-01
DAV:   2    -0.806937659796E+01   -0.17405E-03   -0.36567E-02   414   0.140E+00    0.207E-01
DAV:   3    -0.806822169682E+01    0.11549E-02   -0.83553E-04   358   0.212E-01    0.126E-01
DAV:   4    -0.806776750751E+01    0.45419E-03   -0.12545E-03   354   0.226E-01    0.380E-02
DAV:   5    -0.806777195591E+01   -0.44484E-05   -0.10136E-04   338   0.737E-02    0.149E-02
DAV:   6    -0.806777111526E+01    0.84066E-06   -0.95045E-06   368   0.224E-02    0.741E-03
DAV:   7    -0.806777189000E+01   -0.77474E-06   -0.11742E-06   370   0.799E-03    0.128E-03
DAV:   8    -0.806777194724E+01   -0.57240E-07   -0.10938E-07   208   0.258E-03
  12 F= -.80677719E+01 E0= -.80677719E+01  d E =-.409454E-02
       N       E                     dE             d eps       ncg     rms          rms(c)
DAV:   1    -0.807429589603E+01   -0.65240E-02   -0.33548E+00   324   0.109E+01    0.848E-01
DAV:   2    -0.807501857784E+01   -0.72268E-03   -0.14522E-01   416   0.279E+00    0.414E-01
DAV:   3    -0.807034782565E+01    0.46708E-02   -0.33743E-03   358   0.424E-01    0.252E-01
DAV:   4    -0.806851878862E+01    0.18290E-02   -0.50871E-03   354   0.453E-01    0.774E-02
DAV:   5    -0.806854168745E+01   -0.22899E-04   -0.41229E-04   338   0.149E-01    0.296E-02
DAV:   6    -0.806853733255E+01    0.43549E-05   -0.41612E-05   368   0.468E-02    0.147E-02
DAV:   7    -0.806854083669E+01   -0.35041E-05   -0.49304E-06   366   0.164E-02    0.256E-03
DAV:   8    -0.806854116705E+01   -0.33035E-06   -0.54597E-07   360   0.536E-03    0.170E-03
DAV:   9    -0.806854120894E+01   -0.41896E-07   -0.34221E-08   188   0.147E-03
  13 F= -.80685412E+01 E0= -.80685412E+01  d E =-.486380E-02
       N       E                     dE             d eps       ncg     rms          rms(c)
DAV:   1    -0.806921850226E+01   -0.67734E-03   -0.30773E-01   324   0.333E+00    0.252E-01
DAV:   2    -0.806930221538E+01   -0.83713E-04   -0.13541E-02   416   0.847E-01    0.125E-01
DAV:   3    -0.806888579255E+01    0.41642E-03   -0.29900E-04   358   0.128E-01    0.761E-02
DAV:   4    -0.806872095372E+01    0.16484E-03   -0.47043E-04   350   0.139E-01    0.218E-02
DAV:   5    -0.806872510003E+01   -0.41463E-05   -0.38904E-05   338   0.459E-02    0.943E-03
DAV:   6    -0.806872479659E+01    0.30344E-06   -0.31431E-06   358   0.131E-02    0.478E-03
DAV:   7    -0.806872525599E+01   -0.45940E-06   -0.41544E-07   328   0.463E-03    0.922E-04
DAV:   8    -0.806872533395E+01   -0.77958E-07   -0.42108E-08   196   0.159E-03
  14 F= -.80687253E+01 E0= -.80687253E+01  d E =-.504792E-02
       N       E                     dE             d eps       ncg     rms          rms(c)
DAV:   1    -0.806942359253E+01   -0.69834E-03   -0.65825E-02   324   0.157E+00    0.225E-01
DAV:   2    -0.806935273354E+01    0.70859E-04   -0.31062E-03   408   0.407E-01    0.820E-02
DAV:   3    -0.806923271175E+01    0.12002E-03   -0.16295E-04   352   0.840E-02    0.456E-02
DAV:   4    -0.806921594526E+01    0.16766E-04   -0.51276E-05   412   0.440E-02    0.301E-02
DAV:   5    -0.806921349646E+01    0.24488E-05   -0.64977E-06   342   0.168E-02    0.733E-03
DAV:   6    -0.806921302520E+01    0.47126E-06   -0.13902E-06   344   0.800E-03    0.193E-03
DAV:   7    -0.806921316887E+01   -0.14367E-06   -0.18620E-07   188   0.291E-03    0.103E-03
DAV:   8    -0.806921320190E+01   -0.33027E-07   -0.54453E-08   172   0.172E-03
  15 F= -.80692132E+01 E0= -.80692132E+01  d E =-.487868E-03
       N       E                     dE             d eps       ncg     rms          rms(c)
DAV:   1    -0.806938789186E+01   -0.17472E-03   -0.28470E-02   324   0.103E+00    0.147E-01
DAV:   2    -0.806935761533E+01    0.30277E-04   -0.13447E-03   408   0.268E-01    0.537E-02
DAV:   3    -0.806930578436E+01    0.51831E-04   -0.70163E-05   352   0.551E-02    0.298E-02
DAV:   4    -0.806929819998E+01    0.75844E-05   -0.22240E-05   412   0.289E-02    0.197E-02
DAV:   5    -0.806929659636E+01    0.16036E-05   -0.28094E-06   344   0.111E-02    0.479E-03
DAV:   6    -0.806929636428E+01    0.23208E-06   -0.60198E-07   338   0.526E-03    0.127E-03
DAV:   7    -0.806929645915E+01   -0.94865E-07   -0.80238E-08   176   0.191E-03
  16 F= -.80692965E+01 E0= -.80692965E+01  d E =-.571125E-03
       N       E                     dE             d eps       ncg     rms          rms(c)
DAV:   1    -0.806951915857E+01   -0.22279E-03   -0.83023E-03   324   0.560E-01    0.499E-02
DAV:   2    -0.806947161904E+01    0.47540E-04   -0.25982E-04   366   0.122E-01    0.270E-02
DAV:   3    -0.806944027248E+01    0.31347E-04   -0.32877E-05   348   0.400E-02    0.101E-02
DAV:   4    -0.806943838805E+01    0.18844E-05   -0.71930E-06   364   0.178E-02    0.593E-03
DAV:   5    -0.806943864547E+01   -0.25742E-06   -0.74744E-07   356   0.569E-03    0.188E-03
DAV:   6    -0.806943875937E+01   -0.11390E-06   -0.14205E-07   188   0.289E-03    0.568E-04
DAV:   7    -0.806943874662E+01    0.12756E-07   -0.14031E-08   172   0.906E-04
  17 F= -.80694387E+01 E0= -.80694387E+01  d E =-.142287E-03
       N       E                     dE             d eps       ncg     rms          rms(c)
DAV:   1    -0.807054560803E+01   -0.11068E-02   -0.74773E-02   324   0.168E+00    0.150E-01
DAV:   2    -0.807011924777E+01    0.42636E-03   -0.23402E-03   366   0.367E-01    0.811E-02
DAV:   3    -0.806983597973E+01    0.28327E-03   -0.29815E-04   348   0.120E-01    0.302E-02
DAV:   4    -0.806981769222E+01    0.18288E-04   -0.64450E-05   364   0.533E-02    0.178E-02
DAV:   5    -0.806981865408E+01   -0.96185E-06   -0.67263E-06   358   0.171E-02    0.563E-03
DAV:   6    -0.806981925183E+01   -0.59776E-06   -0.13697E-06   342   0.867E-03    0.218E-03
DAV:   7    -0.806981923619E+01    0.15645E-07   -0.79965E-08   206   0.208E-03
  18 F= -.80698192E+01 E0= -.80698192E+01  d E =-.522777E-03
       N       E                     dE             d eps       ncg     rms          rms(c)
DAV:   1    -0.807329532565E+01   -0.34761E-02   -0.29930E-01   324   0.336E+00    0.301E-01
DAV:   2    -0.807158001236E+01    0.17153E-02   -0.93756E-03   366   0.734E-01    0.162E-01
DAV:   3    -0.807044117421E+01    0.11388E-02   -0.11975E-03   348   0.241E-01    0.609E-02
DAV:   4    -0.807036604908E+01    0.75125E-04   -0.25840E-04   364   0.107E-01    0.358E-02
DAV:   5    -0.807036860333E+01   -0.25542E-05   -0.27235E-05   354   0.344E-02    0.112E-02
DAV:   6    -0.807037051201E+01   -0.19087E-05   -0.55260E-06   344   0.174E-02    0.438E-03
DAV:   7    -0.807037054286E+01   -0.30850E-07   -0.35198E-07   354   0.420E-03
  19 F= -.80703705E+01 E0= -.80703705E+01  d E =-.107408E-02
       N       E                     dE             d eps       ncg     rms          rms(c)
DAV:   1    -0.808240744934E+01   -0.12037E-01   -0.11994E+00   324   0.673E+00    0.607E-01
DAV:   2    -0.807545520765E+01    0.69522E-02   -0.37669E-02   366   0.147E+00    0.325E-01
DAV:   3    -0.807085106404E+01    0.46041E-02   -0.48304E-03   348   0.483E-01    0.123E-01
DAV:   4    -0.807054377371E+01    0.30729E-03   -0.10399E-03   364   0.214E-01    0.729E-02
DAV:   5    -0.807055133484E+01   -0.75611E-05   -0.11197E-04   352   0.698E-02    0.223E-02
DAV:   6    -0.807055766641E+01   -0.63316E-05   -0.22638E-05   344   0.352E-02    0.892E-03
DAV:   7    -0.807055806570E+01   -0.39929E-06   -0.14908E-06   402   0.859E-03    0.598E-03
DAV:   8    -0.807055838898E+01   -0.32328E-06   -0.16426E-06   354   0.886E-03    0.219E-03
DAV:   9    -0.807055838622E+01    0.27650E-08   -0.11687E-07   204   0.273E-03
  20 F= -.80705584E+01 E0= -.80705584E+01  d E =-.126193E-02
       N       E                     dE             d eps       ncg     rms          rms(c)
DAV:   1    -0.807211037450E+01   -0.15520E-02   -0.14988E-01   324   0.238E+00    0.217E-01
DAV:   2    -0.807125230045E+01    0.85807E-03   -0.47152E-03   368   0.520E-01    0.115E-01
DAV:   3    -0.807068319123E+01    0.56911E-03   -0.59105E-04   348   0.169E-01    0.442E-02
DAV:   4    -0.807064020492E+01    0.42986E-04   -0.13511E-04   364   0.768E-02    0.267E-02
DAV:   5    -0.807063965322E+01    0.55170E-06   -0.14623E-05   352   0.251E-02    0.823E-03
DAV:   6    -0.807064007023E+01   -0.41701E-06   -0.28485E-06   344   0.125E-02    0.312E-03
DAV:   7    -0.807064017444E+01   -0.10421E-06   -0.17242E-07   250   0.303E-03    0.211E-03
DAV:   8    -0.807064032949E+01   -0.15505E-06   -0.26029E-07   254   0.360E-03    0.613E-04
DAV:   9    -0.807064032211E+01    0.73842E-08   -0.35265E-08   168   0.151E-03
  21 F= -.80706403E+01 E0= -.80706403E+01  d E =-.134386E-02
       N       E                     dE             d eps       ncg     rms          rms(c)
DAV:   1    -0.807106223539E+01   -0.42191E-03   -0.12818E-02   328   0.710E-01    0.120E-01
DAV:   2    -0.807078130762E+01    0.28093E-03   -0.62532E-04   342   0.165E-01    0.402E-02
DAV:   3    -0.807071111081E+01    0.70197E-04   -0.15709E-04   378   0.706E-02    0.311E-02
DAV:   4    -0.807070347134E+01    0.76395E-05   -0.87106E-06   394   0.192E-02    0.129E-02
DAV:   5    -0.807070086404E+01    0.26073E-05   -0.40578E-06   366   0.123E-02    0.252E-03
DAV:   6    -0.807070084328E+01    0.20753E-07   -0.16276E-07   220   0.312E-03
  22 F= -.80707008E+01 E0= -.80707008E+01  d E =-.605212E-04
       N       E                     dE             d eps       ncg     rms          rms(c)
DAV:   1    -0.807407562054E+01   -0.33748E-02   -0.11500E-01   328   0.212E+00    0.359E-01
DAV:   2    -0.807152600795E+01    0.25496E-02   -0.56115E-03   342   0.493E-01    0.120E-01
DAV:   3    -0.807089405255E+01    0.63196E-03   -0.14113E-03   376   0.212E-01    0.937E-02
DAV:   4    -0.807084170388E+01    0.52349E-04   -0.77697E-05   396   0.574E-02    0.385E-02
DAV:   5    -0.807082835374E+01    0.13350E-04   -0.37083E-05   366   0.371E-02    0.748E-03
DAV:   6    -0.807082839738E+01   -0.43642E-07   -0.17291E-06   412   0.941E-03    0.301E-03
DAV:   7    -0.807082851166E+01   -0.11427E-06   -0.20803E-07   246   0.345E-03    0.781E-04
DAV:   8    -0.807082860804E+01   -0.96385E-07   -0.18983E-08   174   0.106E-03
  23 F= -.80708286E+01 E0= -.80708286E+01  d E =-.188286E-03
       N       E                     dE             d eps       ncg     rms          rms(c)
DAV:   1    -0.808376411051E+01   -0.12936E-01   -0.45646E-01   324   0.422E+00    0.715E-01
DAV:   2    -0.807360019445E+01    0.10164E-01   -0.22257E-02   338   0.982E-01    0.239E-01
DAV:   3    -0.807108210588E+01    0.25181E-02   -0.56134E-03   376   0.421E-01    0.188E-01
DAV:   4    -0.807089044643E+01    0.19166E-03   -0.30632E-04   396   0.114E-01    0.761E-02
DAV:   5    -0.807084659500E+01    0.43851E-04   -0.15166E-04   368   0.747E-02    0.147E-02
DAV:   6    -0.807084700998E+01   -0.41499E-06   -0.70152E-06   412   0.189E-02    0.597E-03
DAV:   7    -0.807084739698E+01   -0.38700E-06   -0.90125E-07   354   0.696E-03    0.162E-03
DAV:   8    -0.807084759885E+01   -0.20187E-06   -0.31540E-08   196   0.144E-03    0.656E-04
DAV:   9    -0.807084760532E+01   -0.64741E-08   -0.50855E-08   192   0.175E-03
  24 F= -.80708476E+01 E0= -.80708476E+01  d E =-.207283E-03
       N       E                     dE             d eps       ncg     rms          rms(c)
DAV:   1    -0.807328618467E+01   -0.24386E-02   -0.85595E-02   324   0.183E+00    0.308E-01
DAV:   2    -0.807137252860E+01    0.19137E-02   -0.42019E-03   338   0.426E-01    0.104E-01
DAV:   3    -0.807090495587E+01    0.46757E-03   -0.10465E-03   374   0.182E-01    0.795E-02
DAV:   4    -0.807087875028E+01    0.26206E-04   -0.58851E-05   396   0.499E-02    0.334E-02
DAV:   5    -0.807087733073E+01    0.14196E-05   -0.26047E-05   368   0.312E-02    0.662E-03
DAV:   6    -0.807087751408E+01   -0.18335E-06   -0.12526E-06   404   0.802E-03    0.263E-03
DAV:   7    -0.807087752620E+01   -0.12121E-07   -0.15461E-07   204   0.302E-03
  25 F= -.80708775E+01 E0= -.80708775E+01  d E =-.237204E-03
       N       E                     dE             d eps       ncg     rms          rms(c)
DAV:   1    -0.807091619848E+01   -0.38684E-04   -0.10360E-03   324   0.201E-01    0.367E-02
DAV:   2    -0.807090030034E+01    0.15898E-04   -0.44195E-05   338   0.465E-02    0.103E-02
DAV:   3    -0.807089559715E+01    0.47032E-05   -0.82377E-06   390   0.167E-02    0.728E-03
DAV:   4    -0.807089447785E+01    0.11193E-05   -0.11013E-06   370   0.654E-03    0.439E-03
DAV:   5    -0.807089387363E+01    0.60422E-06   -0.22472E-07   200   0.332E-03    0.374E-04
DAV:   6    -0.807089387133E+01    0.23059E-08   -0.42202E-08   174   0.159E-03
  26 F= -.80708939E+01 E0= -.80708939E+01  d E =-.163451E-04
       N       E                     dE             d eps       ncg     rms          rms(c)
DAV:   1    -0.807113545078E+01   -0.24158E-03   -0.93361E-03   324   0.603E-01    0.110E-01
DAV:   2    -0.807098633616E+01    0.14911E-03   -0.39776E-04   338   0.140E-01    0.308E-02
DAV:   3    -0.807094334755E+01    0.42989E-04   -0.74061E-05   390   0.500E-02    0.219E-02
DAV:   4    -0.807093586903E+01    0.74785E-05   -0.10074E-05   376   0.198E-02    0.132E-02
DAV:   5    -0.807093357658E+01    0.22924E-05   -0.24159E-06   398   0.101E-02    0.165E-03
DAV:   6    -0.807093352994E+01    0.46640E-07   -0.99839E-08   200   0.245E-03
  27 F= -.80709335E+01 E0= -.80709335E+01  d E =-.560037E-04
       N       E                     dE             d eps       ncg     rms          rms(c)
DAV:   1    -0.807177788497E+01   -0.84431E-03   -0.37293E-02   324   0.120E+00    0.221E-01
DAV:   2    -0.807117618655E+01    0.60170E-03   -0.15891E-03   338   0.279E-01    0.616E-02
DAV:   3    -0.807100370106E+01    0.17249E-03   -0.29567E-04   390   0.999E-02    0.438E-02
DAV:   4    -0.807097635832E+01    0.27343E-04   -0.40389E-05   376   0.395E-02    0.263E-02
DAV:   5    -0.807097027503E+01    0.60833E-05   -0.96909E-06   398   0.202E-02    0.330E-03
DAV:   6    -0.807097024444E+01    0.30582E-07   -0.45029E-07   332   0.489E-03
  28 F= -.80709702E+01 E0= -.80709702E+01  d E =-.927182E-04
       N       E                     dE             d eps       ncg     rms          rms(c)
DAV:   1    -0.807099990637E+01   -0.29631E-04   -0.13417E-03   324   0.229E-01    0.420E-02
DAV:   2    -0.807097914055E+01    0.20766E-04   -0.57300E-05   336   0.529E-02    0.117E-02
DAV:   3    -0.807097299176E+01    0.61488E-05   -0.10649E-05   390   0.190E-02    0.826E-03
DAV:   4    -0.807097160790E+01    0.13839E-05   -0.14710E-06   376   0.755E-03    0.498E-03
DAV:   5    -0.807097091862E+01    0.68927E-06   -0.33382E-07   258   0.386E-03    0.585E-04
DAV:   6    -0.807097090128E+01    0.17343E-07   -0.24395E-08   168   0.112E-03
  29 F= -.80709709E+01 E0= -.80709709E+01  d E =-.933751E-04
       N       E                     dE             d eps       ncg     rms          rms(c)
DAV:   1    -0.807097202477E+01   -0.11061E-05   -0.49396E-05   324   0.438E-02    0.800E-03
DAV:   2    -0.807097100878E+01    0.10160E-05   -0.21152E-06   338   0.102E-02    0.225E-03
DAV:   3    -0.807097076265E+01    0.24614E-06   -0.39138E-07   334   0.364E-03    0.162E-03
DAV:   4    -0.807097082486E+01   -0.62217E-07   -0.44201E-08   162   0.140E-03
  30 F= -.80709708E+01 E0= -.80709708E+01  d E =-.932987E-04
       N       E                     dE             d eps       ncg     rms          rms(c)
DAV:   1    -0.807097552209E+01   -0.47594E-05   -0.21581E-04   324   0.916E-02    0.167E-02
DAV:   2    -0.807097153362E+01    0.39885E-05   -0.92449E-06   338   0.212E-02    0.470E-03
DAV:   3    -0.807097049375E+01    0.10399E-05   -0.17188E-06   392   0.761E-03    0.338E-03
DAV:   4    -0.807097054949E+01   -0.55737E-07   -0.20965E-07   194   0.305E-03
  31 F= -.80709705E+01 E0= -.80709705E+01  d E =-.930233E-04
