 vasp.6.5.1 10Mar25 (build May 13 2025 11:33:44) complex                         
 executed on              LinuxNV date 2026.05.13  11:34:15
 running    2 mpi-ranks, on    1 nodes
 distrk:  each k-point on    1 cores,    2 groups
 distr:  one band on NCORE=   1 cores,    1 groups
 Offloading initialized ...    2 GPUs detected


--------------------------------------------------------------------------------------------------------


 INCAR:
   ALGO = Normal
   PREC = Normal
   LREAL = False
   EDIFF = 1e-07
   ENCUT = 400.0
   LASPH = True
   NELM = 100
   ISIF = 3
   IBRION = 2
   EDIFFG = -0.005
   NSW = 300
   ISMEAR = -5
   SIGMA = 0.1
   LWAVE = False
   LCHARG = False
   LORBIT = 10
   GGA = Ps
   KPAR = 2

 POTCAR:    PAW_PBE Cl 06Sep2000                  
 POTCAR:    PAW_PBE Cl 06Sep2000                  
   SHA256 =  9f1b6e6ed4247ac726a768b330d26d7667cc3c95a39ff49c1d064c2d9dcce931 Cl/POTCAR             
   COPYR  = (c) Copyright 06Sep2000 Georg Kresse                                                    
   COPYR  = This file is part of the software VASP. Any use, copying, and all other rights are regul
   COPYR  = If you do not have a valid VASP license, you may not use, copy or distribute this file. 
   VRHFIN =Cl: s2p5                                                                                 
   LEXCH  = PE                                                                                      
   EATOM  =   409.7259 eV,   30.1140 Ry                                                             
                                                                                                    
   TITEL  = PAW_PBE Cl 06Sep2000                                                                    
   LULTRA =        F    use ultrasoft PP ?                                                          
   IUNSCR =        1    unscreen: 0-lin 1-nonlin 2-no                                               
   RPACOR =    1.500    partial core radius                                                         
   POMASS =   35.453; ZVAL   =    7.000    mass and valenz                                          
   RCORE  =    1.900    outmost cutoff radius                                                       
   RWIGS  =    2.100; RWIGS  =    1.111    wigner-seitz radius (au A)                               
   ENMAX  =  262.472; ENMIN  =  196.854 eV                                                          
   ICORE  =        2    local potential                                                             
   LCOR   =        T    correct aug charges                                                         
   LPAW   =        T    paw PP                                                                      
   EAUG   =  356.192                                                                                
   DEXC   =    0.000                                                                                
   RMAX   =    1.945    core radius for proj-oper                                                   
   RAUG   =    1.300    factor for augmentation sphere                                              
   RDEP   =    2.020    radius for radial grids                                                     
   RDEPT  =    1.678    core radius for aug-charge                                                  
                                                                                                    
   Atomic configuration                                                                             
    6 entries                                                                                       
     n  l   j            E        occ.                                                              
     1  0  0.50     -2751.1850   2.0000                                                             
     2  0  0.50      -252.6861   2.0000                                                             
     2  1  1.50      -191.6157   6.0000                                                             
     3  0  0.50       -20.6916   2.0000                                                             
     3  1  0.50        -8.5949   5.0000                                                             
     3  2  1.50        -8.1635   0.0000                                                             
   Description                                                                                      
     l       E           TYP  RCUT    TYP  RCUT                                                     
     0    -20.6915656     23  1.900                                                                 
     0    -22.0521482     23  1.900                                                                 
     1     -8.5948577     23  1.900                                                                 
     1     -5.3847331     23  1.900                                                                 
     2     -8.1634956     23  1.900                                                                 
  local pseudopotential read in
  partial core-charges read in
  partial kinetic energy density read in
  atomic valenz-charges read in
  non local Contribution for L=            0  read in
    real space projection operators read in
  non local Contribution for L=            0  read in
    real space projection operators read in
  non local Contribution for L=            1  read in
    real space projection operators read in
  non local Contribution for L=            1  read in
    real space projection operators read in
    PAW grid and wavefunctions read in
 
   number of l-projection  operators is LMAX  =            4
   number of lm-projection operators is LMMAX =            8
 
 -----------------------------------------------------------------------------
|                                                                             |
|               ----> ADVICE to this user running VASP <----                  |
|                                                                             |
|     You enforced a specific xc type in the INCAR file but a different       |
|     type was found in the POTCAR file.                                      |
|     I HOPE YOU KNOW WHAT YOU ARE DOING!                                     |
|                                                                             |
 -----------------------------------------------------------------------------

  PAW_PBE Cl 06Sep2000                  :
 energy of atom  1       EATOM= -409.7259
 kinetic energy error for atom=    0.0089 (will be added to EATOM!!)
 
 
 POSCAR: Cl4
  positions in direct lattice
  No initial velocities read in


 exchange-correlation table for PS
   RHO(1)=    0.500       N(1)  =     2000
   RHO(2)=  100.500       N(2)  =     4000
 


--------------------------------------------------------------------------------------------------------


 ion  position               nearest neighbor table
   1  0.885  0.115  0.605-   2 2.00
   2  0.115  0.885  0.395-   1 2.00
   3  0.615  0.385  0.105-   4 2.00
   4  0.385  0.615  0.895-   3 2.00
 
  LATTYP: Found a base centered orthorhombic cell.
 ALAT       =     4.1149435100
 B/A-ratio  =     1.5865129531
 C/A-ratio  =     2.0419224346
  
  Lattice vectors:
  
 A1 = (  -3.2642055900,  -2.0574717550,   0.0000000000)
 A2 = (   3.2642055900,  -2.0574717550,   0.0000000000)
 A3 = (   0.0000000000,   0.0000000000,   8.4023954700)


Analysis of symmetry for initial positions (statically):
=====================================================================
 Subroutine PRICEL returns:
 Original cell was already a primitive cell.
 

 Routine SETGRP: Setting up the symmetry group for a 
 base centered orthorhombic supercell.


 Subroutine GETGRP returns: Found  8 space group operations
 (whereof  4 operations were pure point group operations)
 out of a pool of  8 trial point group operations.


The static configuration has the point symmetry C_2h.
 The point group associated with its full space group is D_2h.


Analysis of symmetry for dynamics (positions and initial velocities):
=====================================================================
 Subroutine PRICEL returns:
 Original cell was already a primitive cell.
 

 Routine SETGRP: Setting up the symmetry group for a 
 base centered orthorhombic supercell.


 Subroutine GETGRP returns: Found  8 space group operations
 (whereof  4 operations were pure point group operations)
 out of a pool of  8 trial point group operations.


The dynamic configuration has the point symmetry C_2h.
 The point group associated with its full space group is D_2h.


 Subroutine INISYM returns: Found  8 space group operations
 (whereof  4 operations are pure point group operations),
 and found     1 'primitive' translations


----------------------------------------------------------------------------------------

                                     Primitive cell                                     

  volume of cell :     112.8612

  direct lattice vectors                    reciprocal lattice vectors
     3.264205590 -2.057471755  0.000000000     0.153176626 -0.243016702  0.000000000
     3.264205590  2.057471755  0.000000000     0.153176626  0.243016702 -0.000000000
     0.000000000  0.000000000  8.402395470    -0.000000000  0.000000000  0.119013679

  length of vectors
     3.858526682  3.858526682  8.402395470     0.287263287  0.287263287  0.119013679

  position of ions in fractional coordinates (direct lattice)
     0.885475310  0.114524690  0.604752990
     0.114524690  0.885475310  0.395247010
     0.614524690  0.385475310  0.104752990
     0.385475310  0.614524690  0.895247010

  ion indices of the primitive-cell ions
   primitive index   ion index
                 1           1
                 2           2
                 3           3
                 4           4

----------------------------------------------------------------------------------------

 
 
 KPOINTS: Num irrep kpoints: 9                    

Automatic generation of k-mesh.
 Grid dimensions read from file:
 generate k-points for:    5    5    2

 Generating k-lattice:

  Cartesian coordinates                     Fractional coordinates (reciprocal lattice)
     0.030635325 -0.048603340  0.000000000     0.200000000  0.000000000  0.000000000
     0.030635325  0.048603340 -0.000000000     0.000000000  0.200000000  0.000000000
    -0.000000000  0.000000000  0.059506840     0.000000000  0.000000000  0.500000000

  Length of vectors
     0.057452657  0.057452657  0.059506840

  Shift w.r.t. Gamma in fractional coordinates (k-lattice)
     0.000000000  0.000000000  0.500000000

 TETIRR: Found     39 inequivalent tetrahedra from      300
 
 Subroutine IBZKPT returns following result:
 ===========================================
 
 Found      9 irreducible k-points:
 
 Following reciprocal coordinates:
            Coordinates               Weight
  0.000000  0.000000  0.250000      2.000000
  0.200000  0.000000  0.250000      8.000000
  0.400000  0.000000  0.250000      8.000000
  0.200000  0.200000  0.250000      4.000000
  0.400000  0.200000  0.250000      8.000000
 -0.400000  0.200000  0.250000      8.000000
 -0.200000  0.200000  0.250000      4.000000
  0.400000  0.400000  0.250000      4.000000
 -0.400000  0.400000  0.250000      4.000000
 
 Following cartesian coordinates:
            Coordinates               Weight
  0.000000  0.000000  0.029753      2.000000
  0.030635 -0.048603  0.029753      8.000000
  0.061271 -0.097207  0.029753      8.000000
  0.061271  0.000000  0.029753      4.000000
  0.091906 -0.048603  0.029753      8.000000
 -0.030635  0.145810  0.029753      8.000000
  0.000000  0.097207  0.029753      4.000000
  0.122541  0.000000  0.029753      4.000000
  0.000000  0.194413  0.029753      4.000000
 


--------------------------------------------------------------------------------------------------------




 Dimension of arrays:
   k-points           NKPTS =      9   k-points in BZ     NKDIM =      9   number of bands    NBANDS=     18
   number of dos      NEDOS =    301   number of ions     NIONS =      4
   non local maximal  LDIM  =      4   non local SUM 2l+1 LMDIM =      8
   total plane-waves  NPLWV =  16800
   max r-space proj   IRMAX =      1   max aug-charges    IRDMAX=   4478
   dimension x,y,z NGX =    20 NGY =   20 NGZ =   42
   dimension x,y,z NGXF=    40 NGYF=   40 NGZF=   84
   support grid    NGXF=    40 NGYF=   40 NGZF=   84
   ions per type =               4
   NGX,Y,Z   is equivalent  to a cutoff of   8.62,  8.62,  8.31 a.u.
   NGXF,Y,Z  is equivalent  to a cutoff of  17.23, 17.23, 16.62 a.u.

 SYSTEM =  unknown system                          
 POSCAR =  Cl4                                     

 Startparameter for this run:
   NWRITE =      2    write-flag & timer
   PREC   = normal    normal or accurate (medium, high low for compatibility)
   ISTART =      0    job   : 0-new  1-cont  2-samecut
   ICHARG =      2    charge: 1-file 2-atom 10-const
   ISPIN  =      1    spin polarized calculation?
   LNONCOLLINEAR =      F non collinear calculations
   LSORBIT =      F    spin-orbit coupling
   INIWAV =      1    electr: 0-lowe 1-rand  2-diag
   LASPH  =      T    aspherical Exc in radial PAW
 Electronic Relaxation 1
   ENCUT  =  400.0 eV  29.40 Ry    5.42 a.u.   6.29  6.29 13.70*2*pi/ulx,y,z
   ENINI  =  400.0     initial cutoff
   ENAUG  =  356.2 eV  augmentation charge cutoff
   NELM   =    100;   NELMIN=  2; NELMDL= -5     # of ELM steps 
   EDIFF  = 0.1E-06   stopping-criterion for ELM
   LREAL  =      F    real-space projection
   NLSPLINE    = F    spline interpolate recip. space projectors
   LCOMPAT=      F    compatible to vasp.4.4
   GGA_COMPAT  = T    GGA compatible to vasp.4.4-vasp.4.6
   LMAXPAW     = -100 max onsite density
   LMAXMIX     =    2 max onsite mixed and CHGCAR
   VOSKOWN=      0    Vosko Wilk Nusair interpolation
   ROPT   =    0.00000
 Ionic relaxation
   EDIFFG = -.5E-02   stopping-criterion for IOM
   NSW    =    300    number of steps for IOM
   NBLOCK =      1;   KBLOCK =    300    inner block; outer block 
   IBRION =      2    ionic relax: 0-MD 1-quasi-New 2-CG
   NFREE  =      1    steps in history (QN), initial steepest desc. (CG)
   ISIF   =      3    stress and relaxation
   IWAVPR =     11    prediction:  0-non 1-charg 2-wave 3-comb
   ISYM   =      2    0-nonsym 1-usesym 2-fastsym
   LCORR  =      T    Harris-Foulkes like correction to forces

   POTIM  = 0.5000    time-step for ionic-motion
   TEIN   =    0.0    initial temperature
   TEBEG  =    0.0;   TEEND  =   0.0 temperature during run
   SMASS  =  -3.00    Nose mass-parameter (am)
   estimated Nose-frequenzy (Omega)   =  0.10E-29 period in steps = 0.13E+47 mass=  -0.340E-27a.u.
   SCALEE = 1.0000    scale energy and forces
   NPACO  =    256;   APACO  = 10.0  distance and # of slots for P.C.
   PSTRESS=    0.0 pullay stress

  Mass of Ions in am
   POMASS =  35.45
  Ionic Valenz
   ZVAL   =   7.00
  Atomic Wigner-Seitz radii
   RWIGS  =  -1.00
  virtual crystal weights 
   VCA    =   1.00
   NELECT =      28.0000    total number of electrons
   NUPDOWN=      -1.0000    fix difference up-down

 DOS related values:
   EMIN   =  10.00;   EMAX   =-10.00  energy-range for DOS
   EFERMI =   0.00;   METHOD = LEGACY      
   ISMEAR =    -5;   SIGMA  =   0.10  broadening in eV -4-tet -1-fermi 0-gaus
   EFERMI_NEDOS =   21; number of points for ismear=-14 and -15

 Electronic relaxation 2 (details)
   IALGO  =     38    algorithm
   LDIAG  =      T    sub-space diagonalisation (order eigenvalues)
   LSUBROT=      F    optimize rotation matrix (better conditioning)
   LROBUST=      F    robust break criterion during scf (extrapolated energy error)
   ISEARCH=      0    line search for conjugate gradient (0, 1=use gradient)
   TURBO    =      0    0=normal 1=particle mesh
   IRESTART =      0    0=no restart 2=restart with 2 vectors
   NREBOOT  =      0    no. of reboots
   NMIN     =      0    reboot dimension
   EREF     =   0.00    reference energy to select bands
   IMIX   =      4    mixing-type and parameters
     AMIX     =   0.40;   BMIX     =  1.00
     AMIX_MAG =   1.60;   BMIX_MAG =  1.00
     AMIN     =   0.10
     WC   =   100.;   INIMIX=   1;  MIXPRE=   1;  MAXMIX= -45

 Intra band minimization:
   WEIMIN = 0.0010     energy-eigenvalue tresh-hold
   EBREAK =  0.14E-08  absolut break condition
   DEPER  =   0.30     relativ break condition  

   TIME   =   0.40     timestep for ELM

  volume/ion in A,a.u.               =      28.22       190.41
  Fermi-wavevector in a.u.,A,eV,Ry     =   1.028678  1.943919 14.397384  1.058178
  Thomas-Fermi vector in A             =   2.162686
 
 Write flags
   LWAVE        =      F    write WAVECAR
   LDOWNSAMPLE  =      F    k-point downsampling of WAVECAR
   LCHARG       =      F    write CHGCAR
   LVTOT        =      F    write LOCPOT, total local potential
   LVHAR        =      F    write LOCPOT, Hartree potential only
   WRT_POTENTIAL= false  ! write potential to hdf5 file
   LELF         =      F    write electronic localiz. function (ELF)
   LORBIT       =     10    0 simple, 1 ext, 2 COOP (PROOUT), +10 PAW based schemes


 Python interface
   PLUGINS active      =      F    recompile with -DPLUGINS to activate
 
 Dipole corrections
   LMONO      =      F    monopole corrections only (constant potential shift)
   LDIPOL     =      F    correct potential (dipole corrections)
   IDIPOL     =      0    1-x, 2-y, 3-z, 4-all directions 
   EPSILON    =  1.0000000 bulk dielectric constant
   LVACPOTAV  =      F  vacuum potentials using an averaging scheme for the charge density
   VACPOTFLAT =  0.1000000 required flatness to determine vacuum potential
 
Coulomb truncation method
  LTRUNCATE          =      F  Coulomb kernel truncation to be used

 
 Exchange correlation treatment:
   GGA     = PS    functional components
   XC_C    = 1    coefficients multiplying the functional components
   LIBXC   =     F    Libxc                    
   VOSKOWN =     0    Vosko Wilk Nusair interpolation
   LHFCALC =     F    Hartree Fock is set to
   LHFONE  =     F    Hartree Fock one center treatment
   AEXX    =    0.0000 exact exchange contribution

 Parameters of functionals:
   PS:
     No parameter
 
 Van der Waals corrections
   IVDW    =     0    specifies the selected vdW correction

 Linear response parameters
   LEPSILON=     F    determine dielectric tensor
   LRPA    =     F    only Hartree local field effects (RPA)
   LNABLA  =     F    use nabla operator in PAW spheres
   LVEL    =     F    velocity operator in full k-point grid
   CSHIFT  =0.1000    complex shift for real part using Kramers Kronig
   OMEGAMAX=  -1.0    maximum frequency
   DEG_THRESHOLD= 0.2000000E-02 threshold for treating states as degnerate
   RTIME   =   -0.100 relaxation time in fs
  (WPLASMAI=    0.000 imaginary part of plasma frequency in eV, 0.658/RTIME)
   DFIELD  = 0.0000000 0.0000000 0.0000000 field for delta impulse in time
 
  Optional k-point grid parameters
   LKPOINTS_OPT  =     F    use optional k-point grid
   KPOINTS_OPT_MODE=     1    mode for optional k-point grid
 
 Orbital magnetization related:
   ORBITALMAG=     F  switch on orbital magnetization
   LCHIMAG   =     F  perturbation theory with respect to B field
   DQ        =  0.001000  dq finite difference perturbation B field
   LLRAUG    =     F  two centre corrections for induced B field
   LBONE     =     F  B-component reconstruction in AE one-centre
   LVGVCALC  =     T  calculate vGv susceptibility
   LVGVAPPL  =     F  apply vGv susceptibility instead of pGv for G=0

 Random number generation:
   RANDOM_GENERATOR = DEFAULT
   PCG_SEED         = not used


--------------------------------------------------------------------------------------------------------


 conjugate gradient relaxation of ions
 charge density and potential will be updated during run
 non-spin polarized calculation
 Variant of blocked Davidson
 Davidson routine will perform the subspace rotation
 perform sub-space diagonalisation
    after iterative eigenvector-optimisation
 modified Broyden-mixing scheme, WC =      100.0
 initial mixing is a Kerker type mixing with AMIX =  0.4000 and BMIX =      1.0000
 Hartree-type preconditioning will be used
 using additional bands             4
 reciprocal scheme for non local part
 use partial core corrections
 calculate Harris-corrections to forces 
   (improved forces if not selfconsistent)
 use gradient corrections 
 use of overlap-Matrix (Vanderbilt PP)
 Fermi weights with tetrahedron method with Bloechl corrections


--------------------------------------------------------------------------------------------------------


  energy-cutoff  :      400.00
  volume of cell :      112.86
      direct lattice vectors                 reciprocal lattice vectors
     3.264205590 -2.057471755  0.000000000     0.153176626 -0.243016702  0.000000000
     3.264205590  2.057471755  0.000000000     0.153176626  0.243016702 -0.000000000
     0.000000000  0.000000000  8.402395470    -0.000000000  0.000000000  0.119013679

  length of vectors
     3.858526682  3.858526682  8.402395470     0.287263287  0.287263287  0.119013679


 
 k-points in units of 2pi/SCALE and weight: Num irrep kpoints: 9                    
   0.00000000 -0.00000000  0.02975342       0.040
   0.03063533 -0.04860334  0.02975342       0.160
   0.06127065 -0.09720668  0.02975342       0.160
   0.06127065 -0.00000000  0.02975342       0.080
   0.09190598 -0.04860334  0.02975342       0.160
  -0.03063533  0.14581002  0.02975342       0.160
   0.00000000  0.09720668  0.02975342       0.080
   0.12254130  0.00000000  0.02975342       0.080
   0.00000000  0.19441336  0.02975342       0.080
 
 k-points in reciprocal lattice and weights: Num irrep kpoints: 9                    
   0.00000000  0.00000000  0.25000000       0.040
   0.20000000  0.00000000  0.25000000       0.160
   0.40000000  0.00000000  0.25000000       0.160
   0.20000000  0.20000000  0.25000000       0.080
   0.40000000  0.20000000  0.25000000       0.160
  -0.40000000  0.20000000  0.25000000       0.160
  -0.20000000  0.20000000  0.25000000       0.080
   0.40000000  0.40000000  0.25000000       0.080
  -0.40000000  0.40000000  0.25000000       0.080
 
 position of ions in fractional coordinates (direct lattice) 
   0.88547531  0.11452469  0.60475299
   0.11452469  0.88547531  0.39524701
   0.61452469  0.38547531  0.10475299
   0.38547531  0.61452469  0.89524701
 
 position of ions in cartesian coordinates  (Angst):
   3.26420559 -1.58620913  5.08137378
   3.26420559  1.58620913  3.32102169
   3.26420559 -0.47126263  0.88017605
   3.26420559  0.47126263  7.52221942
 


--------------------------------------------------------------------------------------------------------


 k-point     1 :   0.0000 0.0000 0.2500  plane waves:    2067
 k-point     2 :   0.2000 0.0000 0.2500  plane waves:    2057
 k-point     3 :   0.4000 0.0000 0.2500  plane waves:    2051
 k-point     4 :   0.2000 0.2000 0.2500  plane waves:    2057
 k-point     5 :   0.4000 0.2000 0.2500  plane waves:    2049
 k-point     6 :  -0.4000 0.2000 0.2500  plane waves:    2047
 k-point     7 :  -0.2000 0.2000 0.2500  plane waves:    2049
 k-point     8 :   0.4000 0.4000 0.2500  plane waves:    2040
 k-point     9 :  -0.4000 0.4000 0.2500  plane waves:    2049

 maximum and minimum number of plane-waves per node :      2067     2040

 maximum number of plane-waves:      2067
 maximum index in each direction: 
   IXMAX=    6   IYMAX=    6   IZMAX=   13
   IXMIN=   -6   IYMIN=   -6   IZMIN=  -13


 serial   3D FFT for wavefunctions
 parallel 3D FFT for charge:
    minimum data exchange during FFTs selected (reduces bandwidth)


 total amount of memory used by VASP MPI-rank0    48686. kBytes
=======================================================================

   base                                    :      30000. kBytes
   nonl-proj                               :       1322. kBytes
   fftplans                                :       4680. kBytes
   grid                                    :       7232. kBytes
   one-center                              :         12. kBytes
   wavefun                                 :       5440. kBytes
 
     INWAV:  cpu time      0.0001: real time      0.0002
 Broyden mixing: mesh for mixing (old mesh)
   NGX = 13   NGY = 13   NGZ = 27
  (NGX  = 40   NGY  = 40   NGZ  = 84)
  gives a total of   4563 points

 initial charge density was supplied:
 charge density of overlapping atoms calculated
 number of electron      28.0000000 magnetization 
 keeping initial charge density in first step


--------------------------------------------------------------------------------------------------------


 Maximum index for augmentation-charges          4157 (set IRDMAX)


--------------------------------------------------------------------------------------------------------


 First call to EWALD:  gamma=   0.367
 Maximum number of real-space cells   4x   4x   2
 Maximum number of reciprocal cells   2x   2x   4

    FEWALD:  cpu time      0.0011: real time      0.0011


--------------------------------------- Ionic step        1  -------------------------------------------




--------------------------------------- Iteration      1(   1)  ---------------------------------------


    POTLOK:  cpu time      0.0235: real time      0.0240
    SETDIJ:  cpu time      0.0404: real time      0.0405
     EDDAV:  cpu time      0.2442: real time      0.2453
 BZINTS: Fermi energy:   12.335805;   28.000000 electrons
         Band energy: 0.181789E+02;  BLOECHL correction:   -0.132954
       DOS:  cpu time      0.0040: real time      0.0040
    --------------------------------------------
      LOOP:  cpu time      0.3121: real time      0.3138

 eigenvalue-minimisations  :   324
 total energy-change (2. order) : 0.1824442E+03  (-0.1093980E+04)
 number of electron      28.0000000 magnetization 
 augmentation part       28.0000000 magnetization 

 Free energy of the ion-electron system (eV)
  ---------------------------------------------------
  alpha Z        PSCENC =        29.94119198
  Ewald energy   TEWEN  =     -1242.55322342
  -Hartree energ DENC   =      -339.80084817
  -exchange      EXHF   =         0.00000000
  -V(xc)+E(xc)   XCENC  =        80.99196912
  PAW double counting   =      1300.36435954    -1299.59849449
  entropy T*S    EENTRO =         0.00000000
  eigenvalues    EBANDS =        18.17892123
  atomic energy  EATOM  =      1634.92028419
  Solvation  Ediel_sol  =         0.00000000
  ---------------------------------------------------
  free energy    TOTEN  =       182.44415999 eV

  energy without entropy =      182.44415999  energy(sigma->0) =      182.44415999


--------------------------------------------------------------------------------------------------------




--------------------------------------- Iteration      1(   2)  ---------------------------------------


     EDDAV:  cpu time      0.1049: real time      0.1055
 BZINTS: Fermi energy:    0.589862;   28.000000 electrons
         Band energy:-0.160373E+03;  BLOECHL correction:    0.000000
       DOS:  cpu time      0.0011: real time      0.0011
    --------------------------------------------
      LOOP:  cpu time      0.1060: real time      0.1066

 eigenvalue-minimisations  :   468
 total energy-change (2. order) :-0.1785524E+03  (-0.1758358E+03)
 number of electron      28.0000000 magnetization 
 augmentation part       28.0000000 magnetization 

 Free energy of the ion-electron system (eV)
  ---------------------------------------------------
  alpha Z        PSCENC =        29.94119198
  Ewald energy   TEWEN  =     -1242.55322342
  -Hartree energ DENC   =      -339.80084817
  -exchange      EXHF   =         0.00000000
  -V(xc)+E(xc)   XCENC  =        80.99196912
  PAW double counting   =      1300.36435954    -1299.59849449
  entropy T*S    EENTRO =         0.00000000
  eigenvalues    EBANDS =      -160.37343971
  atomic energy  EATOM  =      1634.92028419
  Solvation  Ediel_sol  =         0.00000000
  ---------------------------------------------------
  free energy    TOTEN  =         3.89179905 eV

  energy without entropy =        3.89179905  energy(sigma->0) =        3.89179905


--------------------------------------------------------------------------------------------------------




--------------------------------------- Iteration      1(   3)  ---------------------------------------


     EDDAV:  cpu time      0.0877: real time      0.0882
 BZINTS: Fermi energy:   -0.391874;   28.000000 electrons
         Band energy:-0.172623E+03;  BLOECHL correction:    0.000000
       DOS:  cpu time      0.0008: real time      0.0008
    --------------------------------------------
      LOOP:  cpu time      0.0885: real time      0.0890

 eigenvalue-minimisations  :   390
 total energy-change (2. order) :-0.1224982E+02  (-0.1222029E+02)
 number of electron      28.0000000 magnetization 
 augmentation part       28.0000000 magnetization 

 Free energy of the ion-electron system (eV)
  ---------------------------------------------------
  alpha Z        PSCENC =        29.94119198
  Ewald energy   TEWEN  =     -1242.55322342
  -Hartree energ DENC   =      -339.80084817
  -exchange      EXHF   =         0.00000000
  -V(xc)+E(xc)   XCENC  =        80.99196912
  PAW double counting   =      1300.36435954    -1299.59849449
  entropy T*S    EENTRO =         0.00000000
  eigenvalues    EBANDS =      -172.62326253
  atomic energy  EATOM  =      1634.92028419
  Solvation  Ediel_sol  =         0.00000000
  ---------------------------------------------------
  free energy    TOTEN  =        -8.35802378 eV

  energy without entropy =       -8.35802378  energy(sigma->0) =       -8.35802378


--------------------------------------------------------------------------------------------------------




--------------------------------------- Iteration      1(   4)  ---------------------------------------


     EDDAV:  cpu time      0.0932: real time      0.0937
 BZINTS: Fermi energy:   -0.447523;   28.000000 electrons
         Band energy:-0.172770E+03;  BLOECHL correction:    0.000000
       DOS:  cpu time      0.0008: real time      0.0008
    --------------------------------------------
      LOOP:  cpu time      0.0940: real time      0.0945

 eigenvalue-minimisations  :   404
 total energy-change (2. order) :-0.1467408E+00  (-0.1466718E+00)
 number of electron      28.0000000 magnetization 
 augmentation part       28.0000000 magnetization 

 Free energy of the ion-electron system (eV)
  ---------------------------------------------------
  alpha Z        PSCENC =        29.94119198
  Ewald energy   TEWEN  =     -1242.55322342
  -Hartree energ DENC   =      -339.80084817
  -exchange      EXHF   =         0.00000000
  -V(xc)+E(xc)   XCENC  =        80.99196912
  PAW double counting   =      1300.36435954    -1299.59849449
  entropy T*S    EENTRO =         0.00000000
  eigenvalues    EBANDS =      -172.77000337
  atomic energy  EATOM  =      1634.92028419
  Solvation  Ediel_sol  =         0.00000000
  ---------------------------------------------------
  free energy    TOTEN  =        -8.50476461 eV

  energy without entropy =       -8.50476461  energy(sigma->0) =       -8.50476461


--------------------------------------------------------------------------------------------------------




--------------------------------------- Iteration      1(   5)  ---------------------------------------


     EDDAV:  cpu time      0.0889: real time      0.0894
 BZINTS: Fermi energy:   -0.433220;   28.000000 electrons
         Band energy:-0.172772E+03;  BLOECHL correction:    0.000000
       DOS:  cpu time      0.0007: real time      0.0007
    CHARGE:  cpu time      0.1860: real time      0.2074
    MIXING:  cpu time      0.0023: real time      0.0023
    --------------------------------------------
      LOOP:  cpu time      0.2779: real time      0.2998

 eigenvalue-minimisations  :   392
 total energy-change (2. order) :-0.2431730E-02  (-0.2431603E-02)
 number of electron      27.9999962 magnetization 
 augmentation part       -3.8429646 magnetization 

 Broyden mixing:
  rms(total) = 0.16809E+01    rms(broyden)= 0.16809E+01
  rms(prec ) = 0.17251E+01
  weight for this iteration     100.00

 Free energy of the ion-electron system (eV)
  ---------------------------------------------------
  alpha Z        PSCENC =        29.94119198
  Ewald energy   TEWEN  =     -1242.55322342
  -Hartree energ DENC   =      -339.80084817
  -exchange      EXHF   =         0.00000000
  -V(xc)+E(xc)   XCENC  =        80.99196912
  PAW double counting   =      1300.36435954    -1299.59849449
  entropy T*S    EENTRO =         0.00000000
  eigenvalues    EBANDS =      -172.77243510
  atomic energy  EATOM  =      1634.92028419
  Solvation  Ediel_sol  =         0.00000000
  ---------------------------------------------------
  free energy    TOTEN  =        -8.50719634 eV

  energy without entropy =       -8.50719634  energy(sigma->0) =       -8.50719634


--------------------------------------------------------------------------------------------------------




--------------------------------------- Iteration      1(   6)  ---------------------------------------


    POTLOK:  cpu time      0.0041: real time      0.0043
    SETDIJ:  cpu time      0.0402: real time      0.0403
     EDDAV:  cpu time      0.0840: real time      0.0843
 BZINTS: Fermi energy:   -0.360847;   28.000000 electrons
         Band energy:-0.173962E+03;  BLOECHL correction:    0.000000
       DOS:  cpu time      0.0008: real time      0.0008
    CHARGE:  cpu time      0.0128: real time      0.0128
    MIXING:  cpu time      0.0020: real time      0.0020
    --------------------------------------------
      LOOP:  cpu time      0.1438: real time      0.1445

 eigenvalue-minimisations  :   354
 total energy-change (2. order) : 0.3583304E+00  (-0.2615973E-01)
 number of electron      27.9999962 magnetization 
 augmentation part       -3.8498155 magnetization 

 Broyden mixing:
  rms(total) = 0.11056E+01    rms(broyden)= 0.11056E+01
  rms(prec ) = 0.11255E+01
  weight for this iteration     100.00

 eigenvalues of (default mixing * dielectric matrix)
  average eigenvalue GAMMA=   2.8850
  2.8850

 Free energy of the ion-electron system (eV)
  ---------------------------------------------------
  alpha Z        PSCENC =        29.94119198
  Ewald energy   TEWEN  =     -1242.55322342
  -Hartree energ DENC   =      -338.23274463
  -exchange      EXHF   =         0.00000000
  -V(xc)+E(xc)   XCENC  =        81.00805111
  PAW double counting   =      1612.12056759    -1611.39091710
  entropy T*S    EENTRO =         0.00000000
  eigenvalues    EBANDS =      -173.96207569
  atomic energy  EATOM  =      1634.92028419
  Solvation  Ediel_sol  =         0.00000000
  ---------------------------------------------------
  free energy    TOTEN  =        -8.14886597 eV

  energy without entropy =       -8.14886597  energy(sigma->0) =       -8.14886597


--------------------------------------------------------------------------------------------------------




--------------------------------------- Iteration      1(   7)  ---------------------------------------


    POTLOK:  cpu time      0.0035: real time      0.0038
    SETDIJ:  cpu time      0.0402: real time      0.0403
     EDDAV:  cpu time      0.0853: real time      0.0856
 BZINTS: Fermi energy:   -0.229199;   28.000000 electrons
         Band energy:-0.174962E+03;  BLOECHL correction:    0.000000
       DOS:  cpu time      0.0008: real time      0.0008
    CHARGE:  cpu time      0.0126: real time      0.0126
    MIXING:  cpu time      0.0020: real time      0.0020
    --------------------------------------------
      LOOP:  cpu time      0.1445: real time      0.1451

 eigenvalue-minimisations  :   364
 total energy-change (2. order) : 0.1106348E+00  (-0.5786411E-01)
 number of electron      27.9999962 magnetization 
 augmentation part       -3.8540860 magnetization 

 Broyden mixing:
  rms(total) = 0.96437E-01    rms(broyden)= 0.96429E-01
  rms(prec ) = 0.11830E+00
  weight for this iteration     100.00

 eigenvalues of (default mixing * dielectric matrix)
  average eigenvalue GAMMA=   2.0703
  2.0703  2.0703

 Free energy of the ion-electron system (eV)
  ---------------------------------------------------
  alpha Z        PSCENC =        29.94119198
  Ewald energy   TEWEN  =     -1242.55322342
  -Hartree energ DENC   =      -337.23093208
  -exchange      EXHF   =         0.00000000
  -V(xc)+E(xc)   XCENC  =        81.16375306
  PAW double counting   =      2318.69523789    -2318.01260168
  entropy T*S    EENTRO =         0.00000000
  eigenvalues    EBANDS =      -174.96194115
  atomic energy  EATOM  =      1634.92028419
  Solvation  Ediel_sol  =         0.00000000
  ---------------------------------------------------
  free energy    TOTEN  =        -8.03823121 eV

  energy without entropy =       -8.03823121  energy(sigma->0) =       -8.03823121


--------------------------------------------------------------------------------------------------------




--------------------------------------- Iteration      1(   8)  ---------------------------------------


    POTLOK:  cpu time      0.0035: real time      0.0038
    SETDIJ:  cpu time      0.0402: real time      0.0403
     EDDAV:  cpu time      0.0822: real time      0.0824
 BZINTS: Fermi energy:   -0.285115;   28.000000 electrons
         Band energy:-0.174426E+03;  BLOECHL correction:    0.000000
       DOS:  cpu time      0.0007: real time      0.0007
    CHARGE:  cpu time      0.0126: real time      0.0127
    MIXING:  cpu time      0.0020: real time      0.0020
    --------------------------------------------
      LOOP:  cpu time      0.1412: real time      0.1419

 eigenvalue-minimisations  :   344
 total energy-change (2. order) : 0.1428932E-01  (-0.7394359E-02)
 number of electron      27.9999962 magnetization 
 augmentation part       -3.8492882 magnetization 

 Broyden mixing:
  rms(total) = 0.41182E-01    rms(broyden)= 0.41180E-01
  rms(prec ) = 0.41812E-01
  weight for this iteration     100.00

 eigenvalues of (default mixing * dielectric matrix)
  average eigenvalue GAMMA=   1.8215
  2.0977  1.6834  1.6834

 Free energy of the ion-electron system (eV)
  ---------------------------------------------------
  alpha Z        PSCENC =        29.94119198
  Ewald energy   TEWEN  =     -1242.55322342
  -Hartree energ DENC   =      -337.72869534
  -exchange      EXHF   =         0.00000000
  -V(xc)+E(xc)   XCENC  =        81.12274461
  PAW double counting   =      2236.39221287    -2235.69201236
  entropy T*S    EENTRO =         0.00000000
  eigenvalues    EBANDS =      -174.42644442
  atomic energy  EATOM  =      1634.92028419
  Solvation  Ediel_sol  =         0.00000000
  ---------------------------------------------------
  free energy    TOTEN  =        -8.02394189 eV

  energy without entropy =       -8.02394189  energy(sigma->0) =       -8.02394189


--------------------------------------------------------------------------------------------------------




--------------------------------------- Iteration      1(   9)  ---------------------------------------


    POTLOK:  cpu time      0.0036: real time      0.0038
    SETDIJ:  cpu time      0.0406: real time      0.0408
     EDDAV:  cpu time      0.0903: real time      0.0905
 BZINTS: Fermi energy:   -0.289637;   28.000000 electrons
         Band energy:-0.174527E+03;  BLOECHL correction:    0.000000
       DOS:  cpu time      0.0007: real time      0.0007
    CHARGE:  cpu time      0.0126: real time      0.0127
    MIXING:  cpu time      0.0020: real time      0.0020
    --------------------------------------------
      LOOP:  cpu time      0.1499: real time      0.1505

 eigenvalue-minimisations  :   394
 total energy-change (2. order) :-0.1550407E-03  (-0.2084999E-03)
 number of electron      27.9999962 magnetization 
 augmentation part       -3.8498287 magnetization 

 Broyden mixing:
  rms(total) = 0.11132E-01    rms(broyden)= 0.11132E-01
  rms(prec ) = 0.11837E-01
  weight for this iteration     100.00

 eigenvalues of (default mixing * dielectric matrix)
  average eigenvalue GAMMA=   1.7777
  2.2984  1.9660  1.9660  0.8801

 Free energy of the ion-electron system (eV)
  ---------------------------------------------------
  alpha Z        PSCENC =        29.94119198
  Ewald energy   TEWEN  =     -1242.55322342
  -Hartree energ DENC   =      -337.62000359
  -exchange      EXHF   =         0.00000000
  -V(xc)+E(xc)   XCENC  =        81.11770996
  PAW double counting   =      2216.71489652    -2216.01808176
  entropy T*S    EENTRO =         0.00000000
  eigenvalues    EBANDS =      -174.52687082
  atomic energy  EATOM  =      1634.92028419
  Solvation  Ediel_sol  =         0.00000000
  ---------------------------------------------------
  free energy    TOTEN  =        -8.02409693 eV

  energy without entropy =       -8.02409693  energy(sigma->0) =       -8.02409693


--------------------------------------------------------------------------------------------------------




--------------------------------------- Iteration      1(  10)  ---------------------------------------


    POTLOK:  cpu time      0.0036: real time      0.0038
    SETDIJ:  cpu time      0.0401: real time      0.0402
     EDDAV:  cpu time      0.0972: real time      0.0975
 BZINTS: Fermi energy:   -0.291754;   28.000000 electrons
         Band energy:-0.174588E+03;  BLOECHL correction:    0.000000
       DOS:  cpu time      0.0007: real time      0.0007
    CHARGE:  cpu time      0.0127: real time      0.0127
    MIXING:  cpu time      0.0021: real time      0.0021
    --------------------------------------------
      LOOP:  cpu time      0.1565: real time      0.1571

 eigenvalue-minimisations  :   434
 total energy-change (2. order) :-0.7615021E-04  (-0.1476178E-04)
 number of electron      27.9999962 magnetization 
 augmentation part       -3.8500872 magnetization 

 Broyden mixing:
  rms(total) = 0.62745E-02    rms(broyden)= 0.62745E-02
  rms(prec ) = 0.64580E-02
  weight for this iteration     100.00

 eigenvalues of (default mixing * dielectric matrix)
  average eigenvalue GAMMA=   1.7332
  2.6405  2.2037  1.4762  1.4762  0.8692

 Free energy of the ion-electron system (eV)
  ---------------------------------------------------
  alpha Z        PSCENC =        29.94119198
  Ewald energy   TEWEN  =     -1242.55322342
  -Hartree energ DENC   =      -337.55451850
  -exchange      EXHF   =         0.00000000
  -V(xc)+E(xc)   XCENC  =        81.11623563
  PAW double counting   =      2220.84570275    -2220.15187912
  entropy T*S    EENTRO =         0.00000000
  eigenvalues    EBANDS =      -174.58796660
  atomic energy  EATOM  =      1634.92028419
  Solvation  Ediel_sol  =         0.00000000
  ---------------------------------------------------
  free energy    TOTEN  =        -8.02417308 eV

  energy without entropy =       -8.02417308  energy(sigma->0) =       -8.02417308


--------------------------------------------------------------------------------------------------------




--------------------------------------- Iteration      1(  11)  ---------------------------------------


    POTLOK:  cpu time      0.0035: real time      0.0038
    SETDIJ:  cpu time      0.0402: real time      0.0403
     EDDAV:  cpu time      0.0820: real time      0.0822
 BZINTS: Fermi energy:   -0.290940;   28.000000 electrons
         Band energy:-0.174564E+03;  BLOECHL correction:    0.000000
       DOS:  cpu time      0.0007: real time      0.0007
    CHARGE:  cpu time      0.0128: real time      0.0128
    MIXING:  cpu time      0.0021: real time      0.0021
    --------------------------------------------
      LOOP:  cpu time      0.1412: real time      0.1419

 eigenvalue-minimisations  :   348
 total energy-change (2. order) :-0.5308146E-05  (-0.4101549E-05)
 number of electron      27.9999962 magnetization 
 augmentation part       -3.8499116 magnetization 

 Broyden mixing:
  rms(total) = 0.13094E-02    rms(broyden)= 0.13093E-02
  rms(prec ) = 0.14429E-02
  weight for this iteration     100.00

 eigenvalues of (default mixing * dielectric matrix)
  average eigenvalue GAMMA=   1.6144
  2.4199  2.1354  1.6497  1.6497  1.0638  0.7678

 Free energy of the ion-electron system (eV)
  ---------------------------------------------------
  alpha Z        PSCENC =        29.94119198
  Ewald energy   TEWEN  =     -1242.55322342
  -Hartree energ DENC   =      -337.57833457
  -exchange      EXHF   =         0.00000000
  -V(xc)+E(xc)   XCENC  =        81.11688809
  PAW double counting   =      2223.29002191    -2222.59668206
  entropy T*S    EENTRO =         0.00000000
  eigenvalues    EBANDS =      -174.56432451
  atomic energy  EATOM  =      1634.92028419
  Solvation  Ediel_sol  =         0.00000000
  ---------------------------------------------------
  free energy    TOTEN  =        -8.02417839 eV

  energy without entropy =       -8.02417839  energy(sigma->0) =       -8.02417839


--------------------------------------------------------------------------------------------------------




--------------------------------------- Iteration      1(  12)  ---------------------------------------


    POTLOK:  cpu time      0.0036: real time      0.0038
    SETDIJ:  cpu time      0.0408: real time      0.0409
     EDDAV:  cpu time      0.0856: real time      0.0858
 BZINTS: Fermi energy:   -0.291129;   28.000000 electrons
         Band energy:-0.174567E+03;  BLOECHL correction:    0.000000
       DOS:  cpu time      0.0007: real time      0.0007
    CHARGE:  cpu time      0.0127: real time      0.0127
    MIXING:  cpu time      0.0021: real time      0.0021
    --------------------------------------------
      LOOP:  cpu time      0.1455: real time      0.1461

 eigenvalue-minimisations  :   356
 total energy-change (2. order) : 0.3085916E-08  (-0.3902999E-06)
 number of electron      27.9999962 magnetization 
 augmentation part       -3.8499148 magnetization 

 Broyden mixing:
  rms(total) = 0.59028E-03    rms(broyden)= 0.59027E-03
  rms(prec ) = 0.66802E-03
  weight for this iteration     100.00

 eigenvalues of (default mixing * dielectric matrix)
  average eigenvalue GAMMA=   1.6166
  2.6005  2.1865  1.7931  1.7931  1.1827  0.8801  0.8801

 Free energy of the ion-electron system (eV)
  ---------------------------------------------------
  alpha Z        PSCENC =        29.94119198
  Ewald energy   TEWEN  =     -1242.55322342
  -Hartree energ DENC   =      -337.57595518
  -exchange      EXHF   =         0.00000000
  -V(xc)+E(xc)   XCENC  =        81.11710505
  PAW double counting   =      2223.15886250    -2222.46573714
  entropy T*S    EENTRO =         0.00000000
  eigenvalues    EBANDS =      -174.56670637
  atomic energy  EATOM  =      1634.92028419
  Solvation  Ediel_sol  =         0.00000000
  ---------------------------------------------------
  free energy    TOTEN  =        -8.02417839 eV

  energy without entropy =       -8.02417839  energy(sigma->0) =       -8.02417839


--------------------------------------------------------------------------------------------------------




--------------------------------------- Iteration      1(  13)  ---------------------------------------


    POTLOK:  cpu time      0.0035: real time      0.0038
    SETDIJ:  cpu time      0.0402: real time      0.0403
     EDDAV:  cpu time      0.0927: real time      0.0930
 BZINTS: Fermi energy:   -0.291337;   28.000000 electrons
         Band energy:-0.174570E+03;  BLOECHL correction:    0.000000
       DOS:  cpu time      0.0007: real time      0.0007
    CHARGE:  cpu time      0.0127: real time      0.0127
    MIXING:  cpu time      0.0022: real time      0.0022
    --------------------------------------------
      LOOP:  cpu time      0.1521: real time      0.1528

 eigenvalue-minimisations  :   420
 total energy-change (2. order) :-0.4401356E-06  (-0.1080556E-06)
 number of electron      27.9999962 magnetization 
 augmentation part       -3.8499186 magnetization 

 Broyden mixing:
  rms(total) = 0.20473E-03    rms(broyden)= 0.20472E-03
  rms(prec ) = 0.22663E-03
  weight for this iteration     100.00

 eigenvalues of (default mixing * dielectric matrix)
  average eigenvalue GAMMA=   1.6225
  2.6179  2.3687  1.8377  1.8377  1.2786  1.2786  0.8805  0.8805

 Free energy of the ion-electron system (eV)
  ---------------------------------------------------
  alpha Z        PSCENC =        29.94119198
  Ewald energy   TEWEN  =     -1242.55322342
  -Hartree energ DENC   =      -337.57218637
  -exchange      EXHF   =         0.00000000
  -V(xc)+E(xc)   XCENC  =        81.11706525
  PAW double counting   =      2222.97236175    -2222.27944279
  entropy T*S    EENTRO =         0.00000000
  eigenvalues    EBANDS =      -174.57022942
  atomic energy  EATOM  =      1634.92028419
  Solvation  Ediel_sol  =         0.00000000
  ---------------------------------------------------
  free energy    TOTEN  =        -8.02417883 eV

  energy without entropy =       -8.02417883  energy(sigma->0) =       -8.02417883


--------------------------------------------------------------------------------------------------------




--------------------------------------- Iteration      1(  14)  ---------------------------------------


    POTLOK:  cpu time      0.0036: real time      0.0038
    SETDIJ:  cpu time      0.0401: real time      0.0402
     EDDAV:  cpu time      0.0610: real time      0.0612
 BZINTS: Fermi energy:   -0.291407;   28.000000 electrons
         Band energy:-0.174572E+03;  BLOECHL correction:    0.000000
       DOS:  cpu time      0.0007: real time      0.0007
    --------------------------------------------
      LOOP:  cpu time      0.1055: real time      0.1059

 eigenvalue-minimisations  :   200
 total energy-change (2. order) :-0.6560867E-08  (-0.1349522E-07)
 number of electron      27.9999962 magnetization 
 augmentation part       -3.8499186 magnetization 

 Free energy of the ion-electron system (eV)
  ---------------------------------------------------
  alpha Z        PSCENC =        29.94119198
  Ewald energy   TEWEN  =     -1242.55322342
  -Hartree energ DENC   =      -337.57064326
  -exchange      EXHF   =         0.00000000
  -V(xc)+E(xc)   XCENC  =        81.11698541
  PAW double counting   =      2222.84827495    -2222.15536599
  entropy T*S    EENTRO =         0.00000000
  eigenvalues    EBANDS =      -174.57168269
  atomic energy  EATOM  =      1634.92028419
  Solvation  Ediel_sol  =         0.00000000
  ---------------------------------------------------
  free energy    TOTEN  =        -8.02417883 eV

  energy without entropy =       -8.02417883  energy(sigma->0) =       -8.02417883


--------------------------------------------------------------------------------------------------------




 average (electrostatic) potential at core
  the test charge radii are     0.9406
  (the norm of the test charge is              1.0000)
       1 -95.6377       2 -95.6377       3 -95.6377       4 -95.6377
 
 
 
 E-fermi :  -0.2914     XC(G=0):  -8.0416     alpha+bet : -6.6715

 val. band max:       -0.3006492822   @ k =   0.0000   0.0000   0.2500
 cond. band min:       2.0946072036   @ k =   0.0000   0.0000   0.2500
 fundamental gap:      2.3952564858
 Fermi energy:        -0.2914066886

 k-point     1 :       0.0000    0.0000    0.2500
  band No.  band energies     occupation 
      1     -17.1694      2.00000
      2     -16.9971      2.00000
      3     -13.0432      2.00000
      4     -12.5088      2.00000
      5      -5.9086      2.00000
      6      -5.0218      2.00000
      7      -2.9742      2.00000
      8      -2.8752      2.00000
      9      -2.7679      2.00000
     10      -2.6954      2.00000
     11      -1.1121      2.00000
     12      -0.7520      2.00000
     13      -0.3913      2.00000
     14      -0.3006      2.00000
     15       2.0946      0.00000
     16       2.8133      0.00000
     17       6.3738      0.00000
     18       6.6221      0.00000

 k-point     2 :       0.2000    0.0000    0.2500
  band No.  band energies     occupation 
      1     -17.0973      2.00000
      2     -16.9554      2.00000
      3     -12.9826      2.00000
      4     -12.5522      2.00000
      5      -5.8846      2.00000
      6      -5.1357      2.00000
      7      -3.4682      2.00000
      8      -3.2693      2.00000
      9      -2.8950      2.00000
     10      -2.8576      2.00000
     11      -0.9817      2.00000
     12      -0.6657      2.00000
     13      -0.4995      2.00000
     14      -0.4402      2.00000
     15       2.2135      0.00000
     16       2.7868      0.00000
     17       6.9963      0.00000
     18       7.2849      0.00000

 k-point     3 :       0.4000    0.0000    0.2500
  band No.  band energies     occupation 
      1     -16.9587      2.00000
      2     -16.9028      2.00000
      3     -12.8391      2.00000
      4     -12.6764      2.00000
      5      -5.7530      2.00000
      6      -5.4324      2.00000
      7      -4.0241      2.00000
      8      -3.8705      2.00000
      9      -3.0497      2.00000
     10      -3.0282      2.00000
     11      -1.0258      2.00000
     12      -0.9064      2.00000
     13      -0.5400      2.00000
     14      -0.4651      2.00000
     15       2.4524      0.00000
     16       2.6664      0.00000
     17       7.6486      0.00000
     18       7.7342      0.00000

 k-point     4 :       0.2000    0.2000    0.2500
  band No.  band energies     occupation 
      1     -17.1040      2.00000
      2     -16.9421      2.00000
      3     -12.9808      2.00000
      4     -12.4840      2.00000
      5      -5.8573      2.00000
      6      -5.0427      2.00000
      7      -3.3745      2.00000
      8      -3.2065      2.00000
      9      -3.0885      2.00000
     10      -2.9654      2.00000
     11      -1.1660      2.00000
     12      -0.7832      2.00000
     13      -0.7344      2.00000
     14      -0.4188      2.00000
     15       2.1586      0.00000
     16       2.7829      0.00000
     17       7.4539      0.00000
     18       7.5011      0.00000

 k-point     5 :       0.4000    0.2000    0.2500
  band No.  band energies     occupation 
      1     -17.0070      2.00000
      2     -16.8837      2.00000
      3     -12.8945      2.00000
      4     -12.5281      2.00000
      5      -5.7964      2.00000
      6      -5.1776      2.00000
      7      -3.8463      2.00000
      8      -3.7695      2.00000
      9      -3.2411      2.00000
     10      -3.1768      2.00000
     11      -1.1849      2.00000
     12      -0.9552      2.00000
     13      -0.6952      2.00000
     14      -0.5158      2.00000
     15       2.2719      0.00000
     16       2.7172      0.00000
     17       8.1782      0.00000
     18       8.3834      0.00000

 k-point     6 :      -0.4000    0.2000    0.2500
  band No.  band energies     occupation 
      1     -16.9164      2.00000
      2     -16.8818      2.00000
      3     -12.7845      2.00000
      4     -12.6883      2.00000
      5      -5.6456      2.00000
      6      -5.5064      2.00000
      7      -3.9609      2.00000
      8      -3.8893      2.00000
      9      -3.4863      2.00000
     10      -3.3299      2.00000
     11      -1.0925      2.00000
     12      -0.9111      2.00000
     13      -0.6533      2.00000
     14      -0.5340      2.00000
     15       2.4835      0.00000
     16       2.6179      0.00000
     17       8.1604      0.00000
     18       8.7105      0.00000

 k-point     7 :      -0.2000    0.2000    0.2500
  band No.  band energies     occupation 
      1     -16.9850      2.00000
      2     -16.9162      2.00000
      3     -12.8712      2.00000
      4     -12.6677      2.00000
      5      -5.7960      2.00000
      6      -5.3760      2.00000
      7      -3.8092      2.00000
      8      -3.6151      2.00000
      9      -3.2377      2.00000
     10      -3.1139      2.00000
     11      -0.8292      2.00000
     12      -0.7364      2.00000
     13      -0.6307      2.00000
     14      -0.5213      2.00000
     15       2.4237      0.00000
     16       2.6976      0.00000
     17       8.0063      0.00000
     18       8.3747      0.00000

 k-point     8 :       0.4000    0.4000    0.2500
  band No.  band energies     occupation 
      1     -16.9947      2.00000
      2     -16.8507      2.00000
      3     -12.8768      2.00000
      4     -12.4437      2.00000
      5      -5.7472      2.00000
      6      -5.0675      2.00000
      7      -4.2155      2.00000
      8      -3.8728      2.00000
      9      -3.2562      2.00000
     10      -3.0886      2.00000
     11      -1.3967      2.00000
     12      -1.2144      2.00000
     13      -0.8293      2.00000
     14      -0.6391      2.00000
     15       2.1855      0.00000
     16       2.6988      0.00000
     17       8.0777      0.00000
     18       8.2938      0.00000

 k-point     9 :      -0.4000    0.4000    0.2500
  band No.  band energies     occupation 
      1     -16.9497      2.00000
      2     -16.8386      2.00000
      3     -12.8382      2.00000
      4     -12.5127      2.00000
      5      -5.7154      2.00000
      6      -5.1998      2.00000
      7      -4.1925      2.00000
      8      -3.8444      2.00000
      9      -3.5834      2.00000
     10      -3.3415      2.00000
     11      -1.3560      2.00000
     12      -1.1110      2.00000
     13      -0.6982      2.00000
     14      -0.6662      2.00000
     15       2.2787      0.00000
     16       2.6697      0.00000
     17       8.2859      0.00000
     18       8.6021      0.00000


--------------------------------------------------------------------------------------------------------


 soft charge-density along one line, spin component            1
         0         1         2         3         4         5         6         7         8         9
 total charge-density along one line
 
 pseudopotential strength for first ion, spin component:            1
 48.390  50.786  -0.041  -0.069  -0.000  -0.051  -0.085  -0.000
 50.786  53.303  -0.043  -0.072  -0.000  -0.054  -0.090  -0.000
 -0.041  -0.043   9.112   0.021  -0.000  11.298   0.025  -0.000
 -0.069  -0.072   0.021   9.141  -0.000   0.025  11.332  -0.000
 -0.000  -0.000  -0.000  -0.000   9.099  -0.000  -0.000  11.281
 -0.051  -0.054  11.298   0.025  -0.000  14.023   0.030  -0.000
 -0.085  -0.090   0.025  11.332  -0.000   0.030  14.064  -0.000
 -0.000  -0.000  -0.000  -0.000  11.281  -0.000  -0.000  14.003
 total augmentation occupancy for first ion, spin component:            1
 11.971  -9.061   2.911   5.224   0.000  -1.336  -2.560  -0.000
 -9.061   8.210  -2.723  -4.885  -0.000   1.307   2.486   0.000
  2.911  -2.723   2.880   1.292   0.000  -0.741  -0.934  -0.000
  5.224  -4.885   1.292   4.627   0.000  -0.934  -2.000  -0.000
  0.000  -0.000   0.000   0.000   2.124  -0.000  -0.000  -0.199
 -1.336   1.307  -0.741  -0.934  -0.000   0.465   0.440   0.000
 -2.560   2.486  -0.934  -2.000  -0.000   0.440   1.052   0.000
 -0.000   0.000  -0.000  -0.000  -0.199   0.000   0.000   0.232


------------------------ aborting loop because EDIFF is reached ----------------------------------------





 total charge

# of ion       s       p       d       tot
------------------------------------------
    1        1.612   3.354   0.000   4.967
    2        1.612   3.354   0.000   4.967
    3        1.612   3.354   0.000   4.967
    4        1.612   3.354   0.000   4.967
--------------------------------------------------
tot          6.450  13.416   0.000  19.866
 
    CHARGE:  cpu time      0.0156: real time      0.0157
    FORLOC:  cpu time      0.0011: real time      0.0011
    FORNL :  cpu time      0.0214: real time      0.0214
    STRESS:  cpu time      0.2127: real time      0.2131
    FORCOR:  cpu time      0.0032: real time      0.0032
    FORHAR:  cpu time      0.0008: real time      0.0008
    MIXING:  cpu time      0.0023: real time      0.0023
    OFIELD:  cpu time      0.0000: real time      0.0000

  FORCE on cell =-STRESS in cart. coord.  units (eV):
  Direction    XX          YY          ZZ          XY          YZ          ZX
  --------------------------------------------------------------------------------------
  Alpha Z    29.94119    29.94119    29.94119
  Ewald    -597.64009  -437.93452  -206.97961    -0.00000     0.00000    -0.00000
  Hartree    45.56142   110.22889   181.77931    -0.00000     0.00000    -0.00000
  E(xc)    -101.61881  -101.22300  -100.59100    -0.00000    -0.00000    -0.00000
  Local    -122.26416  -317.46625  -560.13313     0.00000    -0.00000    -0.00000
  n-local   330.84655   326.73131   318.32480     1.65708     0.40470    -0.08904
  augment   -83.78959   -81.46325   -76.64626    -0.00000    -0.00000    -0.00000
  Kinetic   499.04625   470.89012   413.88505     6.71112     0.40271    -0.12403
  Fock        0.00000     0.00000     0.00000     0.00000     0.00000     0.00000
  -------------------------------------------------------------------------------------
  Total       0.08276    -0.29550    -0.41965     0.00000     0.00000     0.00000
  in kB       1.17487    -4.19495    -5.95729     0.00000     0.00000     0.00000
  external pressure =       -2.99 kB  Pullay stress =        0.00 kB


 VOLUME and BASIS-vectors are now :
 -----------------------------------------------------------------------------
  energy-cutoff  :      400.00
  volume of cell :      112.86
      direct lattice vectors                 reciprocal lattice vectors
     3.264205590 -2.057471755  0.000000000     0.153176626 -0.243016702  0.000000000
     3.264205590  2.057471755  0.000000000     0.153176626  0.243016702 -0.000000000
     0.000000000  0.000000000  8.402395470    -0.000000000  0.000000000  0.119013679

  length of vectors
     3.858526682  3.858526682  8.402395470     0.287263287  0.287263287  0.119013679


 FORCES acting on ions
    electron-ion (+dipol)            ewald-force                    non-local-force                 convergence-correction
 -----------------------------------------------------------------------------------------------
   -.880E-07 -.431E+02 -.807E+02   0.864E-15 0.480E+02 0.887E+02   0.555E-16 -.488E+01 -.786E+01   -.876E-14 0.128E-04 -.348E-03
   0.880E-07 0.431E+02 0.807E+02   -.337E-14 -.480E+02 -.887E+02   -.555E-16 0.488E+01 0.786E+01   0.693E-14 -.128E-04 0.348E-03
   -.880E-07 0.431E+02 -.807E+02   -.378E-14 -.480E+02 0.887E+02   -.555E-16 0.488E+01 -.786E+01   -.105E-13 -.128E-04 -.348E-03
   0.880E-07 -.431E+02 0.807E+02   -.270E-14 0.480E+02 -.887E+02   0.555E-16 -.488E+01 0.786E+01   -.930E-15 0.128E-04 0.348E-03
 -----------------------------------------------------------------------------------------------
   0.174E-12 -.522E-12 -.106E-09   -.898E-14 0.000E+00 0.000E+00   0.000E+00 0.000E+00 0.000E+00   -.132E-13 0.197E-13 -.164E-14
 
 
 POSITION                                       TOTAL-FORCE (eV/Angst)
 -----------------------------------------------------------------------------------
      3.26421     -1.58621      5.08137         0.000000      0.046976      0.148760
      3.26421      1.58621      3.32102         0.000000     -0.046976     -0.148760
      3.26421     -0.47126      0.88018         0.000000     -0.046976      0.148760
      3.26421      0.47126      7.52222         0.000000      0.046976     -0.148760
 -----------------------------------------------------------------------------------
    total drift:                                0.000000     -0.000000     -0.000000


--------------------------------------------------------------------------------------------------------



  FREE ENERGIE OF THE ION-ELECTRON SYSTEM (eV)
  ---------------------------------------------------
  free  energy   TOTEN  =        -8.02417883 eV

  energy  without entropy=       -8.02417883  energy(sigma->0) =       -8.02417883
 


--------------------------------------------------------------------------------------------------------


    POTLOK:  cpu time      0.0446: real time      0.0447


--------------------------------------------------------------------------------------------------------




--------------------------------------------------------------------------------------------------------


      MLFF:  cpu time      0.0006: real time      0.0015
    WAVPRE:  cpu time      0.0076: real time      0.0077
    FEWALD:  cpu time      0.0009: real time      0.0009
    GENKIN:  cpu time      0.0012: real time      0.0012
    ORTHCH:  cpu time      0.0121: real time      0.0122
     LOOP+:  cpu time      2.5322: real time      2.5652


--------------------------------------- Ionic step        2  -------------------------------------------




--------------------------------------- Iteration      2(   1)  ---------------------------------------


    POTLOK:  cpu time      0.0035: real time      0.0035
    SETDIJ:  cpu time      0.0399: real time      0.0400
     EDDAV:  cpu time      0.0771: real time      0.0773
 BZINTS: Fermi energy:   -0.114103;   28.000000 electrons
         Band energy:-0.171031E+03;  BLOECHL correction:    0.000000
       DOS:  cpu time      0.0008: real time      0.0008
    CHARGE:  cpu time      0.0127: real time      0.0128
    MIXING:  cpu time      0.0020: real time      0.0020
    --------------------------------------------
      LOOP:  cpu time      0.1360: real time      0.1363

 eigenvalue-minimisations  :   324
 total energy-change (2. order) :-0.1538210E-01  (-0.7533876E-01)
 number of electron      27.9999971 magnetization 
 augmentation part       -3.8399214 magnetization 

 Broyden mixing:
  rms(total) = 0.70293E-01    rms(broyden)= 0.70287E-01
  rms(prec ) = 0.88220E-01
  weight for this iteration     100.00

 Free energy of the ion-electron system (eV)
  ---------------------------------------------------
  alpha Z        PSCENC =        30.17102156
  Ewald energy   TEWEN  =     -1247.50690330
  -Hartree energ DENC   =      -336.53589065
  -exchange      EXHF   =         0.00000000
  -V(xc)+E(xc)   XCENC  =        81.25052908
  PAW double counting   =      2222.80477353    -2222.11190118
  entropy T*S    EENTRO =         0.00000000
  eigenvalues    EBANDS =      -171.03147417
  atomic energy  EATOM  =      1634.92028419
  Solvation  Ediel_sol  =         0.00000000
  ---------------------------------------------------
  free energy    TOTEN  =        -8.03956092 eV

  energy without entropy =       -8.03956092  energy(sigma->0) =       -8.03956092


--------------------------------------------------------------------------------------------------------




--------------------------------------- Iteration      2(   2)  ---------------------------------------


    POTLOK:  cpu time      0.0036: real time      0.0039
    SETDIJ:  cpu time      0.0401: real time      0.0402
     EDDAV:  cpu time      0.0822: real time      0.0824
 BZINTS: Fermi energy:   -0.141573;   28.000000 electrons
         Band energy:-0.172315E+03;  BLOECHL correction:    0.000000
       DOS:  cpu time      0.0008: real time      0.0008
    CHARGE:  cpu time      0.0128: real time      0.0128
    MIXING:  cpu time      0.0019: real time      0.0020
    --------------------------------------------
      LOOP:  cpu time      0.1414: real time      0.1420

 eigenvalue-minimisations  :   358
 total energy-change (2. order) : 0.5798897E-02  (-0.3545893E-02)
 number of electron      27.9999971 magnetization 
 augmentation part       -3.8453924 magnetization 

 Broyden mixing:
  rms(total) = 0.25337E-01    rms(broyden)= 0.25334E-01
  rms(prec ) = 0.35451E-01
  weight for this iteration     100.00

 eigenvalues of (default mixing * dielectric matrix)
  average eigenvalue GAMMA=   1.1081
  1.1081

 Free energy of the ion-electron system (eV)
  ---------------------------------------------------
  alpha Z        PSCENC =        30.17102156
  Ewald energy   TEWEN  =     -1247.50690330
  -Hartree energ DENC   =      -335.17730350
  -exchange      EXHF   =         0.00000000
  -V(xc)+E(xc)   XCENC  =        81.16193119
  PAW double counting   =      2223.31602035    -2222.60362963
  entropy T*S    EENTRO =         0.00000000
  eigenvalues    EBANDS =      -172.31518289
  atomic energy  EATOM  =      1634.92028419
  Solvation  Ediel_sol  =         0.00000000
  ---------------------------------------------------
  free energy    TOTEN  =        -8.03376203 eV

  energy without entropy =       -8.03376203  energy(sigma->0) =       -8.03376203


--------------------------------------------------------------------------------------------------------




--------------------------------------- Iteration      2(   3)  ---------------------------------------


    POTLOK:  cpu time      0.0035: real time      0.0038
    SETDIJ:  cpu time      0.0407: real time      0.0408
     EDDAV:  cpu time      0.0844: real time      0.0846
 BZINTS: Fermi energy:   -0.227895;   28.000000 electrons
         Band energy:-0.172942E+03;  BLOECHL correction:    0.000000
       DOS:  cpu time      0.0007: real time      0.0007
    CHARGE:  cpu time      0.0126: real time      0.0126
    MIXING:  cpu time      0.0021: real time      0.0021
    --------------------------------------------
      LOOP:  cpu time      0.1439: real time      0.1446

 eigenvalue-minimisations  :   352
 total energy-change (2. order) : 0.1879658E-02  (-0.3505493E-03)
 number of electron      27.9999971 magnetization 
 augmentation part       -3.8495242 magnetization 

 Broyden mixing:
  rms(total) = 0.16980E-01    rms(broyden)= 0.16980E-01
  rms(prec ) = 0.19025E-01
  weight for this iteration     100.00

 eigenvalues of (default mixing * dielectric matrix)
  average eigenvalue GAMMA=   1.2174
  1.2174  1.2174

 Free energy of the ion-electron system (eV)
  ---------------------------------------------------
  alpha Z        PSCENC =        30.17102156
  Ewald energy   TEWEN  =     -1247.50690330
  -Hartree energ DENC   =      -334.50813279
  -exchange      EXHF   =         0.00000000
  -V(xc)+E(xc)   XCENC  =        81.12080655
  PAW double counting   =      2221.07149540    -2220.35816845
  entropy T*S    EENTRO =         0.00000000
  eigenvalues    EBANDS =      -172.94228553
  atomic energy  EATOM  =      1634.92028419
  Solvation  Ediel_sol  =         0.00000000
  ---------------------------------------------------
  free energy    TOTEN  =        -8.03188237 eV

  energy without entropy =       -8.03188237  energy(sigma->0) =       -8.03188237


--------------------------------------------------------------------------------------------------------




--------------------------------------- Iteration      2(   4)  ---------------------------------------


    POTLOK:  cpu time      0.0035: real time      0.0038
    SETDIJ:  cpu time      0.0400: real time      0.0401
     EDDAV:  cpu time      0.0904: real time      0.0906
 BZINTS: Fermi energy:   -0.231019;   28.000000 electrons
         Band energy:-0.173052E+03;  BLOECHL correction:    0.000000
       DOS:  cpu time      0.0007: real time      0.0007
    CHARGE:  cpu time      0.0126: real time      0.0126
    MIXING:  cpu time      0.0021: real time      0.0021
    --------------------------------------------
      LOOP:  cpu time      0.1494: real time      0.1500

 eigenvalue-minimisations  :   414
 total energy-change (2. order) : 0.1826445E-03  (-0.3466517E-04)
 number of electron      27.9999971 magnetization 
 augmentation part       -3.8507404 magnetization 

 Broyden mixing:
  rms(total) = 0.11271E-01    rms(broyden)= 0.11271E-01
  rms(prec ) = 0.11811E-01
  weight for this iteration     100.00

 eigenvalues of (default mixing * dielectric matrix)
  average eigenvalue GAMMA=   1.6720
  0.9404  2.0378  2.0378

 Free energy of the ion-electron system (eV)
  ---------------------------------------------------
  alpha Z        PSCENC =        30.17102156
  Ewald energy   TEWEN  =     -1247.50690330
  -Hartree energ DENC   =      -334.38500174
  -exchange      EXHF   =         0.00000000
  -V(xc)+E(xc)   XCENC  =        81.11276801
  PAW double counting   =      2217.85646039    -2217.14854755
  entropy T*S    EENTRO =         0.00000000
  eigenvalues    EBANDS =      -173.05178128
  atomic energy  EATOM  =      1634.92028419
  Solvation  Ediel_sol  =         0.00000000
  ---------------------------------------------------
  free energy    TOTEN  =        -8.03169972 eV

  energy without entropy =       -8.03169972  energy(sigma->0) =       -8.03169972


--------------------------------------------------------------------------------------------------------




--------------------------------------- Iteration      2(   5)  ---------------------------------------


    POTLOK:  cpu time      0.0035: real time      0.0038
    SETDIJ:  cpu time      0.0401: real time      0.0402
     EDDAV:  cpu time      0.0877: real time      0.0879
 BZINTS: Fermi energy:   -0.231104;   28.000000 electrons
         Band energy:-0.173038E+03;  BLOECHL correction:    0.000000
       DOS:  cpu time      0.0007: real time      0.0007
    CHARGE:  cpu time      0.0127: real time      0.0127
    MIXING:  cpu time      0.0020: real time      0.0020
    --------------------------------------------
      LOOP:  cpu time      0.1467: real time      0.1473

 eigenvalue-minimisations  :   366
 total energy-change (2. order) : 0.1355054E-04  (-0.7597004E-05)
 number of electron      27.9999971 magnetization 
 augmentation part       -3.8510009 magnetization 

 Broyden mixing:
  rms(total) = 0.11184E-02    rms(broyden)= 0.11183E-02
  rms(prec ) = 0.14842E-02
  weight for this iteration     100.00

 eigenvalues of (default mixing * dielectric matrix)
  average eigenvalue GAMMA=   1.5770
  2.6086  1.6353  0.9094  1.1548

 Free energy of the ion-electron system (eV)
  ---------------------------------------------------
  alpha Z        PSCENC =        30.17102156
  Ewald energy   TEWEN  =     -1247.50690330
  -Hartree energ DENC   =      -334.39148754
  -exchange      EXHF   =         0.00000000
  -V(xc)+E(xc)   XCENC  =        81.11186315
  PAW double counting   =      2215.51716807    -2214.81517635
  entropy T*S    EENTRO =         0.00000000
  eigenvalues    EBANDS =      -173.03845595
  atomic energy  EATOM  =      1634.92028419
  Solvation  Ediel_sol  =         0.00000000
  ---------------------------------------------------
  free energy    TOTEN  =        -8.03168617 eV

  energy without entropy =       -8.03168617  energy(sigma->0) =       -8.03168617


--------------------------------------------------------------------------------------------------------




--------------------------------------- Iteration      2(   6)  ---------------------------------------


    POTLOK:  cpu time      0.0036: real time      0.0038
    SETDIJ:  cpu time      0.0401: real time      0.0401
     EDDAV:  cpu time      0.0818: real time      0.0821
 BZINTS: Fermi energy:   -0.172578;   28.000000 electrons
         Band energy:-0.173067E+03;  BLOECHL correction:    0.000000
       DOS:  cpu time      0.0009: real time      0.0009
    CHARGE:  cpu time      0.0127: real time      0.0128
    MIXING:  cpu time      0.0021: real time      0.0021
    --------------------------------------------
      LOOP:  cpu time      0.1412: real time      0.1417

 eigenvalue-minimisations  :   346
 total energy-change (2. order) : 0.6426220E-06  (-0.1260644E-05)
 number of electron      27.9999971 magnetization 
 augmentation part       -3.8512172 magnetization 

 Broyden mixing:
  rms(total) = 0.85322E-03    rms(broyden)= 0.85320E-03
  rms(prec ) = 0.91131E-03
  weight for this iteration     100.00

 eigenvalues of (default mixing * dielectric matrix)
  average eigenvalue GAMMA=   1.5694
  2.5917  1.8380  1.6107  1.0240  0.7828

 Free energy of the ion-electron system (eV)
  ---------------------------------------------------
  alpha Z        PSCENC =        30.17102156
  Ewald energy   TEWEN  =     -1247.50690330
  -Hartree energ DENC   =      -334.36100829
  -exchange      EXHF   =         0.00000000
  -V(xc)+E(xc)   XCENC  =        81.10987794
  PAW double counting   =      2215.42278859    -2214.72047800
  entropy T*S    EENTRO =         0.00000000
  eigenvalues    EBANDS =      -173.06726823
  atomic energy  EATOM  =      1634.92028419
  Solvation  Ediel_sol  =         0.00000000
  ---------------------------------------------------
  free energy    TOTEN  =        -8.03168553 eV

  energy without entropy =       -8.03168553  energy(sigma->0) =       -8.03168553


--------------------------------------------------------------------------------------------------------




--------------------------------------- Iteration      2(   7)  ---------------------------------------


    POTLOK:  cpu time      0.0035: real time      0.0038
    SETDIJ:  cpu time      0.0400: real time      0.0401
     EDDAV:  cpu time      0.0944: real time      0.0946
 BZINTS: Fermi energy:   -0.172640;   28.000000 electrons
         Band energy:-0.173071E+03;  BLOECHL correction:    0.000000
       DOS:  cpu time      0.0009: real time      0.0009
    CHARGE:  cpu time      0.0127: real time      0.0128
    MIXING:  cpu time      0.0021: real time      0.0021
    --------------------------------------------
      LOOP:  cpu time      0.1536: real time      0.1543

 eigenvalue-minimisations  :   424
 total energy-change (2. order) :-0.5446913E-07  (-0.1340867E-06)
 number of electron      27.9999971 magnetization 
 augmentation part       -3.8512494 magnetization 

 Broyden mixing:
  rms(total) = 0.55877E-03    rms(broyden)= 0.55877E-03
  rms(prec ) = 0.57715E-03
  weight for this iteration     100.00

 eigenvalues of (default mixing * dielectric matrix)
  average eigenvalue GAMMA=   1.5779
  2.5980  2.2708  1.5923  0.9425  1.0320  1.0320

 Free energy of the ion-electron system (eV)
  ---------------------------------------------------
  alpha Z        PSCENC =        30.17102156
  Ewald energy   TEWEN  =     -1247.50690330
  -Hartree energ DENC   =      -334.35720815
  -exchange      EXHF   =         0.00000000
  -V(xc)+E(xc)   XCENC  =        81.10952711
  PAW double counting   =      2215.79107558    -2215.08814997
  entropy T*S    EENTRO =         0.00000000
  eigenvalues    EBANDS =      -173.07133260
  atomic energy  EATOM  =      1634.92028419
  Solvation  Ediel_sol  =         0.00000000
  ---------------------------------------------------
  free energy    TOTEN  =        -8.03168559 eV

  energy without entropy =       -8.03168559  energy(sigma->0) =       -8.03168559


--------------------------------------------------------------------------------------------------------




--------------------------------------- Iteration      2(   8)  ---------------------------------------


    POTLOK:  cpu time      0.0035: real time      0.0038
    SETDIJ:  cpu time      0.0401: real time      0.0402
     EDDAV:  cpu time      0.0611: real time      0.0613
 BZINTS: Fermi energy:   -0.172564;   28.000000 electrons
         Band energy:-0.173070E+03;  BLOECHL correction:    0.000000
       DOS:  cpu time      0.0009: real time      0.0009
    --------------------------------------------
      LOOP:  cpu time      0.1057: real time      0.1062

 eigenvalue-minimisations  :   206
 total energy-change (2. order) :-0.7228209E-07  (-0.1439399E-07)
 number of electron      27.9999971 magnetization 
 augmentation part       -3.8512494 magnetization 

 Free energy of the ion-electron system (eV)
  ---------------------------------------------------
  alpha Z        PSCENC =        30.17102156
  Ewald energy   TEWEN  =     -1247.50690330
  -Hartree energ DENC   =      -334.35834401
[...]
  ---------------------------------------------------
  alpha Z        PSCENC =        31.73389948
  Ewald energy   TEWEN  =     -1270.13741386
  -Hartree energ DENC   =      -322.94500436
  -exchange      EXHF   =         0.00000000
  -V(xc)+E(xc)   XCENC  =        81.24993650
  PAW double counting   =      2254.83888340    -2254.08322498
  entropy T*S    EENTRO =         0.00000000
  eigenvalues    EBANDS =      -163.64833190
  atomic energy  EATOM  =      1634.92028419
  Solvation  Ediel_sol  =         0.00000000
  ---------------------------------------------------
  free energy    TOTEN  =        -8.07097153 eV

  energy without entropy =       -8.07097153  energy(sigma->0) =       -8.07097153


--------------------------------------------------------------------------------------------------------




--------------------------------------- Iteration     31(   3)  ---------------------------------------


    POTLOK:  cpu time      0.0035: real time      0.0038
    SETDIJ:  cpu time      0.0403: real time      0.0404
     EDDAV:  cpu time      0.0904: real time      0.0906
 BZINTS: Fermi energy:    0.171850;   28.000000 electrons
         Band energy:-0.163665E+03;  BLOECHL correction:    0.000000
       DOS:  cpu time      0.0008: real time      0.0008
    CHARGE:  cpu time      0.0128: real time      0.0129
    MIXING:  cpu time      0.0019: real time      0.0019
    --------------------------------------------
      LOOP:  cpu time      0.1498: real time      0.1504

 eigenvalue-minimisations  :   392
 total energy-change (2. order) : 0.1039870E-05  (-0.1718808E-06)
 number of electron      27.9999950 magnetization 
 augmentation part       -3.8634551 magnetization 

 Broyden mixing:
  rms(total) = 0.33794E-03    rms(broyden)= 0.33793E-03
  rms(prec ) = 0.41102E-03
  weight for this iteration     100.00

 eigenvalues of (default mixing * dielectric matrix)
  average eigenvalue GAMMA=   1.2056
  1.2056  1.2056

 Free energy of the ion-electron system (eV)
  ---------------------------------------------------
  alpha Z        PSCENC =        31.73389948
  Ewald energy   TEWEN  =     -1270.13741386
  -Hartree energ DENC   =      -322.92732220
  -exchange      EXHF   =         0.00000000
  -V(xc)+E(xc)   XCENC  =        81.24897151
  PAW double counting   =      2254.80449233    -2254.04879898
  entropy T*S    EENTRO =         0.00000000
  eigenvalues    EBANDS =      -163.66508296
  atomic energy  EATOM  =      1634.92028419
  Solvation  Ediel_sol  =         0.00000000
  ---------------------------------------------------
  free energy    TOTEN  =        -8.07097049 eV

  energy without entropy =       -8.07097049  energy(sigma->0) =       -8.07097049


--------------------------------------------------------------------------------------------------------




--------------------------------------- Iteration     31(   4)  ---------------------------------------


    POTLOK:  cpu time      0.0035: real time      0.0038
    SETDIJ:  cpu time      0.0403: real time      0.0404
     EDDAV:  cpu time      0.0604: real time      0.0605
 BZINTS: Fermi energy:    0.171736;   28.000000 electrons
         Band energy:-0.163670E+03;  BLOECHL correction:    0.000000
       DOS:  cpu time      0.0008: real time      0.0008
    --------------------------------------------
      LOOP:  cpu time      0.1050: real time      0.1055

 eigenvalue-minimisations  :   194
 total energy-change (2. order) :-0.5573702E-07  (-0.2096519E-07)
 number of electron      27.9999950 magnetization 
 augmentation part       -3.8634551 magnetization 

 Free energy of the ion-electron system (eV)
  ---------------------------------------------------
  alpha Z        PSCENC =        31.73389948
  Ewald energy   TEWEN  =     -1270.13741386
  -Hartree energ DENC   =      -322.92170047
  -exchange      EXHF   =         0.00000000
  -V(xc)+E(xc)   XCENC  =        81.24867989
  PAW double counting   =      2254.76883979    -2254.01326350
  entropy T*S    EENTRO =         0.00000000
  eigenvalues    EBANDS =      -163.67029606
  atomic energy  EATOM  =      1634.92028419
  Solvation  Ediel_sol  =         0.00000000
  ---------------------------------------------------
  free energy    TOTEN  =        -8.07097055 eV

  energy without entropy =       -8.07097055  energy(sigma->0) =       -8.07097055


--------------------------------------------------------------------------------------------------------




 average (electrostatic) potential at core
  the test charge radii are     0.9406
  (the norm of the test charge is              1.0000)
       1 -95.2432       2 -95.2432       3 -95.2432       4 -95.2432
 
 
 
 E-fermi :   0.1717     XC(G=0):  -8.3015     alpha+bet : -7.0710

 val. band max:        0.1431794133   @ k =   0.0000   0.0000   0.2500
 cond. band min:       2.4330043883   @ k =   0.0000   0.0000   0.2500
 fundamental gap:      2.2898249751
 Fermi energy:         0.1717359457

 k-point     1 :       0.0000    0.0000    0.2500
  band No.  band energies     occupation 
      1     -16.7181      2.00000
      2     -16.4073      2.00000
      3     -12.8901      2.00000
      4     -12.0389      2.00000
      5      -5.5976      2.00000
      6      -4.4406      2.00000
      7      -2.4706      2.00000
      8      -2.4584      2.00000
      9      -2.2545      2.00000
     10      -2.2071      2.00000
     11      -1.0077      2.00000
     12      -0.4370      2.00000
     13      -0.1631      2.00000
     14       0.1432      2.00000
     15       2.4330      0.00000
     16       3.1245      0.00000
     17       6.7677      0.00000
     18       7.1465      0.00000

 k-point     2 :       0.2000    0.0000    0.2500
  band No.  band energies     occupation 
      1     -16.6156      2.00000
      2     -16.3574      2.00000
      3     -12.8115      2.00000
      4     -12.1289      2.00000
      5      -5.6159      2.00000
      6      -4.6597      2.00000
      7      -3.0972      2.00000
      8      -2.7303      2.00000
      9      -2.5009      2.00000
     10      -2.4028      2.00000
     11      -0.7950      2.00000
     12      -0.2931      2.00000
     13      -0.2039      2.00000
     14      -0.0364      2.00000
     15       2.5945      0.00000
     16       3.1298      0.00000
     17       7.4077      0.00000
     18       7.8220      0.00000

 k-point     3 :       0.4000    0.0000    0.2500
  band No.  band energies     occupation 
      1     -16.4083      2.00000
      2     -16.3049      2.00000
      3     -12.6157      2.00000
      4     -12.3602      2.00000
      5      -5.5442      2.00000
      6      -5.1478      2.00000
      7      -3.6376      2.00000
      8      -3.3390      2.00000
      9      -2.6785      2.00000
     10      -2.6231      2.00000
     11      -0.7177      2.00000
     12      -0.5024      2.00000
     13      -0.2922      2.00000
     14      -0.1164      2.00000
     15       2.8534      0.00000
     16       3.1078      0.00000
     17       7.9583      0.00000
     18       8.0877      0.00000

 k-point     4 :       0.2000    0.2000    0.2500
  band No.  band energies     occupation 
      1     -16.6617      2.00000
      2     -16.3613      2.00000
      3     -12.8363      2.00000
      4     -12.0188      2.00000
      5      -5.5581      2.00000
      6      -4.4616      2.00000
      7      -3.0544      2.00000
      8      -2.7257      2.00000
      9      -2.5359      2.00000
     10      -2.2674      2.00000
     11      -1.0459      2.00000
     12      -0.5090      2.00000
     13      -0.4575      2.00000
     14       0.0331      2.00000
     15       2.4661      0.00000
     16       3.1080      0.00000
     17       7.8991      0.00000
     18       7.9785      0.00000

 k-point     5 :       0.4000    0.2000    0.2500
  band No.  band energies     occupation 
      1     -16.5365      2.00000
      2     -16.2976      2.00000
      3     -12.7351      2.00000
      4     -12.1114      2.00000
      5      -5.5515      2.00000
      6      -4.7005      2.00000
      7      -3.4227      2.00000
      8      -3.2808      2.00000
      9      -2.8223      2.00000
     10      -2.6206      2.00000
     11      -0.9363      2.00000
     12      -0.7017      2.00000
     13      -0.2763      2.00000
     14      -0.1005      2.00000
     15       2.6183      0.00000
     16       3.0848      0.00000
     17       8.5754      0.00000
     18       8.8544      0.00000

 k-point     6 :      -0.4000    0.2000    0.2500
  band No.  band energies     occupation 
      1     -16.3689      2.00000
      2     -16.2891      2.00000
      3     -12.5671      2.00000
      4     -12.3741      2.00000
      5      -5.4648      2.00000
      6      -5.2097      2.00000
      7      -3.5843      2.00000
      8      -3.3776      2.00000
      9      -3.0920      2.00000
     10      -2.8547      2.00000
     11      -0.7877      2.00000
     12      -0.5906      2.00000
     13      -0.2922      2.00000
     14      -0.1662      2.00000
     15       2.8653      0.00000
     16       3.0793      0.00000
     17       8.4385      0.00000
     18       8.9714      0.00000

 k-point     7 :      -0.2000    0.2000    0.2500
  band No.  band energies     occupation 
      1     -16.4326      2.00000
      2     -16.3151      2.00000
      3     -12.6444      2.00000
      4     -12.3506      2.00000
      5      -5.5753      2.00000
      6      -5.0971      2.00000
      7      -3.5352      2.00000
      8      -3.1747      2.00000
      9      -2.7311      2.00000
     10      -2.6267      2.00000
     11      -0.5911      2.00000
     12      -0.4039      2.00000
     13      -0.2407      2.00000
     14      -0.1996      2.00000
     15       2.8424      0.00000
     16       3.1250      0.00000
     17       8.4218      0.00000
     18       8.9537      0.00000

 k-point     8 :       0.4000    0.4000    0.2500
  band No.  band energies     occupation 
      1     -16.5677      2.00000
      2     -16.2851      2.00000
      3     -12.7464      2.00000
      4     -11.9860      2.00000
      5      -5.4762      2.00000
      6      -4.4881      2.00000
      7      -3.8592      2.00000
      8      -3.3578      2.00000
      9      -2.6530      2.00000
     10      -2.3486      2.00000
     11      -1.1740      2.00000
     12      -1.0304      2.00000
     13      -0.4860      2.00000
     14      -0.1626      2.00000
     15       2.4687      0.00000
     16       3.0504      0.00000
     17       8.5978      0.00000
     18       8.6996      0.00000

 k-point     9 :      -0.4000    0.4000    0.2500
  band No.  band energies     occupation 
      1     -16.4865      2.00000
      2     -16.2601      2.00000
      3     -12.6863      2.00000
      4     -12.1002      2.00000
      5      -5.4940      2.00000
      6      -4.7215      2.00000
      7      -3.7987      2.00000
      8      -3.3116      2.00000
      9      -3.1742      2.00000
     10      -2.7019      2.00000
     11      -1.0851      2.00000
     12      -0.8779      2.00000
     13      -0.2635      2.00000
     14      -0.2065      2.00000
     15       2.6156      0.00000
     16       3.0514      0.00000
     17       8.9431      0.00000
     18       9.0712      0.00000


--------------------------------------------------------------------------------------------------------


 soft charge-density along one line, spin component            1
         0         1         2         3         4         5         6         7         8         9
 total charge-density along one line
 
 pseudopotential strength for first ion, spin component:            1
 48.237  50.626  -0.041  -0.060   0.000  -0.050  -0.075   0.000
 50.626  53.135  -0.043  -0.063   0.000  -0.053  -0.079   0.000
 -0.041  -0.043   9.094   0.020  -0.000  11.276   0.024  -0.000
 -0.060  -0.063   0.020   9.120   0.000   0.024  11.307   0.000
  0.000   0.000  -0.000   0.000   9.079  -0.000   0.000  11.258
 -0.050  -0.053  11.276   0.024  -0.000  13.997   0.029  -0.000
 -0.075  -0.079   0.024  11.307   0.000   0.029  14.035   0.000
  0.000   0.000  -0.000   0.000  11.258  -0.000   0.000  13.975
 total augmentation occupancy for first ion, spin component:            1
 13.165 -10.060   2.764   4.649   0.000  -1.232  -2.281  -0.000
-10.060   9.040  -2.583  -4.344  -0.000   1.206   2.213   0.000
  2.764  -2.583   2.902   1.194   0.000  -0.761  -0.872  -0.000
  4.649  -4.344   1.194   4.436   0.000  -0.872  -1.880  -0.000
  0.000  -0.000   0.000   0.000   2.100  -0.000  -0.000  -0.179
 -1.232   1.206  -0.761  -0.872  -0.000   0.466   0.413   0.000
 -2.281   2.213  -0.872  -1.880  -0.000   0.413   0.989   0.000
 -0.000   0.000  -0.000  -0.000  -0.179   0.000   0.000   0.216


------------------------ aborting loop because EDIFF is reached ----------------------------------------





 total charge

# of ion       s       p       d       tot
------------------------------------------
    1        1.618   3.339   0.000   4.957
    2        1.618   3.339   0.000   4.957
    3        1.618   3.339   0.000   4.957
    4        1.618   3.339   0.000   4.957
--------------------------------------------------
tot          6.472  13.357   0.000  19.829
 
    CHARGE:  cpu time      0.0157: real time      0.0157
    FORLOC:  cpu time      0.0003: real time      0.0003
    FORNL :  cpu time      0.0214: real time      0.0215
    STRESS:  cpu time      0.2132: real time      0.2136
    FORCOR:  cpu time      0.0031: real time      0.0031
    FORHAR:  cpu time      0.0008: real time      0.0008
    MIXING:  cpu time      0.0021: real time      0.0021
    OFIELD:  cpu time      0.0000: real time      0.0000

  FORCE on cell =-STRESS in cart. coord.  units (eV):
  Direction    XX          YY          ZZ          XY          YZ          ZX
  --------------------------------------------------------------------------------------
  Alpha Z    31.73390    31.73390    31.73390
  Ewald    -672.09212  -406.45222  -191.59372     0.00000    -0.00000     0.00000
  Hartree     0.52171   126.56527   195.82975    -0.00000     0.00000    -0.00000
  E(xc)    -101.77271  -101.17451  -100.56485    -0.00000    -0.00000     0.00000
  Local      -4.86327  -363.80212  -593.28535     0.00000     0.00000    -0.00000
  n-local   331.68085   326.59227   318.05140     1.35335     0.64115    -0.08737
  augment   -84.12271   -81.53008   -77.10558     0.00000     0.00000     0.00000
  Kinetic   498.91536   468.05498   416.95174     5.99866     0.50921    -0.11039
  Fock        0.00000     0.00000     0.00000     0.00000     0.00000     0.00000
  -------------------------------------------------------------------------------------
  Total       0.00101    -0.01252     0.01728     0.00000     0.00000     0.00000
  in kB       0.01527    -0.18835     0.26002     0.00000     0.00000     0.00000
  external pressure =        0.03 kB  Pullay stress =        0.00 kB


 VOLUME and BASIS-vectors are now :
 -----------------------------------------------------------------------------
  energy-cutoff  :      400.00
  volume of cell :      106.49
      direct lattice vectors                 reciprocal lattice vectors
     3.416942612 -1.946211363 -0.000000000     0.146329645 -0.256909403  0.000000000
     3.416942612  1.946211363  0.000000000     0.146329645  0.256909403 -0.000000000
     0.000000000  0.000000000  8.006311074    -0.000000000 -0.000000000  0.124901467

  length of vectors
     3.932332067  3.932332067  8.006311074     0.295659951  0.295659951  0.124901467


 FORCES acting on ions
    electron-ion (+dipol)            ewald-force                    non-local-force                 convergence-correction
 -----------------------------------------------------------------------------------------------
   0.293E-06 -.391E+02 -.637E+02   0.226E-14 0.439E+02 0.707E+02   0.000E+00 -.489E+01 -.699E+01   -.102E-12 -.141E-03 0.157E-03
   -.293E-06 0.391E+02 0.637E+02   0.102E-14 -.439E+02 -.707E+02   0.000E+00 0.489E+01 0.699E+01   -.120E-12 0.141E-03 -.157E-03
   0.293E-06 0.391E+02 -.637E+02   0.261E-14 -.439E+02 0.707E+02   0.000E+00 0.489E+01 -.699E+01   -.159E-12 0.141E-03 0.157E-03
   -.293E-06 -.391E+02 0.637E+02   -.369E-14 0.439E+02 -.707E+02   0.000E+00 -.489E+01 0.699E+01   -.131E-12 -.141E-03 -.157E-03
 -----------------------------------------------------------------------------------------------
   0.446E-11 -.204E-11 -.103E-09   0.220E-14 0.711E-14 0.000E+00   0.000E+00 0.000E+00 0.000E+00   -.512E-12 0.715E-14 0.175E-14
 
 
 POSITION                                       TOTAL-FORCE (eV/Angst)
 -----------------------------------------------------------------------------------
      3.41694     -1.45762      4.88838         0.000000      0.000969     -0.004805
      3.41694      1.45762      3.11793         0.000000     -0.000969      0.004805
      3.41694     -0.48860      0.88523         0.000000     -0.000969     -0.004805
      3.41694      0.48860      7.12108         0.000000      0.000969      0.004805
 -----------------------------------------------------------------------------------
    total drift:                                0.000000     -0.000000     -0.000000


--------------------------------------------------------------------------------------------------------



  FREE ENERGIE OF THE ION-ELECTRON SYSTEM (eV)
  ---------------------------------------------------
  free  energy   TOTEN  =        -8.07097055 eV

  energy  without entropy=       -8.07097055  energy(sigma->0) =       -8.07097055
 d Force = 0.3153872E-06[ 0.208E-06, 0.423E-06]  d Energy =-0.2753712E-06 0.591E-06
 d Force = 0.1399791E-01[ 0.140E-01, 0.140E-01]  d Ewald  = 0.1018435E+00-0.878E-01
 


--------------------------------------------------------------------------------------------------------


    POTLOK:  cpu time      0.0445: real time      0.0446


--------------------------------------------------------------------------------------------------------




--------------------------------------------------------------------------------------------------------


  
 reached required accuracy - stopping structural energy minimisation
     LOOP+:  cpu time      0.8790: real time      0.8835
    4ORBIT:  cpu time      0.0000: real time      0.0000



 total charge

# of ion       s       p       d       tot
------------------------------------------
    1        1.618   3.339   0.000   4.957
    2        1.618   3.339   0.000   4.957
    3        1.618   3.339   0.000   4.957
    4        1.618   3.339   0.000   4.957
--------------------------------------------------
tot          6.472  13.357   0.000  19.829
 
 BZINTS: Fermi energy:    0.171736;   28.000000 electrons
         Band energy:-0.163670E+03;  BLOECHL correction:    0.000000

 total amount of memory used by VASP MPI-rank0    48686. kBytes
=======================================================================

   base                                    :      30000. kBytes
   nonl-proj                               :       1322. kBytes
   fftplans                                :       4680. kBytes
   grid                                    :       7232. kBytes
   one-center                              :         12. kBytes
   wavefun                                 :       5440. kBytes
 
  
  
 General timing and accounting informations for this job:
 ========================================================
  
                  Total CPU time used (sec):       46.432
                            User time (sec):       44.820
                          System time (sec):        1.612
                         Elapsed time (sec):       47.280
  
                   Maximum memory used (kb):     2037752.
                   Average memory used (kb):          N/A
  
                          Minor page faults:       301396
                          Major page faults:            7
                 Voluntary context switches:         7965
