<?xml version="1.0" encoding="ISO-8859-1"?>
<modeling>
 <generator>
  <i name="program" type="string">vasp </i>
  <i name="version" type="string">6.5.1  </i>
  <i name="subversion" type="string">10Mar25 (build May 13 2025 11:33:44) complex                          parallel </i>
  <i name="platform" type="string">LinuxNV </i>
  <i name="date" type="string">2026 05 13 </i>
  <i name="time" type="string">11:34:15 </i>
 </generator>
 <incar>
  <i type="string" name="PREC">Normal</i>
  <i type="string" name="ALGO">Normal</i>
  <i type="int" name="NELM">   100</i>
  <i type="int" name="IBRION">     2</i>
  <i name="EDIFF">      0.00000010</i>
  <i name="EDIFFG">     -0.00500000</i>
  <i type="int" name="NSW">   300</i>
  <i type="int" name="ISIF">     3</i>
  <i name="ENCUT">    400.00000000</i>
  <i type="logical" name="LREAL"> F  </i>
  <i type="int" name="ISMEAR">    -5</i>
  <i name="SIGMA">      0.10000000</i>
  <i type="logical" name="LWAVE"> F  </i>
  <i type="logical" name="LCHARG"> F  </i>
  <i type="int" name="LORBIT">    10</i>
  <i type="logical" name="LASPH"> T  </i>
  <i type="string" name="GGA">Ps</i>
 </incar>
 <primitive_cell>
  <structure name="primitive_cell" >
   <crystal>
    <varray name="basis" >
     <v>       3.26420559      -2.05747175       0.00000000 </v>
     <v>       3.26420559       2.05747175       0.00000000 </v>
     <v>       0.00000000       0.00000000       8.40239547 </v>
    </varray>
    <i name="volume">    112.86115751 </i>
    <varray name="rec_basis" >
     <v>       0.15317663      -0.24301670       0.00000000 </v>
     <v>       0.15317663       0.24301670      -0.00000000 </v>
     <v>      -0.00000000       0.00000000       0.11901368 </v>
    </varray>
   </crystal>
   <varray name="positions" >
    <v>       0.88547531       0.11452469       0.60475299 </v>
    <v>       0.11452469       0.88547531       0.39524701 </v>
    <v>       0.61452469       0.38547531       0.10475299 </v>
    <v>       0.38547531       0.61452469       0.89524701 </v>
   </varray>
  </structure>
  <varray name="primitive_index" >
   <v type="int" >        1 </v>
   <v type="int" >        2 </v>
   <v type="int" >        3 </v>
   <v type="int" >        4 </v>
  </varray>
 </primitive_cell>
 <kpoints>
  <generation param="Gamma">
   <v type="int" name="divisions">       5        5        2 </v>
   <v name="usershift">      0.00000000       0.00000000       0.50000000 </v>
   <v name="genvec1">      0.20000000       0.00000000       0.00000000 </v>
   <v name="genvec2">      0.00000000       0.20000000       0.00000000 </v>
   <v name="genvec3">      0.00000000       0.00000000       0.50000000 </v>
   <v name="shift">      0.00000000       0.00000000       0.50000000 </v>
  </generation>
  <varray name="kpointlist" >
   <v>       0.00000000       0.00000000       0.25000000 </v>
   <v>       0.20000000       0.00000000       0.25000000 </v>
   <v>       0.40000000       0.00000000       0.25000000 </v>
   <v>       0.20000000       0.20000000       0.25000000 </v>
   <v>       0.40000000       0.20000000       0.25000000 </v>
   <v>      -0.40000000       0.20000000       0.25000000 </v>
   <v>      -0.20000000       0.20000000       0.25000000 </v>
   <v>       0.40000000       0.40000000       0.25000000 </v>
   <v>      -0.40000000       0.40000000       0.25000000 </v>
  </varray>
  <varray name="weights" >
   <v>       0.04000000 </v>
   <v>       0.16000000 </v>
   <v>       0.16000000 </v>
   <v>       0.08000000 </v>
   <v>       0.16000000 </v>
   <v>       0.16000000 </v>
   <v>       0.08000000 </v>
   <v>       0.08000000 </v>
   <v>       0.08000000 </v>
  </varray>
  <varray name="tetrahedronlist"  type="int" >
   <v type="int" >        8        2        3        7        7 </v>
   <v type="int" >        8        3        6        7        7 </v>
   <v type="int" >        8        3        6        6        7 </v>
   <v type="int" >        8        2        2        3        7 </v>
   <v type="int" >        8        2        3        3        7 </v>
   <v type="int" >        8        3        3        6        7 </v>
   <v type="int" >        8        3        3        6        6 </v>
   <v type="int" >        8        3        5        6        6 </v>
   <v type="int" >        8        3        5        5        6 </v>
   <v type="int" >       16        3        3        3        6 </v>
   <v type="int" >        8        3        3        5        6 </v>
   <v type="int" >        8        2        3        5        5 </v>
   <v type="int" >        8        2        4        5        5 </v>
   <v type="int" >        8        2        4        4        5 </v>
   <v type="int" >        8        2        3        3        5 </v>
   <v type="int" >        8        2        2        3        5 </v>
   <v type="int" >        8        2        2        4        5 </v>
   <v type="int" >        8        1        2        4        4 </v>
   <v type="int" >        8        1        2        2        4 </v>
   <v type="int" >        8        1        1        2        4 </v>
   <v type="int" >        8        1        2        2        2 </v>
   <v type="int" >        8        2        2        2        7 </v>
   <v type="int" >        4        2        2        7        7 </v>
   <v type="int" >        4        1        1        2        2 </v>
   <v type="int" >        8        6        6        6        7 </v>
   <v type="int" >        8        6        6        6        9 </v>
   <v type="int" >        4        6        6        9        9 </v>
   <v type="int" >        4        6        6        7        7 </v>
   <v type="int" >        8        5        6        9        9 </v>
   <v type="int" >        8        5        8        9        9 </v>
   <v type="int" >        8        5        8        8        9 </v>
   <v type="int" >        8        5        6        6        9 </v>
   <v type="int" >        8        5        5        6        9 </v>
   <v type="int" >        8        5        5        8        9 </v>
   <v type="int" >        8        4        5        8        8 </v>
   <v type="int" >        8        4        5        5        8 </v>
   <v type="int" >        8        4        4        5        8 </v>
   <v type="int" >        8        8        8        8        9 </v>
   <v type="int" >        4        8        8        9        9 </v>
  </varray>
  <i name="volumeweight">      0.00333333 </i>
 </kpoints>
 <parameters>
  <separator name="general" >
   <i type="string" name="SYSTEM">unknown system</i>
   <i type="logical" name="LCOMPAT"> F  </i>
  </separator>
  <separator name="electronic" >
   <i type="string" name="PREC">normal</i>
   <i name="ENMAX">    400.00000000</i>
   <i name="ENAUG">    356.19200000</i>
   <i name="EDIFF">      0.00000010</i>
   <i type="int" name="IALGO">    38</i>
   <i type="int" name="IWAVPR">    11</i>
   <i type="int" name="NBANDS">    18</i>
   <i type="int" name="NBANDSLOW">    -1</i>
   <i type="int" name="NBANDSHIGH">    -1</i>
   <i name="NELECT">     28.00000000</i>
   <i type="int" name="TURBO">     0</i>
   <i type="int" name="IRESTART">     0</i>
   <i type="int" name="NREBOOT">     0</i>
   <i type="int" name="NMIN">     0</i>
   <i name="EREF">      0.00000000</i>
   <separator name="electronic smearing" >
    <i type="int" name="ISMEAR">    -5</i>
    <i name="SIGMA">      0.10000000</i>
    <i name="KSPACING">      0.50000000</i>
    <i type="logical" name="KGAMMA"> T  </i>
    <i type="logical" name="KBLOWUP"> T  </i>
   </separator>
   <separator name="electronic projectors" >
    <i type="logical" name="LREAL"> F  </i>
    <v name="ROPT">      0.00000000</v>
    <i type="int" name="LMAXPAW">  -100</i>
    <i type="int" name="LMAXMIX">     2</i>
    <i type="logical" name="NLSPLINE"> F  </i>
   </separator>
   <separator name="electronic startup" >
    <i type="int" name="ISTART">     0</i>
    <i type="int" name="ICHARG">     2</i>
    <i type="int" name="INIWAV">     1</i>
   </separator>
   <separator name="electronic spin" >
    <i type="int" name="ISPIN">     1</i>
    <i type="logical" name="LNONCOLLINEAR"> F  </i>
    <v name="MAGMOM">      1.00000000      1.00000000      1.00000000      1.00000000</v>
    <i name="NUPDOWN">     -1.00000000</i>
    <i type="logical" name="LSORBIT"> F  </i>
    <v name="SAXIS">      0.00000000      0.00000000      1.00000000</v>
    <i type="logical" name="LSPIRAL"> F  </i>
    <v name="QSPIRAL">      0.00000000      0.00000000      0.00000000</v>
    <i type="logical" name="LZEROZ"> F  </i>
   </separator>
   <separator name="electronic exchange-correlation" >
    <i type="logical" name="LASPH"> T  </i>
   </separator>
   <separator name="electronic convergence" >
    <i type="int" name="NELM">   100</i>
    <i type="int" name="NELMDL">    -5</i>
    <i type="int" name="NELMIN">     2</i>
    <i name="ENINI">    400.00000000</i>
    <separator name="electronic convergence detail" >
     <i type="logical" name="LDIAG"> T  </i>
     <i type="logical" name="LSUBROT"> F  </i>
     <i type="logical" name="LROBUST"> F  </i>
     <i type="int" name="ISEARCH">     0</i>
     <i name="WEIMIN">      0.00100000</i>
     <i name="EBREAK">      0.00000000</i>
     <i name="DEPER">      0.30000000</i>
     <i type="int" name="NRMM">     4</i>
     <i name="TIME">      0.40000000</i>
    </separator>
   </separator>
   <separator name="electronic mixer" >
    <i name="AMIX">      0.40000000</i>
    <i name="BMIX">      1.00000000</i>
    <i name="AMIN">      0.10000000</i>
    <i name="AMIX_MAG">      1.60000000</i>
    <i name="BMIX_MAG">      1.00000000</i>
    <separator name="electronic mixer details" >
     <i type="int" name="IMIX">     4</i>
     <i type="logical" name="MIXFIRST"> F  </i>
     <i type="int" name="MAXMIX">   -45</i>
     <i name="WC">    100.00000000</i>
     <i type="int" name="INIMIX">     1</i>
     <i type="int" name="MIXPRE">     1</i>
     <i type="int" name="MREMOVE">     5</i>
    </separator>
   </separator>
   <separator name="electronic dipolcorrection" >
    <i type="logical" name="LDIPOL"> F  </i>
    <i type="logical" name="LMONO"> F  </i>
    <i type="int" name="IDIPOL">     0</i>
    <i name="EPSILON">      1.00000000</i>
    <v name="DIPOL">   -100.00000000   -100.00000000   -100.00000000</v>
    <i name="EFIELD">      0.00000000</i>
    <i type="logical" name="LVACPOTAV"> F  </i>
   </separator>
  </separator>
  <separator name="grids" >
   <i type="int" name="NGX">    20</i>
   <i type="int" name="NGY">    20</i>
   <i type="int" name="NGZ">    42</i>
   <i type="int" name="NGXF">    40</i>
   <i type="int" name="NGYF">    40</i>
   <i type="int" name="NGZF">    84</i>
   <i type="logical" name="ADDGRID"> F  </i>
  </separator>
  <separator name="ionic" >
   <i type="int" name="NSW">   300</i>
   <i type="int" name="IBRION">     2</i>
   <i type="int" name="MDALGO">     0</i>
   <i type="int" name="ISIF">     3</i>
   <i name="PSTRESS">      0.00000000</i>
   <i name="EDIFFG">     -0.00500000</i>
   <i type="int" name="NFREE">     1</i>
   <i name="POTIM">      0.50000000</i>
   <i name="SMASS">     -3.00000000</i>
   <i name="SCALEE">      1.00000000</i>
  </separator>
  <separator name="ionic md" >
   <i name="TEBEG">      0.00010000</i>
   <i name="TEEND">      0.00010000</i>
   <i type="int" name="NBLOCK">     1</i>
   <i type="int" name="KBLOCK">   300</i>
   <i type="int" name="NPACO">   256</i>
   <i name="APACO">     10.00000000</i>
  </separator>
  <separator name="symmetry" >
   <i type="int" name="ISYM">     2</i>
   <i name="SYMPREC">      0.00001000</i>
  </separator>
  <separator name="dos" >
   <i type="int" name="LORBIT">    10</i>
   <v name="RWIGS">     -1.00000000</v>
   <i type="int" name="NEDOS">   301</i>
   <i name="EMIN">     10.00000000</i>
   <i name="EMAX">    -10.00000000</i>
   <i name="EFERMI">      0.00000000</i>
  </separator>
  <separator name="writing" >
   <i type="int" name="NWRITE">     2</i>
   <i type="logical" name="LWAVE"> F  </i>
   <i type="logical" name="LDOWNSAMPLE"> F  </i>
   <i type="logical" name="LCHARG"> F  </i>
   <i type="logical" name="LPARD"> F  </i>
   <i type="logical" name="LVTOT"> F  </i>
   <i type="logical" name="LVHAR"> F  </i>
   <i type="logical" name="LELF"> F  </i>
   <i type="logical" name="LOPTICS"> F  </i>
   <v name="STM">      0.00000000      0.00000000      0.00000000      0.00000000      0.00000000      0.00000000      0.00000000</v>
  </separator>
  <separator name="performance" >
   <i type="int" name="NPAR">     1</i>
   <i type="int" name="NSIM">     4</i>
   <i type="int" name="NBLK">    -1</i>
   <i type="logical" name="LPLANE"> T  </i>
   <i type="logical" name="LSCALAPACK"> T  </i>
   <i type="logical" name="LSCAAWARE"> F  </i>
   <i type="logical" name="LSCALU"> F  </i>
   <i type="logical" name="LASYNC"> F  </i>
   <i type="logical" name="LORBITALREAL"> F  </i>
  </separator>
  <separator name="miscellaneous" >
   <i type="int" name="IDIOT">     3</i>
   <i type="int" name="PHON_NSTRUCT">    -1</i>
   <i type="logical" name="LMUSIC"> F  </i>
   <v name="POMASS">     35.45300000</v>
   <v name="DARWINR">      0.00000000</v>
   <v name="DARWINV">      1.00000000</v>
   <i type="logical" name="LCORR"> T  </i>
  </separator>
  <i type="logical" name="GGA_COMPAT"> T  </i>
  <i type="logical" name="LBERRY"> F  </i>
  <i type="int" name="ICORELEVEL">     0</i>
  <i type="logical" name="LDAU"> F  </i>
  <i type="int" name="I_CONSTRAINED_M">     0</i>
  <separator name="electronic exchange-correlation" >
   <i type="string" name="GGA    ">PS</i>
   <i type="string" name="XC_C">1</i>
   <i type="int" name="VOSKOWN">     0</i>
   <i type="logical" name="LHFCALC"> F  </i>
   <i type="string" name="PRECFOCK"></i>
   <i type="logical" name="LSYMGRAD"> F  </i>
   <i type="logical" name="LHFONE"> F  </i>
   <i type="logical" name="LRHFCALC"> F  </i>
   <i type="logical" name="LTHOMAS"> F  </i>
   <i type="logical" name="LMODELHF"> F  </i>
   <i type="logical" name="LFOCKACE"> F  </i>
   <i name="ENCUT4O">     -1.00000000</i>
   <i type="int" name="EXXOEP">     0</i>
   <i type="int" name="FOURORBIT">     0</i>
   <i name="AEXX">      0.00000000</i>
   <i name="HFALPHA">      0.00000000</i>
   <i name="MCALPHA">      0.00000000</i>
   <i name="ALDAX">      1.00000000</i>
   <i name="AGGAX">      1.00000000</i>
   <i name="AMGGAX">      1.00000000</i>
   <i name="ALDAC">      1.00000000</i>
   <i name="AGGAC">      1.00000000</i>
   <i name="AMGGAC">      1.00000000</i>
   <i type="int" name="NKREDX">     1</i>
   <i type="int" name="NKREDY">     1</i>
   <i type="int" name="NKREDZ">     1</i>
   <i type="logical" name="SHIFTRED"> F  </i>
   <i type="logical" name="ODDONLY"> F  </i>
   <i type="logical" name="EVENONLY"> F  </i>
   <i type="int" name="LMAXFOCK">     0</i>
   <i type="int" name="NMAXFOCKAE">     0</i>
   <i type="logical" name="LFOCKAEDFT"> F  </i>
   <i name="HFSCREEN">      0.00000000</i>
   <i name="HFSCREENC">      0.00000000</i>
   <i type="int" name="NBANDSGWLOW">     0</i>
  </separator>
  <separator name="vdW DFT" >
   <i type="logical" name="LUSE_VDW"> F  </i>
   <i type="int" name="IVDW_NL">    -1</i>
   <i type="logical" name="LSPIN_VDW"> F  </i>
   <i name="ZAB_VDW">     -0.84910000</i>
   <i name="GAMMA_VDW">      1.39626340</i>
   <i name="ALPHA_VDW">      0.00000000</i>
   <i name="PARAM1">      0.12340000</i>
   <i name="PARAM2">      1.00000000</i>
   <i name="BPARAM">      6.30000000</i>
   <i name="CPARAM">      0.00930000</i>
  </separator>
  <separator name="model GW" >
   <i type="int" name="MODEL_GW">     0</i>
   <i name="MODEL_EPS0">     16.92917363</i>
   <i name="MODEL_ALPHA">      1.00000000</i>
  </separator>
  <separator name="linear response parameters" >
   <i type="logical" name="LEPSILON"> F  </i>
   <i type="logical" name="LRPA"> F  </i>
   <i type="logical" name="LNABLA"> F  </i>
   <i type="logical" name="LVEL"> F  </i>
   <i name="CSHIFT">      0.10000000</i>
   <i name="OMEGAMAX">     -1.00000000</i>
   <i name="DEG_THRESHOLD">      0.00200000</i>
   <i name="RTIME">     -0.10000000</i>
   <i name="WPLASMAI">      0.00000000</i>
   <v name="DFIELD">      0.00000000      0.00000000      0.00000000</v>
   <v name="WPLASMA">      0.00000000      0.00000000      0.00000000      0.00000000      0.00000000      0.00000000      0.00000000      0.00000000      0.00000000</v>
  </separator>
  <separator name="orbital magnetization" >
   <i type="logical" name="NUCIND"> F  </i>
   <v name="MAGPOS">      0.00000000      0.00000000      0.00000000</v>
   <i type="logical" name="LNICSALL"> T  </i>
   <i type="logical" name="ORBITALMAG"> F  </i>
   <i type="logical" name="LMAGBLOCH"> F  </i>
   <i type="logical" name="LCHIMAG"> F  </i>
   <i type="logical" name="LGAUGE"> T  </i>
   <i type="int" name="MAGATOM">     0</i>
   <v name="MAGDIPOL">      0.00000000      0.00000000      0.00000000</v>
   <v name="AVECCONST">      0.00000000      0.00000000      0.00000000</v>
  </separator>
  <separator name="response functions" >
   <i type="logical" name="LALL_IN_ONE"> F  </i>
   <i type="int" name="IALL_IN_ONE">    -1</i>
   <i type="int" name="NBANDS_WAVE">    -1</i>
   <i type="logical" name="LFINITE_TEMPERATURE"> F  </i>
   <i type="logical" name="LADDER"> F  </i>
   <i type="logical" name="LRPAFORCE"> F  </i>
   <i type="logical" name="LFXC"> F  </i>
   <i type="logical" name="LHARTREE"> T  </i>
   <i type="int" name="IBSE">     2</i>
   <v type="int" name="KPOINT">    -1     0     0     0</v>
   <i type="logical" name="LTCTC"> F  </i>
   <i type="logical" name="LTCTE"> F  </i>
   <i type="logical" name="LTETE"> F  </i>
   <i type="logical" name="LTRIPLET"> F  </i>
   <i type="logical" name="LFXCEPS"> F  </i>
   <i type="logical" name="LFXHEG"> F  </i>
   <i type="int" name="NATURALO">     2</i>
   <i type="logical" name="LHOLEGF"> F  </i>
   <i type="logical" name="L2ORDER"> F  </i>
   <i type="logical" name="LDMP1"> F  </i>
   <i type="logical" name="LMP2LT"> F  </i>
   <i type="logical" name="LSMP2LT"> F  </i>
   <i type="logical" name="LGWLF"> F  </i>
   <i name="ENCUTGW">     -1.60000002</i>
   <i name="ENCUTGWSOFT">     -1.60000002</i>
   <i name="ENCUTLF">     -1.00000000</i>
   <i type="logical" name="ESF_SPLINES"> F  </i>
   <i name="ESF_CONV">      0.01000000</i>
   <i type="int" name="ESF_NINTER">    15</i>
   <i type="int" name="LMAXMP2">    -1</i>
   <i name="SCISSOR">      0.00000000</i>
   <i type="int" name="NOMEGA">     0</i>
   <i type="int" name="NOMEGAR">     0</i>
   <i type="int" name="NBANDSGW">    -1</i>
   <i type="int" name="NBANDSO">    -1</i>
   <i type="int" name="NBANDSV">    -1</i>
   <i type="int" name="NELMGW">     1</i>
   <i type="int" name="NELMHF">     1</i>
   <i type="int" name="DIM">     3</i>
   <i type="int" name="IESPILON">     4</i>
   <i type="int" name="ANTIRES">     0</i>
   <i name="OMEGAMAX">    -30.00000000</i>
   <i name="OMEGAMIN">    -30.00000000</i>
   <i name="OMEGATL">   -200.00000000</i>
   <i type="int" name="OMEGAGRID">     0</i>
   <i name="CSHIFT">     -0.10000000</i>
   <i type="logical" name="LSELFENERGY"> F  </i>
   <i type="logical" name="LSPECTRAL"> F  </i>
   <i type="logical" name="LSPECTRALGW"> F  </i>
   <i type="logical" name="LSINGLES"> F  </i>
   <i type="logical" name="LFERMIGW"> F  </i>
   <i type="logical" name="ODDONLYGW"> F  </i>
   <i type="logical" name="EVENONLYGW"> F  </i>
   <i type="int" name="NKREDLFX">     1</i>
   <i type="int" name="NKREDLFY">     1</i>
   <i type="int" name="NKREDLFZ">     1</i>
   <i type="int" name="MAXMEM">  2800</i>
   <i type="int" name="TELESCOPE">     0</i>
   <i type="int" name="NTAUPAR">    -1</i>
   <i type="int" name="NOMEGAPAR">    -1</i>
   <i name="DAMP_NEWTON">      0.80000001</i>
   <i name="LAMBDA">      1.00000000</i>
  </separator>
  <separator name="External order field" >
   <i name="OFIELD_KAPPA">      0.00000000</i>
   <v name="OFIELD_K">      0.00000000      0.00000000      0.00000000</v>
   <i name="OFIELD_Q6_NEAR">      0.00000000</i>
   <i name="OFIELD_Q6_FAR">      0.00000000</i>
   <i name="OFIELD_A">      0.00000000</i>
  </separator>
  <separator name="optional k-points parameters" >
   <i type="int" name="KPOINTS_OPT_MODE">     1</i>
   <i type="logical" name="LKPOINTS_OPT"> F  </i>
  </separator>
 </parameters>
 <atominfo>
  <atoms>       4 </atoms>
  <types>       1 </types>
  <array name="atoms" >
   <dimension dim="1">ion</dimension>
   <field type="string">element</field>
   <field type="int">atomtype</field>
   <set>
    <rc><c>Cl</c><c>   1</c></rc>
    <rc><c>Cl</c><c>   1</c></rc>
    <rc><c>Cl</c><c>   1</c></rc>
    <rc><c>Cl</c><c>   1</c></rc>
   </set>
  </array>
  <array name="atomtypes" >
   <dimension dim="1">type</dimension>
   <field type="int">atomspertype</field>
   <field type="string">element</field>
   <field>mass</field>
   <field>valence</field>
   <field type="string">pseudopotential</field>
   <set>
    <rc><c>   4</c><c>Cl</c><c>     35.45300000</c><c>      7.00000000</c><c>  PAW_PBE Cl 06Sep2000                  </c></rc>
   </set>
  </array>
 </atominfo>
 <structure name="initialpos" >
  <crystal>
   <varray name="basis" >
    <v>       3.26420559      -2.05747175       0.00000000 </v>
    <v>       3.26420559       2.05747175       0.00000000 </v>
    <v>       0.00000000       0.00000000       8.40239547 </v>
   </varray>
   <i name="volume">    112.86115751 </i>
   <varray name="rec_basis" >
    <v>       0.15317663      -0.24301670       0.00000000 </v>
    <v>       0.15317663       0.24301670      -0.00000000 </v>
    <v>      -0.00000000       0.00000000       0.11901368 </v>
   </varray>
  </crystal>
  <varray name="positions" >
   <v>       0.88547531       0.11452469       0.60475299 </v>
   <v>       0.11452469       0.88547531       0.39524701 </v>
   <v>       0.61452469       0.38547531       0.10475299 </v>
   <v>       0.38547531       0.61452469       0.89524701 </v>
  </varray>
 </structure>
 <calculation>
  <scstep>
   <time name="dav">    0.24    0.25</time>
   <time name="total">    0.31    0.31</time>
   <energy>
    <i name="alphaZ">     29.94119198 </i>
    <i name="ewald">  -1242.55322342 </i>
    <i name="hartreedc">   -339.80084817 </i>
    <i name="XCdc">     80.99196912 </i>
    <i name="pawpsdc">   1300.36435954 </i>
    <i name="pawaedc">  -1299.59849449 </i>
    <i name="eentropy">      0.00000000 </i>
    <i name="bandstr">     18.17892123 </i>
    <i name="atom">   1634.92028419 </i>
    <i name="e_fr_energy">    182.44415999 </i>
    <i name="e_wo_entrp">    182.44415999 </i>
    <i name="e_0_energy">    182.44415999 </i>
   </energy>
  </scstep>
  <scstep>
   <time name="dav">    0.10    0.11</time>
   <time name="total">    0.11    0.11</time>
   <energy>
    <i name="e_fr_energy">      3.89179905 </i>
    <i name="e_wo_entrp">      3.89179905 </i>
    <i name="e_0_energy">      3.89179905 </i>
   </energy>
  </scstep>
  <scstep>
   <time name="dav">    0.09    0.09</time>
   <time name="total">    0.09    0.09</time>
   <energy>
    <i name="e_fr_energy">     -8.35802378 </i>
    <i name="e_wo_entrp">     -8.35802378 </i>
    <i name="e_0_energy">     -8.35802378 </i>
   </energy>
  </scstep>
  <scstep>
   <time name="dav">    0.09    0.09</time>
   <time name="total">    0.09    0.09</time>
   <energy>
    <i name="e_fr_energy">     -8.50476461 </i>
    <i name="e_wo_entrp">     -8.50476461 </i>
    <i name="e_0_energy">     -8.50476461 </i>
   </energy>
  </scstep>
  <scstep>
   <time name="dav">    0.09    0.09</time>
   <time name="total">    0.28    0.30</time>
   <energy>
    <i name="e_fr_energy">     -8.50719634 </i>
    <i name="e_wo_entrp">     -8.50719634 </i>
    <i name="e_0_energy">     -8.50719634 </i>
   </energy>
  </scstep>
  <scstep>
   <time name="dav">    0.08    0.08</time>
   <time name="total">    0.14    0.14</time>
   <energy>
    <i name="e_fr_energy">     -8.14886597 </i>
    <i name="e_wo_entrp">     -8.14886597 </i>
    <i name="e_0_energy">     -8.14886597 </i>
   </energy>
  </scstep>
  <scstep>
   <time name="dav">    0.09    0.09</time>
   <time name="total">    0.14    0.15</time>
   <energy>
    <i name="e_fr_energy">     -8.03823121 </i>
    <i name="e_wo_entrp">     -8.03823121 </i>
    <i name="e_0_energy">     -8.03823121 </i>
   </energy>
  </scstep>
  <scstep>
   <time name="dav">    0.08    0.08</time>
   <time name="total">    0.14    0.14</time>
   <energy>
    <i name="e_fr_energy">     -8.02394189 </i>
    <i name="e_wo_entrp">     -8.02394189 </i>
    <i name="e_0_energy">     -8.02394189 </i>
   </energy>
  </scstep>
  <scstep>
   <time name="dav">    0.09    0.09</time>
   <time name="total">    0.15    0.15</time>
   <energy>
    <i name="e_fr_energy">     -8.02409693 </i>
    <i name="e_wo_entrp">     -8.02409693 </i>
    <i name="e_0_energy">     -8.02409693 </i>
   </energy>
  </scstep>
  <scstep>
   <time name="dav">    0.10    0.10</time>
   <time name="total">    0.16    0.16</time>
   <energy>
    <i name="e_fr_energy">     -8.02417308 </i>
    <i name="e_wo_entrp">     -8.02417308 </i>
    <i name="e_0_energy">     -8.02417308 </i>
   </energy>
  </scstep>
  <scstep>
   <time name="dav">    0.08    0.08</time>
   <time name="total">    0.14    0.14</time>
   <energy>
    <i name="e_fr_energy">     -8.02417839 </i>
    <i name="e_wo_entrp">     -8.02417839 </i>
    <i name="e_0_energy">     -8.02417839 </i>
   </energy>
  </scstep>
  <scstep>
   <time name="dav">    0.09    0.09</time>
   <time name="total">    0.15    0.15</time>
   <energy>
    <i name="e_fr_energy">     -8.02417839 </i>
    <i name="e_wo_entrp">     -8.02417839 </i>
    <i name="e_0_energy">     -8.02417839 </i>
   </energy>
  </scstep>
  <scstep>
   <time name="dav">    0.09    0.09</time>
   <time name="total">    0.15    0.15</time>
   <energy>
    <i name="e_fr_energy">     -8.02417883 </i>
    <i name="e_wo_entrp">     -8.02417883 </i>
    <i name="e_0_energy">     -8.02417883 </i>
   </energy>
  </scstep>
  <scstep>
   <time name="dav">    0.06    0.06</time>
   <time name="total">    0.11    0.11</time>
   <energy>
    <i name="alphaZ">     29.94119198 </i>
    <i name="ewald">  -1242.55322342 </i>
    <i name="hartreedc">   -337.57064326 </i>
    <i name="XCdc">     81.11698541 </i>
    <i name="pawpsdc">   2222.84827495 </i>
    <i name="pawaedc">  -2222.15536599 </i>
    <i name="eentropy">      0.00000000 </i>
    <i name="bandstr">   -174.57168269 </i>
    <i name="atom">   1634.92028419 </i>
    <i name="e_fr_energy">     -8.02417883 </i>
    <i name="e_wo_entrp">     -8.02417883 </i>
    <i name="e_0_energy">     -8.02417883 </i>
   </energy>
  </scstep>
  <structure>
   <crystal>
    <varray name="basis" >
     <v>       3.26420559      -2.05747175       0.00000000 </v>
     <v>       3.26420559       2.05747175       0.00000000 </v>
     <v>       0.00000000       0.00000000       8.40239547 </v>
    </varray>
    <i name="volume">    112.86115751 </i>
    <varray name="rec_basis" >
     <v>       0.15317663      -0.24301670       0.00000000 </v>
     <v>       0.15317663       0.24301670      -0.00000000 </v>
     <v>      -0.00000000       0.00000000       0.11901368 </v>
    </varray>
   </crystal>
   <varray name="positions" >
    <v>       0.88547531       0.11452469       0.60475299 </v>
    <v>       0.11452469       0.88547531       0.39524701 </v>
    <v>       0.61452469       0.38547531       0.10475299 </v>
    <v>       0.38547531       0.61452469       0.89524701 </v>
   </varray>
  </structure>
  <varray name="forces" >
   <v>       0.00000000       0.04697647       0.14876032 </v>
   <v>       0.00000000      -0.04697647      -0.14876032 </v>
   <v>       0.00000000      -0.04697647       0.14876032 </v>
   <v>       0.00000000       0.04697647      -0.14876032 </v>
  </varray>
  <varray name="stress" >
   <v>       1.17487449       0.00000000       0.00000000 </v>
   <v>       0.00000000      -4.19495262       0.00000000 </v>
   <v>       0.00000000       0.00000000      -5.95729019 </v>
  </varray>
  <energy>
   <i name="e_fr_energy">     -8.02417883 </i>
   <i name="e_wo_entrp">     -8.02417883 </i>
   <i name="e_0_energy">     -8.02417883 </i>
  </energy>
  <time name="totalsc">    2.53    2.57</time>
 </calculation>
 <calculation>
  <scstep>
   <time name="dav">    0.08    0.08</time>
   <time name="total">    0.14    0.14</time>
   <energy>
    <i name="alphaZ">     30.17102156 </i>
    <i name="ewald">  -1247.50690330 </i>
    <i name="hartreedc">   -336.53589065 </i>
    <i name="XCdc">     81.25052908 </i>
    <i name="pawpsdc">   2222.80477353 </i>
    <i name="pawaedc">  -2222.11190118 </i>
    <i name="eentropy">      0.00000000 </i>
    <i name="bandstr">   -171.03147417 </i>
    <i name="atom">   1634.92028419 </i>
    <i name="e_fr_energy">     -8.03956092 </i>
    <i name="e_wo_entrp">     -8.03956092 </i>
    <i name="e_0_energy">     -8.03956092 </i>
   </energy>
  </scstep>
  <scstep>
   <time name="dav">    0.08    0.08</time>
   <time name="total">    0.14    0.14</time>
   <energy>
    <i name="e_fr_energy">     -8.03376203 </i>
    <i name="e_wo_entrp">     -8.03376203 </i>
    <i name="e_0_energy">     -8.03376203 </i>
   </energy>
  </scstep>
  <scstep>
   <time name="dav">    0.08    0.08</time>
   <time name="total">    0.14    0.14</time>
   <energy>
    <i name="e_fr_energy">     -8.03188237 </i>
    <i name="e_wo_entrp">     -8.03188237 </i>
    <i name="e_0_energy">     -8.03188237 </i>
   </energy>
  </scstep>
  <scstep>
   <time name="dav">    0.09    0.09</time>
   <time name="total">    0.15    0.15</time>
   <energy>
    <i name="e_fr_energy">     -8.03169972 </i>
    <i name="e_wo_entrp">     -8.03169972 </i>
    <i name="e_0_energy">     -8.03169972 </i>
   </energy>
  </scstep>
  <scstep>
   <time name="dav">    0.09    0.09</time>
   <time name="total">    0.15    0.15</time>
   <energy>
    <i name="e_fr_energy">     -8.03168617 </i>
    <i name="e_wo_entrp">     -8.03168617 </i>
    <i name="e_0_energy">     -8.03168617 </i>
   </energy>
  </scstep>
  <scstep>
   <time name="dav">    0.08    0.08</time>
   <time name="total">    0.14    0.14</time>
   <energy>
    <i name="e_fr_energy">     -8.03168553 </i>
    <i name="e_wo_entrp">     -8.03168553 </i>
    <i name="e_0_energy">     -8.03168553 </i>
   </energy>
  </scstep>
  <scstep>
   <time name="dav">    0.09    0.09</time>
   <time name="total">    0.15    0.15</time>
   <energy>
    <i name="e_fr_energy">     -8.03168559 </i>
    <i name="e_wo_entrp">     -8.03168559 </i>
    <i name="e_0_energy">     -8.03168559 </i>
   </energy>
  </scstep>
  <scstep>
   <time name="dav">    0.06    0.06</time>
   <time name="total">    0.11    0.11</time>
   <energy>
    <i name="alphaZ">     30.17102156 </i>
    <i name="ewald">  -1247.50690330 </i>
    <i name="hartreedc">   -334.35834401 </i>
    <i name="XCdc">     81.10947231 </i>
    <i name="pawpsdc">   2215.99613147 </i>
    <i name="pawaedc">  -2215.29300674 </i>
    <i name="eentropy">      0.00000000 </i>
    <i name="bandstr">   -173.07034114 </i>
    <i name="atom">   1634.92028419 </i>
    <i name="e_fr_energy">     -8.03168566 </i>
    <i name="e_wo_entrp">     -8.03168566 </i>
    <i name="e_0_energy">     -8.03168566 </i>
   </energy>
  </scstep>
  <structure>
   <crystal>
    <varray name="basis" >
     <v>       3.26746376      -2.05013902       0.00000000 </v>
     <v>       3.26746376       2.05013902       0.00000000 </v>
     <v>       0.00000000       0.00000000       8.35986923 </v>
    </varray>
    <i name="volume">    112.00143080 </i>
    <varray name="rec_basis" >
     <v>       0.15302389      -0.24388590       0.00000000 </v>
     <v>       0.15302389       0.24388590      -0.00000000 </v>
     <v>      -0.00000000       0.00000000       0.11961910 </v>
    </varray>
   </crystal>
   <varray name="positions" >
    <v>       0.88492457       0.11507543       0.60560710 </v>
    <v>       0.11507543       0.88492457       0.39439290 </v>
    <v>       0.61507543       0.38492457       0.10560710 </v>
    <v>       0.38492457       0.61507543       0.89439290 </v>
   </varray>
  </structure>
  <varray name="forces" >
   <v>       0.00000000       0.01969639       0.08782918 </v>
   <v>       0.00000000      -0.01969639      -0.08782918 </v>
   <v>       0.00000000      -0.01969639       0.08782918 </v>
   <v>       0.00000000       0.01969639      -0.08782918 </v>
  </varray>
  <varray name="stress" >
   <v>       1.30575602       0.00000000       0.00000000 </v>
   <v>       0.00000000      -5.06031538      -0.00000000 </v>
   <v>       0.00000000       0.00000000      -8.44825673 </v>
  </varray>
  <energy>
   <i name="e_fr_energy">     -8.03168566 </i>
   <i name="e_wo_entrp">     -8.03168566 </i>
   <i name="e_0_energy">     -8.03168566 </i>
  </energy>
  <time name="totalsc">    1.49    1.49</time>
 </calculation>
 <calculation>
  <scstep>
   <time name="dav">    0.08    0.08</time>
   <time name="total">    0.14    0.14</time>
   <energy>
    <i name="alphaZ">     30.87854154 </i>
    <i name="ewald">  -1261.94130534 </i>
    <i name="hartreedc">   -331.69491497 </i>
    <i name="XCdc">     81.52511823 </i>
    <i name="pawpsdc">   2216.09152031 </i>
    <i name="pawaedc">  -2215.38829008 </i>
    <i name="eentropy">      0.00000000 </i>
    <i name="bandstr">   -162.51211106 </i>
    <i name="atom">   1634.92028419 </i>
    <i name="e_fr_energy">     -8.12115719 </i>
    <i name="e_wo_entrp">     -8.12115719 </i>
    <i name="e_0_energy">     -8.12115719 </i>
   </energy>
  </scstep>
  <scstep>
   <time name="dav">    0.08    0.08</time>
   <time name="total">    0.14    0.14</time>
   <energy>
    <i name="e_fr_energy">     -8.06745457 </i>
    <i name="e_wo_entrp">     -8.06745457 </i>
    <i name="e_0_energy">     -8.06745457 </i>
   </energy>
  </scstep>
  <scstep>
   <time name="dav">    0.08    0.08</time>
   <time name="total">    0.14    0.14</time>
   <energy>
    <i name="e_fr_energy">     -8.05083633 </i>
    <i name="e_wo_entrp">     -8.05083633 </i>
    <i name="e_0_energy">     -8.05083633 </i>
   </energy>
  </scstep>
  <scstep>
   <time name="dav">    0.09    0.09</time>
   <time name="total">    0.15    0.15</time>
   <energy>
    <i name="e_fr_energy">     -8.04900696 </i>
    <i name="e_wo_entrp">     -8.04900696 </i>
    <i name="e_0_energy">     -8.04900696 </i>
   </energy>
  </scstep>
  <scstep>
   <time name="dav">    0.09    0.09</time>
   <time name="total">    0.14    0.15</time>
   <energy>
    <i name="e_fr_energy">     -8.04880314 </i>
    <i name="e_wo_entrp">     -8.04880314 </i>
    <i name="e_0_energy">     -8.04880314 </i>
   </energy>
  </scstep>
  <scstep>
   <time name="dav">    0.08    0.08</time>
   <time name="total">    0.14    0.14</time>
   <energy>
    <i name="e_fr_energy">     -8.04879934 </i>
    <i name="e_wo_entrp">     -8.04879934 </i>
    <i name="e_0_energy">     -8.04879934 </i>
   </energy>
  </scstep>
  <scstep>
   <time name="dav">    0.09    0.09</time>
   <time name="total">    0.15    0.15</time>
   <energy>
    <i name="e_fr_energy">     -8.04880056 </i>
    <i name="e_wo_entrp">     -8.04880056 </i>
    <i name="e_0_energy">     -8.04880056 </i>
   </energy>
  </scstep>
  <scstep>
   <time name="dav">    0.08    0.08</time>
   <time name="total">    0.14    0.14</time>
   <energy>
    <i name="e_fr_energy">     -8.04880087 </i>
    <i name="e_wo_entrp">     -8.04880087 </i>
    <i name="e_0_energy">     -8.04880087 </i>
   </energy>
  </scstep>
  <scstep>
   <time name="dav">    0.07    0.07</time>
   <time name="total">    0.12    0.12</time>
   <energy>
    <i name="alphaZ">     30.87854154 </i>
    <i name="ewald">  -1261.94130534 </i>
    <i name="hartreedc">   -325.25926808 </i>
    <i name="XCdc">     81.10160098 </i>
    <i name="pawpsdc">   2202.42967287 </i>
    <i name="pawaedc">  -2201.69678289 </i>
    <i name="eentropy">      0.00000000 </i>
    <i name="bandstr">   -168.48154419 </i>
    <i name="atom">   1634.92028419 </i>
    <i name="e_fr_energy">     -8.04880092 </i>
    <i name="e_wo_entrp">     -8.04880092 </i>
    <i name="e_0_energy">     -8.04880092 </i>
   </energy>
  </scstep>
  <structure>
   <crystal>
    <varray name="basis" >
     <v>       3.27723828      -2.02814081       0.00000000 </v>
     <v>       3.27723828       2.02814081       0.00000000 </v>
     <v>       0.00000000       0.00000000       8.23229051 </v>
    </varray>
    <i name="volume">    109.43514218 </i>
    <varray name="rec_basis" >
     <v>       0.15256748      -0.24653121       0.00000000 </v>
     <v>       0.15256748       0.24653121      -0.00000000 </v>
     <v>      -0.00000000       0.00000000       0.12147288 </v>
    </varray>
   </crystal>
   <varray name="positions" >
    <v>       0.88326644       0.11673356       0.60818248 </v>
    <v>       0.11673356       0.88326644       0.39181752 </v>
    <v>       0.61673356       0.38326644       0.10818248 </v>
    <v>       0.38326644       0.61673356       0.89181752 </v>
   </varray>
  </structure>
  <varray name="forces" >
   <v>       0.00000000      -0.04212268      -0.07175354 </v>
   <v>       0.00000000       0.04212268       0.07175354 </v>
   <v>       0.00000000       0.04212268      -0.07175354 </v>
   <v>       0.00000000      -0.04212268       0.07175354 </v>
  </varray>
  <varray name="stress" >
   <v>       1.64097692       0.00000000       0.00000000 </v>
   <v>       0.00000000      -6.98131160      -0.00000000 </v>
   <v>       0.00000000       0.00000000     -13.87695613 </v>
  </varray>
  <energy>
   <i name="e_fr_energy">     -8.04880092 </i>
   <i name="e_wo_entrp">     -8.04880092 </i>
   <i name="e_0_energy">     -8.04880092 </i>
  </energy>
  <time name="totalsc">    1.64    1.65</time>
 </calculation>
 <calculation>
  <scstep>
   <time name="dav">    0.08    0.08</time>
   <time name="total">    0.14    0.14</time>
   <energy>
    <i name="alphaZ">     32.37967976 </i>
    <i name="ewald">  -1288.95366266 </i>
    <i name="hartreedc">   -321.86061899 </i>
    <i name="XCdc">     81.99978562 </i>
    <i name="pawpsdc">   2202.45539307 </i>
    <i name="pawaedc">  -2201.72249486 </i>
    <i name="eentropy">      0.00000000 </i>
    <i name="bandstr">   -147.56880359 </i>
    <i name="atom">   1634.92028419 </i>
    <i name="e_fr_energy">     -8.35043745 </i>
    <i name="e_wo_entrp">     -8.35043745 </i>
    <i name="e_0_energy">     -8.35043745 </i>
   </energy>
  </scstep>
  <scstep>
   <time name="dav">    0.08    0.08</time>
   <time name="total">    0.14    0.14</time>
   <energy>
    <i name="e_fr_energy">     -8.12869922 </i>
    <i name="e_wo_entrp">     -8.12869922 </i>
    <i name="e_0_energy">     -8.12869922 </i>
   </energy>
  </scstep>
  <scstep>
   <time name="dav">    0.08    0.08</time>
   <time name="total">    0.14    0.14</time>
   <energy>
    <i name="e_fr_energy">     -8.06297787 </i>
    <i name="e_wo_entrp">     -8.06297787 </i>
    <i name="e_0_energy">     -8.06297787 </i>
   </energy>
  </scstep>
  <scstep>
   <time name="dav">    0.09    0.09</time>
   <time name="total">    0.15    0.15</time>
   <energy>
    <i name="e_fr_energy">     -8.05482321 </i>
    <i name="e_wo_entrp">     -8.05482321 </i>
    <i name="e_0_energy">     -8.05482321 </i>
   </energy>
  </scstep>
  <scstep>
   <time name="dav">    0.09    0.09</time>
   <time name="total">    0.14    0.15</time>
   <energy>
    <i name="e_fr_energy">     -8.05387553 </i>
    <i name="e_wo_entrp">     -8.05387553 </i>
    <i name="e_0_energy">     -8.05387553 </i>
   </energy>
  </scstep>
  <scstep>
   <time name="dav">    0.09    0.09</time>
   <time name="total">    0.15    0.15</time>
   <energy>
    <i name="e_fr_energy">     -8.05387272 </i>
    <i name="e_wo_entrp">     -8.05387272 </i>
    <i name="e_0_energy">     -8.05387272 </i>
   </energy>
  </scstep>
  <scstep>
   <time name="dav">    0.09    0.09</time>
   <time name="total">    0.15    0.15</time>
   <energy>
    <i name="e_fr_energy">     -8.05387659 </i>
    <i name="e_wo_entrp">     -8.05387659 </i>
    <i name="e_0_energy">     -8.05387659 </i>
   </energy>
  </scstep>
  <scstep>
   <time name="dav">    0.08    0.08</time>
   <time name="total">    0.14    0.14</time>
   <energy>
    <i name="e_fr_energy">     -8.05387660 </i>
    <i name="e_wo_entrp">     -8.05387660 </i>
    <i name="e_0_energy">     -8.05387660 </i>
   </energy>
  </scstep>
  <scstep>
   <time name="dav">    0.09    0.09</time>
   <time name="total">    0.15    0.15</time>
   <energy>
    <i name="e_fr_energy">     -8.05387684 </i>
    <i name="e_wo_entrp">     -8.05387684 </i>
    <i name="e_0_energy">     -8.05387684 </i>
   </energy>
  </scstep>
  <scstep>
   <time name="dav">    0.06    0.06</time>
   <time name="total">    0.11    0.11</time>
   <energy>
    <i name="alphaZ">     32.37967976 </i>
    <i name="ewald">  -1288.95366266 </i>
    <i name="hartreedc">   -309.47146659 </i>
    <i name="XCdc">     81.15693342 </i>
    <i name="pawpsdc">   2204.97120539 </i>
    <i name="pawaedc">  -2204.18526858 </i>
    <i name="eentropy">      0.00000000 </i>
    <i name="bandstr">   -158.87158182 </i>
    <i name="atom">   1634.92028419 </i>
    <i name="e_fr_energy">     -8.05387689 </i>
    <i name="e_wo_entrp">     -8.05387689 </i>
    <i name="e_0_energy">     -8.05387689 </i>
   </energy>
  </scstep>
  <structure>
   <crystal>
    <varray name="basis" >
     <v>       3.29678732      -1.98414439       0.00000000 </v>
     <v>       3.29678732       1.98414439       0.00000000 </v>
     <v>       0.00000000       0.00000000       7.97713306 </v>
    </varray>
    <i name="volume">    104.36167402 </i>
    <varray name="rec_basis" >
     <v>       0.15166280      -0.25199779       0.00000000 </v>
     <v>       0.15166280       0.25199779      -0.00000000 </v>
     <v>      -0.00000000       0.00000000       0.12535832 </v>
    </varray>
   </crystal>
   <varray name="positions" >
    <v>       0.87991420       0.12008580       0.61341304 </v>
    <v>       0.12008580       0.87991420       0.38658696 </v>
    <v>       0.62008580       0.37991420       0.11341304 </v>
    <v>       0.37991420       0.62008580       0.88658696 </v>
   </varray>
  </structure>
  <varray name="forces" >
   <v>       0.00000000      -0.08576257      -0.33050113 </v>
   <v>       0.00000000       0.08576257       0.33050113 </v>
   <v>       0.00000000       0.08576257      -0.33050113 </v>
   <v>       0.00000000      -0.08576257       0.33050113 </v>
  </varray>
  <varray name="stress" >
   <v>       2.27308488       0.00000000       0.00000000 </v>
   <v>       0.00000000      -6.54305223       0.00000000 </v>
   <v>       0.00000000       0.00000000     -14.43258882 </v>
  </varray>
  <energy>
   <i name="e_fr_energy">     -8.05387689 </i>
   <i name="e_wo_entrp">     -8.05387689 </i>
   <i name="e_0_energy">     -8.05387689 </i>
  </energy>
  <time name="totalsc">    1.78    1.79</time>
 </calculation>
 <calculation>
  <scstep>
   <time name="dav">    0.08    0.08</time>
   <time name="total">    0.14    0.14</time>
   <energy>
    <i name="alphaZ">     31.64489720 </i>
    <i name="ewald">  -1276.13039375 </i>
    <i name="hartreedc">   -310.86074557 </i>
    <i name="XCdc">     80.72208032 </i>
    <i name="pawpsdc">   2204.93178937 </i>
    <i name="pawaedc">  -2204.14589964 </i>
    <i name="eentropy">      0.00000000 </i>
    <i name="bandstr">   -169.20534382 </i>
    <i name="atom">   1634.92028419 </i>
    <i name="e_fr_energy">     -8.12333168 </i>
    <i name="e_wo_entrp">     -8.12333168 </i>
    <i name="e_0_energy">     -8.12333168 </i>
   </energy>
  </scstep>
  <scstep>
   <time name="dav">    0.09    0.09</time>
   <time name="total">    0.15    0.15</time>
   <energy>
    <i name="e_fr_energy">     -8.07695402 </i>
    <i name="e_wo_entrp">     -8.07695402 </i>
    <i name="e_0_energy">     -8.07695402 </i>
   </energy>
  </scstep>
  <scstep>
   <time name="dav">    0.08    0.08</time>
   <time name="total">    0.14    0.14</time>
   <energy>
    <i name="e_fr_energy">     -8.05911782 </i>
    <i name="e_wo_entrp">     -8.05911782 </i>
    <i name="e_0_energy">     -8.05911782 </i>
   </energy>
  </scstep>
  <scstep>
   <time name="dav">    0.09    0.09</time>
   <time name="total">    0.15    0.15</time>
   <energy>
    <i name="e_fr_energy">     -8.05791263 </i>
    <i name="e_wo_entrp">     -8.05791263 </i>
    <i name="e_0_energy">     -8.05791263 </i>
   </energy>
  </scstep>
  <scstep>
   <time name="dav">    0.09    0.09</time>
   <time name="total">    0.15    0.15</time>
   <energy>
    <i name="e_fr_energy">     -8.05759342 </i>
    <i name="e_wo_entrp">     -8.05759342 </i>
    <i name="e_0_energy">     -8.05759342 </i>
   </energy>
  </scstep>
  <scstep>
   <time name="dav">    0.08    0.08</time>
   <time name="total">    0.14    0.14</time>
   <energy>
    <i name="e_fr_energy">     -8.05758486 </i>
    <i name="e_wo_entrp">     -8.05758486 </i>
    <i name="e_0_energy">     -8.05758486 </i>
   </energy>
  </scstep>
  <scstep>
   <time name="dav">    0.09    0.09</time>
   <time name="total">    0.15    0.15</time>
   <energy>
    <i name="e_fr_energy">     -8.05758714 </i>
    <i name="e_wo_entrp">     -8.05758714 </i>
    <i name="e_0_energy">     -8.05758714 </i>
   </energy>
  </scstep>
  <scstep>
   <time name="dav">    0.08    0.08</time>
   <time name="total">    0.14    0.14</time>
   <energy>
    <i name="e_fr_energy">     -8.05758771 </i>
    <i name="e_wo_entrp">     -8.05758771 </i>
    <i name="e_0_energy">     -8.05758771 </i>
   </energy>
  </scstep>
  <scstep>
   <time name="dav">    0.06    0.06</time>
   <time name="total">    0.12    0.12</time>
   <energy>
    <i name="e_fr_energy">     -8.05758786 </i>
    <i name="e_wo_entrp">     -8.05758786 </i>
    <i name="e_0_energy">     -8.05758786 </i>
   </energy>
  </scstep>
  <scstep>
   <time name="dav">    0.06    0.06</time>
   <time name="total">    0.10    0.10</time>
   <energy>
    <i name="alphaZ">     31.64489720 </i>
    <i name="ewald">  -1276.13039375 </i>
    <i name="hartreedc">   -316.79019725 </i>
    <i name="XCdc">     81.12323631 </i>
    <i name="pawpsdc">   2200.91521692 </i>
    <i name="pawaedc">  -2200.15516075 </i>
    <i name="eentropy">      0.00000000 </i>
    <i name="bandstr">   -163.58547075 </i>
    <i name="atom">   1634.92028419 </i>
    <i name="e_fr_energy">     -8.05758786 </i>
    <i name="e_wo_entrp">     -8.05758786 </i>
    <i name="e_0_energy">     -8.05758786 </i>
   </energy>
  </scstep>
  <structure>
   <crystal>
    <varray name="basis" >
     <v>       3.28741179      -2.00524464       0.00000000 </v>
     <v>       3.28741179       2.00524464       0.00000000 </v>
     <v>       0.00000000       0.00000000       8.09950407 </v>
    </varray>
    <i name="volume">    106.78491266 </i>
    <varray name="rec_basis" >
     <v>       0.15209534      -0.24934613       0.00000000 </v>
     <v>       0.15209534       0.24934613      -0.00000000 </v>
     <v>      -0.00000000       0.00000000       0.12346435 </v>
    </varray>
   </crystal>
   <varray name="positions" >
    <v>       0.88155755       0.11844245       0.61082428 </v>
    <v>       0.11844245       0.88155755       0.38917572 </v>
    <v>       0.61844245       0.38155755       0.11082428 </v>
    <v>       0.38155755       0.61844245       0.88917572 </v>
   </varray>
  </structure>
  <varray name="forces" >
   <v>       0.00000000      -0.07169412      -0.20104940 </v>
   <v>       0.00000000       0.07169412       0.20104940 </v>
   <v>       0.00000000       0.07169412      -0.20104940 </v>
   <v>       0.00000000      -0.07169412       0.20104940 </v>
  </varray>
  <varray name="stress" >
   <v>       1.94237719       0.00000000       0.00000000 </v>
   <v>       0.00000000      -7.37298865       0.00000000 </v>
   <v>       0.00000000      -0.00000000     -15.30774076 </v>
  </varray>
  <energy>
   <i name="e_fr_energy">     -8.05758786 </i>
   <i name="e_wo_entrp">     -8.05758786 </i>
   <i name="e_0_energy">     -8.05758786 </i>
  </energy>
  <time name="totalsc">    1.75    1.75</time>
 </calculation>
 <calculation>
  <scstep>
   <time name="dav">    0.08    0.08</time>
   <time name="total">    0.14    0.14</time>
   <energy>
    <i name="alphaZ">     31.86840348 </i>
    <i name="ewald">  -1278.62416254 </i>
    <i name="hartreedc">   -317.45133906 </i>
    <i name="XCdc">     81.29209149 </i>
    <i name="pawpsdc">   2200.92273482 </i>
    <i name="pawaedc">  -2200.16267786 </i>
    <i name="eentropy">      0.00000000 </i>
    <i name="bandstr">   -160.83386251 </i>
    <i name="atom">   1634.92028419 </i>
    <i name="e_fr_energy">     -8.06852799 </i>
    <i name="e_wo_entrp">     -8.06852799 </i>
    <i name="e_0_energy">     -8.06852799 </i>
   </energy>
  </scstep>
  <scstep>
   <time name="dav">    0.08    0.08</time>
   <time name="total">    0.14    0.14</time>
   <energy>
    <i name="e_fr_energy">     -8.06303055 </i>
    <i name="e_wo_entrp">     -8.06303055 </i>
    <i name="e_0_energy">     -8.06303055 </i>
   </energy>
  </scstep>
  <scstep>
   <time name="dav">    0.08    0.08</time>
   <time name="total">    0.14    0.14</time>
   <energy>
    <i name="e_fr_energy">     -8.06147265 </i>
    <i name="e_wo_entrp">     -8.06147265 </i>
    <i name="e_0_energy">     -8.06147265 </i>
   </energy>
  </scstep>
  <scstep>
   <time name="dav">    0.09    0.09</time>
   <time name="total">    0.15    0.15</time>
   <energy>
    <i name="e_fr_energy">     -8.06142470 </i>
    <i name="e_wo_entrp">     -8.06142470 </i>
    <i name="e_0_energy">     -8.06142470 </i>
   </energy>
  </scstep>
  <scstep>
   <time name="dav">    0.08    0.08</time>
   <time name="total">    0.14    0.14</time>
   <energy>
    <i name="e_fr_energy">     -8.06140250 </i>
    <i name="e_wo_entrp">     -8.06140250 </i>
    <i name="e_0_energy">     -8.06140250 </i>
   </energy>
  </scstep>
  <scstep>
   <time name="dav">    0.09    0.09</time>
   <time name="total">    0.15    0.15</time>
   <energy>
    <i name="e_fr_energy">     -8.06140474 </i>
    <i name="e_wo_entrp">     -8.06140474 </i>
    <i name="e_0_energy">     -8.06140474 </i>
   </energy>
  </scstep>
  <scstep>
   <time name="dav">    0.08    0.08</time>
   <time name="total">    0.14    0.14</time>
   <energy>
    <i name="e_fr_energy">     -8.06140436 </i>
    <i name="e_wo_entrp">     -8.06140436 </i>
    <i name="e_0_energy">     -8.06140436 </i>
   </energy>
  </scstep>
  <scstep>
   <time name="dav">    0.06    0.06</time>
   <time name="total">    0.11    0.11</time>
   <energy>
    <i name="alphaZ">     31.86840348 </i>
    <i name="ewald">  -1278.62416254 </i>
    <i name="hartreedc">   -315.75571435 </i>
    <i name="XCdc">     81.17614358 </i>
    <i name="pawpsdc">   2221.78489747 </i>
    <i name="pawaedc">  -2221.02953835 </i>
    <i name="eentropy">      0.00000000 </i>
    <i name="bandstr">   -162.40171783 </i>
    <i name="atom">   1634.92028419 </i>
    <i name="e_fr_energy">     -8.06140435 </i>
    <i name="e_wo_entrp">     -8.06140435 </i>
    <i name="e_0_energy">     -8.06140435 </i>
   </energy>
  </scstep>
  <structure>
   <crystal>
    <varray name="basis" >
     <v>       3.29007034      -1.99932911       0.00000000 </v>
     <v>       3.29007034       1.99932911       0.00000000 </v>
     <v>       0.00000000       0.00000000       8.05997713 </v>
    </varray>
    <i name="volume">    106.03598596 </i>
    <varray name="rec_basis" >
     <v>       0.15197243      -0.25008389       0.00000000 </v>
     <v>       0.15197243       0.25008389      -0.00000000 </v>
     <v>      -0.00000000       0.00000000       0.12406983 </v>
    </varray>
   </crystal>
   <varray name="positions" >
    <v>       0.88140996       0.11859004       0.61108318 </v>
    <v>       0.11859004       0.88140996       0.38891682 </v>
    <v>       0.61859004       0.38140996       0.11108318 </v>
    <v>       0.38140996       0.61859004       0.88891682 </v>
   </varray>
  </structure>
  <varray name="forces" >
   <v>       0.00000000      -0.02569884      -0.13688635 </v>
   <v>       0.00000000       0.02569884       0.13688635 </v>
   <v>       0.00000000       0.02569884      -0.13688635 </v>
   <v>       0.00000000      -0.02569884       0.13688635 </v>
  </varray>
  <varray name="stress" >
   <v>       1.95158128       0.00000000       0.00000000 </v>
   <v>       0.00000000      -5.28749749       0.00000000 </v>
   <v>       0.00000000      -0.00000000      -9.18852630 </v>
  </varray>
  <energy>
   <i name="e_fr_energy">     -8.06140435 </i>
   <i name="e_wo_entrp">     -8.06140435 </i>
   <i name="e_0_energy">     -8.06140435 </i>
  </energy>
  <time name="totalsc">    1.48    1.48</time>
 </calculation>
 <calculation>
  <scstep>
   <time name="dav">    0.08    0.08</time>
   <time name="total">    0.14    0.14</time>
   <energy>
    <i name="alphaZ">     32.16656560 </i>
    <i name="ewald">  -1281.89725065 </i>
    <i name="hartreedc">   -316.64937750 </i>
    <i name="XCdc">     81.39989816 </i>
    <i name="pawpsdc">   2221.78415608 </i>
    <i name="pawaedc">  -2221.02876357 </i>
    <i name="eentropy">      0.00000000 </i>
    <i name="bandstr">   -158.77153279 </i>
    <i name="atom">   1634.92028419 </i>
    <i name="e_fr_energy">     -8.07602049 </i>
    <i name="e_wo_entrp">     -8.07602049 </i>
    <i name="e_0_energy">     -8.07602049 </i>
   </energy>
  </scstep>
  <scstep>
   <time name="dav">    0.08    0.08</time>
   <time name="total">    0.14    0.14</time>
   <energy>
    <i name="e_fr_energy">     -8.06647652 </i>
    <i name="e_wo_entrp">     -8.06647652 </i>
    <i name="e_0_energy">     -8.06647652 </i>
   </energy>
  </scstep>
  <scstep>
   <time name="dav">    0.08    0.08</time>
   <time name="total">    0.14    0.14</time>
   <energy>
    <i name="e_fr_energy">     -8.06376095 </i>
    <i name="e_wo_entrp">     -8.06376095 </i>
    <i name="e_0_energy">     -8.06376095 </i>
   </energy>
  </scstep>
  <scstep>
   <time name="dav">    0.09    0.09</time>
   <time name="total">    0.15    0.15</time>
   <energy>
    <i name="e_fr_energy">     -8.06367161 </i>
    <i name="e_wo_entrp">     -8.06367161 </i>
    <i name="e_0_energy">     -8.06367161 </i>
   </energy>
  </scstep>
  <scstep>
   <time name="dav">    0.08    0.08</time>
   <time name="total">    0.14    0.14</time>
   <energy>
    <i name="e_fr_energy">     -8.06362711 </i>
    <i name="e_wo_entrp">     -8.06362711 </i>
    <i name="e_0_energy">     -8.06362711 </i>
   </energy>
  </scstep>
  <scstep>
   <time name="dav">    0.09    0.09</time>
   <time name="total">    0.15    0.15</time>
   <energy>
    <i name="e_fr_energy">     -8.06363039 </i>
    <i name="e_wo_entrp">     -8.06363039 </i>
    <i name="e_0_energy">     -8.06363039 </i>
   </energy>
  </scstep>
  <scstep>
   <time name="dav">    0.08    0.08</time>
   <time name="total">    0.14    0.14</time>
   <energy>
    <i name="e_fr_energy">     -8.06362987 </i>
    <i name="e_wo_entrp">     -8.06362987 </i>
    <i name="e_0_energy">     -8.06362987 </i>
   </energy>
  </scstep>
  <scstep>
   <time name="dav">    0.07    0.07</time>
   <time name="total">    0.12    0.12</time>
   <energy>
    <i name="alphaZ">     32.16656560 </i>
    <i name="ewald">  -1281.89725065 </i>
    <i name="hartreedc">   -314.42878534 </i>
    <i name="XCdc">     81.24768827 </i>
    <i name="pawpsdc">   2250.20983663 </i>
    <i name="pawaedc">  -2249.46085271 </i>
    <i name="eentropy">      0.00000000 </i>
    <i name="bandstr">   -160.82111589 </i>
    <i name="atom">   1634.92028419 </i>
    <i name="e_fr_energy">     -8.06362990 </i>
    <i name="e_wo_entrp">     -8.06362990 </i>
    <i name="e_0_energy">     -8.06362990 </i>
   </energy>
  </scstep>
  <structure>
   <crystal>
    <varray name="basis" >
     <v>       3.29356875      -1.99154483       0.00000000 </v>
     <v>       3.29356875       1.99154483       0.00000000 </v>
     <v>       0.00000000       0.00000000       8.00796335 </v>
    </varray>
    <i name="volume">    105.05310471 </i>
    <varray name="rec_basis" >
     <v>       0.15181101      -0.25106138       0.00000000 </v>
     <v>       0.15181101       0.25106138      -0.00000000 </v>
     <v>      -0.00000000       0.00000000       0.12487570 </v>
    </varray>
   </crystal>
   <varray name="positions" >
    <v>       0.88121519       0.11878481       0.61142555 </v>
    <v>       0.11878481       0.88121519       0.38857445 </v>
    <v>       0.61878481       0.38121519       0.11142555 </v>
    <v>       0.38121519       0.61878481       0.88857445 </v>
   </varray>
  </structure>
  <varray name="forces" >
   <v>       0.00000000       0.03698707      -0.05148723 </v>
   <v>       0.00000000      -0.03698707       0.05148723 </v>
   <v>       0.00000000      -0.03698707      -0.05148723 </v>
   <v>       0.00000000       0.03698707       0.05148723 </v>
  </varray>
  <varray name="stress" >
   <v>       1.96616005       0.00000000       0.00000000 </v>
   <v>       0.00000000      -2.32322888       0.00000000 </v>
   <v>       0.00000000       0.00000000      -0.68201821 </v>
  </varray>
  <energy>
   <i name="e_fr_energy">     -8.06362990 </i>
   <i name="e_wo_entrp">     -8.06362990 </i>
   <i name="e_0_energy">     -8.06362990 </i>
  </energy>
  <time name="totalsc">    1.49    1.50</time>
 </calculation>
 <calculation>
  <scstep>
   <time name="dav">    0.08    0.08</time>
   <time name="total">    0.14    0.14</time>
   <energy>
    <i name="alphaZ">     32.21869723 </i>
    <i name="ewald">  -1282.46378630 </i>
    <i name="hartreedc">   -314.58643526 </i>
    <i name="XCdc">     81.28659414 </i>
    <i name="pawpsdc">   2250.19656427 </i>
    <i name="pawaedc">  -2249.44753563 </i>
    <i name="eentropy">      0.00000000 </i>
    <i name="bandstr">   -160.18843305 </i>
    <i name="atom">   1634.92028419 </i>
    <i name="e_fr_energy">     -8.06405041 </i>
    <i name="e_wo_entrp">     -8.06405041 </i>
    <i name="e_0_energy">     -8.06405041 </i>
   </energy>
  </scstep>
  <scstep>
   <time name="dav">    0.08    0.08</time>
   <time name="total">    0.14    0.14</time>
   <energy>
    <i name="e_fr_energy">     -8.06376026 </i>
    <i name="e_wo_entrp">     -8.06376026 </i>
    <i name="e_0_energy">     -8.06376026 </i>
   </energy>
  </scstep>
  <scstep>
   <time name="dav">    0.08    0.08</time>
   <time name="total">    0.14    0.14</time>
   <energy>
    <i name="e_fr_energy">     -8.06367773 </i>
    <i name="e_wo_entrp">     -8.06367773 </i>
    <i name="e_0_energy">     -8.06367773 </i>
   </energy>
  </scstep>
  <scstep>
   <time name="dav">    0.09    0.09</time>
   <time name="total">    0.15    0.15</time>
   <energy>
    <i name="e_fr_energy">     -8.06367582 </i>
    <i name="e_wo_entrp">     -8.06367582 </i>
    <i name="e_0_energy">     -8.06367582 </i>
   </energy>
  </scstep>
  <scstep>
   <time name="dav">    0.08    0.08</time>
   <time name="total">    0.14    0.14</time>
   <energy>
    <i name="e_fr_energy">     -8.06367714 </i>
    <i name="e_wo_entrp">     -8.06367714 </i>
    <i name="e_0_energy">     -8.06367714 </i>
   </energy>
  </scstep>
  <scstep>
   <time name="dav">    0.07    0.07</time>
   <time name="total">    0.13    0.13</time>
   <energy>
    <i name="e_fr_energy">     -8.06367750 </i>
    <i name="e_wo_entrp">     -8.06367750 </i>
    <i name="e_0_energy">     -8.06367750 </i>
   </energy>
  </scstep>
  <scstep>
   <time name="dav">    0.06    0.06</time>
   <time name="total">    0.10    0.10</time>
   <energy>
    <i name="alphaZ">     32.21869723 </i>
    <i name="ewald">  -1282.46378630 </i>
    <i name="hartreedc">   -314.20291396 </i>
    <i name="XCdc">     81.26029684 </i>
    <i name="pawpsdc">   2255.18084717 </i>
    <i name="pawaedc">  -2254.43299784 </i>
    <i name="eentropy">      0.00000000 </i>
    <i name="bandstr">   -160.54410474 </i>
    <i name="atom">   1634.92028419 </i>
    <i name="e_fr_energy">     -8.06367741 </i>
    <i name="e_wo_entrp">     -8.06367741 </i>
    <i name="e_0_energy">     -8.06367741 </i>
   </energy>
  </scstep>
  <structure>
   <crystal>
    <varray name="basis" >
     <v>       3.29417486      -1.99019617       0.00000000 </v>
     <v>       3.29417486       1.99019617       0.00000000 </v>
     <v>       0.00000000       0.00000000       7.99895179 </v>
    </varray>
    <i name="volume">    104.88312300 </i>
    <varray name="rec_basis" >
     <v>       0.15178308      -0.25123152       0.00000000 </v>
     <v>       0.15178308       0.25123152      -0.00000000 </v>
     <v>      -0.00000000       0.00000000       0.12501638 </v>
    </varray>
   </crystal>
   <varray name="positions" >
    <v>       0.88118131       0.11881869       0.61148525 </v>
    <v>       0.11881869       0.88118131       0.38851475 </v>
    <v>       0.61881869       0.38118131       0.11148525 </v>
    <v>       0.38118131       0.61881869       0.88851475 </v>
   </varray>
  </structure>
  <varray name="forces" >
   <v>       0.00000000       0.04806522      -0.03655611 </v>
   <v>       0.00000000      -0.04806522       0.03655611 </v>
   <v>       0.00000000      -0.04806522      -0.03655611 </v>
   <v>       0.00000000       0.04806522       0.03655611 </v>
  </varray>
  <varray name="stress" >
   <v>       1.95102444       0.00000000       0.00000000 </v>
   <v>       0.00000000      -1.78307742       0.00000000 </v>
   <v>       0.00000000       0.00000000       0.84706045 </v>
  </varray>
  <energy>
   <i name="e_fr_energy">     -8.06367741 </i>
   <i name="e_wo_entrp">     -8.06367741 </i>
   <i name="e_0_energy">     -8.06367741 </i>
  </energy>
  <time name="totalsc">    1.32    1.32</time>
 </calculation>
 <calculation>
  <scstep>
   <time name="dav">    0.08    0.08</time>
   <time name="total">    0.14    0.14</time>
   <energy>
    <i name="alphaZ">     32.21438906 </i>
    <i name="ewald">  -1282.33776932 </i>
    <i name="hartreedc">   -314.22641262 </i>
    <i name="XCdc">     81.25723437 </i>
    <i name="pawpsdc">   2255.20296441 </i>
    <i name="pawaedc">  -2254.45505768 </i>
    <i name="eentropy">      0.00000000 </i>
    <i name="bandstr">   -160.63957292 </i>
    <i name="atom">   1634.92028419 </i>
    <i name="e_fr_energy">     -8.06394050 </i>
    <i name="e_wo_entrp">     -8.06394050 </i>
    <i name="e_0_energy">     -8.06394050 </i>
   </energy>
  </scstep>
  <scstep>
   <time name="dav">    0.09    0.09</time>
   <time name="total">    0.15    0.15</time>
   <energy>
    <i name="e_fr_energy">     -8.06394212 </i>
    <i name="e_wo_entrp">     -8.06394212 </i>
    <i name="e_0_energy">     -8.06394212 </i>
   </energy>
  </scstep>
  <scstep>
   <time name="dav">    0.08    0.08</time>
   <time name="total">    0.14    0.14</time>
   <energy>
    <i name="e_fr_energy">     -8.06393419 </i>
    <i name="e_wo_entrp">     -8.06393419 </i>
    <i name="e_0_energy">     -8.06393419 </i>
   </energy>
  </scstep>
  <scstep>
   <time name="dav">    0.08    0.08</time>
   <time name="total">    0.14    0.15</time>
   <energy>
    <i name="e_fr_energy">     -8.06393084 </i>
    <i name="e_wo_entrp">     -8.06393084 </i>
    <i name="e_0_energy">     -8.06393084 </i>
   </energy>
  </scstep>
  <scstep>
   <time name="dav">    0.08    0.08</time>
   <time name="total">    0.14    0.14</time>
   <energy>
    <i name="e_fr_energy">     -8.06393066 </i>
    <i name="e_wo_entrp">     -8.06393066 </i>
    <i name="e_0_energy">     -8.06393066 </i>
   </energy>
  </scstep>
  <scstep>
   <time name="dav">    0.06    0.06</time>
   <time name="total">    0.10    0.10</time>
   <energy>
    <i name="alphaZ">     32.21438906 </i>
    <i name="ewald">  -1282.33776932 </i>
    <i name="hartreedc">   -314.29174721 </i>
    <i name="XCdc">     81.26071522 </i>
    <i name="pawpsdc">   2255.44302769 </i>
    <i name="pawaedc">  -2254.69534241 </i>
    <i name="eentropy">      0.00000000 </i>
    <i name="bandstr">   -160.57748788 </i>
    <i name="atom">   1634.92028419 </i>
    <i name="e_fr_energy">     -8.06393066 </i>
    <i name="e_wo_entrp">     -8.06393066 </i>
    <i name="e_0_energy">     -8.06393066 </i>
   </energy>
  </scstep>
  <structure>
   <crystal>
    <varray name="basis" >
     <v>       3.29537462      -1.98950085       0.00000000 </v>
     <v>       3.29537462       1.98950085       0.00000000 </v>
     <v>       0.00000000       0.00000000       7.99990391 </v>
    </varray>
    <i name="volume">    104.89714945 </i>
    <varray name="rec_basis" >
     <v>       0.15172782      -0.25131932       0.00000000 </v>
     <v>       0.15172782       0.25131932      -0.00000000 </v>
     <v>      -0.00000000       0.00000000       0.12500150 </v>
    </varray>
   </crystal>
   <varray name="positions" >
    <v>       0.88104474       0.11895526       0.61143594 </v>
    <v>       0.11895526       0.88104474       0.38856406 </v>
    <v>       0.61895526       0.38104474       0.11143594 </v>
    <v>       0.38104474       0.61895526       0.88856406 </v>
   </varray>
  </structure>
  <varray name="forces" >
   <v>       0.00000000       0.04803983      -0.03366602 </v>
   <v>       0.00000000      -0.04803983       0.03366602 </v>
   <v>       0.00000000      -0.04803983      -0.03366602 </v>
   <v>       0.00000000       0.04803983       0.03366602 </v>
  </varray>
  <varray name="stress" >
   <v>       1.93774926       0.00000000       0.00000000 </v>
   <v>       0.00000000      -1.73290694       0.00000000 </v>
   <v>       0.00000000       0.00000000       0.89301881 </v>
  </varray>
  <energy>
   <i name="e_fr_energy">     -8.06393066 </i>
   <i name="e_wo_entrp">     -8.06393066 </i>
   <i name="e_0_energy">     -8.06393066 </i>
  </energy>
  <time name="totalsc">    1.20    1.20</time>
 </calculation>
 <calculation>
  <scstep>
   <time name="dav">    0.08    0.08</time>
   <time name="total">    0.14    0.14</time>
   <energy>
    <i name="alphaZ">     32.20151997 </i>
    <i name="ewald">  -1281.95916616 </i>
    <i name="hartreedc">   -314.36400440 </i>
    <i name="XCdc">     81.25162624 </i>
    <i name="pawpsdc">   2255.45147147 </i>
    <i name="pawaedc">  -2254.70378117 </i>
    <i name="eentropy">      0.00000000 </i>
    <i name="bandstr">   -160.86269168 </i>
    <i name="atom">   1634.92028419 </i>
    <i name="e_fr_energy">     -8.06474153 </i>
    <i name="e_wo_entrp">     -8.06474153 </i>
    <i name="e_0_energy">     -8.06474153 </i>
   </energy>
  </scstep>
  <scstep>
   <time name="dav">    0.09    0.09</time>
   <time name="total">    0.15    0.15</time>
   <energy>
    <i name="e_fr_energy">     -8.06475338 </i>
    <i name="e_wo_entrp">     -8.06475338 </i>
    <i name="e_0_energy">     -8.06475338 </i>
   </energy>
  </scstep>
  <scstep>
   <time name="dav">    0.08    0.08</time>
   <time name="total">    0.14    0.14</time>
   <energy>
    <i name="e_fr_energy">     -8.06468191 </i>
    <i name="e_wo_entrp">     -8.06468191 </i>
    <i name="e_0_energy">     -8.06468191 </i>
   </energy>
  </scstep>
  <scstep>
   <time name="dav">    0.08    0.08</time>
   <time name="total">    0.14    0.14</time>
   <energy>
    <i name="e_fr_energy">     -8.06465317 </i>
    <i name="e_wo_entrp">     -8.06465317 </i>
    <i name="e_0_energy">     -8.06465317 </i>
   </energy>
  </scstep>
  <scstep>
   <time name="dav">    0.08    0.08</time>
   <time name="total">    0.14    0.14</time>
   <energy>
    <i name="e_fr_energy">     -8.06465296 </i>
    <i name="e_wo_entrp">     -8.06465296 </i>
    <i name="e_0_energy">     -8.06465296 </i>
   </energy>
  </scstep>
  <scstep>
   <time name="dav">    0.08    0.08</time>
   <time name="total">    0.13    0.13</time>
   <energy>
    <i name="alphaZ">     32.20151997 </i>
    <i name="ewald">  -1281.95916616 </i>
    <i name="hartreedc">   -314.55923731 </i>
    <i name="XCdc">     81.26201968 </i>
    <i name="pawpsdc">   2256.20444290 </i>
    <i name="pawaedc">  -2255.45741038 </i>
    <i name="eentropy">      0.00000000 </i>
    <i name="bandstr">   -160.67710580 </i>
    <i name="atom">   1634.92028419 </i>
    <i name="e_fr_energy">     -8.06465291 </i>
    <i name="e_wo_entrp">     -8.06465291 </i>
    <i name="e_0_energy">     -8.06465291 </i>
   </energy>
  </scstep>
  <structure>
   <crystal>
    <varray name="basis" >
     <v>       3.29897387      -1.98741487       0.00000000 </v>
     <v>       3.29897387       1.98741487       0.00000000 </v>
     <v>       0.00000000       0.00000000       8.00276027 </v>
    </varray>
    <i name="volume">    104.93907079 </i>
    <varray name="rec_basis" >
     <v>       0.15156228      -0.25158310       0.00000000 </v>
     <v>       0.15156228       0.25158310      -0.00000000 </v>
     <v>      -0.00000000       0.00000000       0.12495689 </v>
    </varray>
   </crystal>
   <varray name="positions" >
    <v>       0.88063491       0.11936509       0.61128805 </v>
    <v>       0.11936509       0.88063491       0.38871195 </v>
    <v>       0.61936509       0.38063491       0.11128805 </v>
    <v>       0.38063491       0.61936509       0.88871195 </v>
   </varray>
  </structure>
  <varray name="forces" >
   <v>       0.00000000       0.04782639      -0.02425534 </v>
   <v>       0.00000000      -0.04782639       0.02425534 </v>
   <v>       0.00000000      -0.04782639      -0.02425534 </v>
   <v>       0.00000000       0.04782639       0.02425534 </v>
  </varray>
  <varray name="stress" >
   <v>       1.86704006       0.00000000       0.00000000 </v>
   <v>       0.00000000      -1.59055024       0.00000000 </v>
   <v>       0.00000000       0.00000000       1.03766580 </v>
  </varray>
  <energy>
   <i name="e_fr_energy">     -8.06465291 </i>
   <i name="e_wo_entrp">     -8.06465291 </i>
   <i name="e_0_energy">     -8.06465291 </i>
  </energy>
  <time name="totalsc">    1.21    1.22</time>
 </calculation>
 <calculation>
  <scstep>
   <time name="dav">    0.08    0.08</time>
   <time name="total">    0.14    0.14</time>
   <energy>
    <i name="alphaZ">     32.17603074 </i>
    <i name="ewald">  -1281.19959783 </i>
    <i name="hartreedc">   -314.70723223 </i>
    <i name="XCdc">     81.24397923 </i>
    <i name="pawpsdc">   2256.22924485 </i>
    <i name="pawaedc">  -2255.48218075 </i>
    <i name="eentropy">      0.00000000 </i>
    <i name="bandstr">   -161.24681086 </i>
    <i name="atom">   1634.92028419 </i>
    <i name="e_fr_energy">     -8.06628266 </i>
    <i name="e_wo_entrp">     -8.06628266 </i>
    <i name="e_0_energy">     -8.06628266 </i>
   </energy>
  </scstep>
  <scstep>
   <time name="dav">    0.09    0.09</time>
   <time name="total">    0.15    0.15</time>
   <energy>
    <i name="e_fr_energy">     -8.06632696 </i>
    <i name="e_wo_entrp">     -8.06632696 </i>
    <i name="e_0_energy">     -8.06632696 </i>
   </energy>
  </scstep>
  <scstep>
   <time name="dav">    0.08    0.08</time>
   <time name="total">    0.14    0.14</time>
   <energy>
    <i name="e_fr_energy">     -8.06603976 </i>
    <i name="e_wo_entrp">     -8.06603976 </i>
    <i name="e_0_energy">     -8.06603976 </i>
   </energy>
  </scstep>
  <scstep>
   <time name="dav">    0.08    0.08</time>
   <time name="total">    0.14    0.14</time>
   <energy>
    <i name="e_fr_energy">     -8.06592593 </i>
    <i name="e_wo_entrp">     -8.06592593 </i>
    <i name="e_0_energy">     -8.06592593 </i>
   </energy>
  </scstep>
  <scstep>
   <time name="dav">    0.08    0.08</time>
   <time name="total">    0.14    0.14</time>
   <energy>
    <i name="e_fr_energy">     -8.06592642 </i>
    <i name="e_wo_entrp">     -8.06592642 </i>
    <i name="e_0_energy">     -8.06592642 </i>
   </energy>
  </scstep>
  <scstep>
   <time name="dav">    0.08    0.08</time>
   <time name="total">    0.14    0.14</time>
   <energy>
    <i name="e_fr_energy">     -8.06592623 </i>
    <i name="e_wo_entrp">     -8.06592623 </i>
    <i name="e_0_energy">     -8.06592623 </i>
   </energy>
  </scstep>
  <scstep>
   <time name="dav">    0.08    0.08</time>
   <time name="total">    0.14    0.14</time>
   <energy>
    <i name="e_fr_energy">     -8.06592639 </i>
    <i name="e_wo_entrp">     -8.06592639 </i>
    <i name="e_0_energy">     -8.06592639 </i>
   </energy>
  </scstep>
  <scstep>
   <time name="dav">    0.06    0.06</time>
   <time name="total">    0.10    0.11</time>
   <energy>
    <i name="alphaZ">     32.17603074 </i>
    <i name="ewald">  -1281.19959783 </i>
    <i name="hartreedc">   -315.10025334 </i>
    <i name="XCdc">     81.26484572 </i>
    <i name="pawpsdc">   2257.81573937 </i>
    <i name="pawaedc">  -2257.06991822 </i>
    <i name="eentropy">      0.00000000 </i>
    <i name="bandstr">   -160.87305702 </i>
    <i name="atom">   1634.92028419 </i>
    <i name="e_fr_energy">     -8.06592639 </i>
    <i name="e_wo_entrp">     -8.06592639 </i>
    <i name="e_0_energy">     -8.06592639 </i>
   </energy>
  </scstep>
  <structure>
   <crystal>
    <varray name="basis" >
     <v>       3.30617238      -1.98324293       0.00000000 </v>
     <v>       3.30617238       1.98324293       0.00000000 </v>
     <v>       0.00000000       0.00000000       8.00847299 </v>
    </varray>
    <i name="volume">    105.02220151 </i>
    <varray name="rec_basis" >
     <v>       0.15123228      -0.25211233       0.00000000 </v>
     <v>       0.15123228       0.25211233      -0.00000000 </v>
     <v>      -0.00000000       0.00000000       0.12486775 </v>
    </varray>
   </crystal>
   <varray name="positions" >
    <v>       0.87981439       0.12018561       0.61099236 </v>
    <v>       0.12018561       0.87981439       0.38900764 </v>
    <v>       0.62018561       0.37981439       0.11099236 </v>
    <v>       0.37981439       0.62018561       0.88900764 </v>
   </varray>
  </structure>
  <varray name="forces" >
   <v>       0.00000000       0.04726598      -0.00527739 </v>
   <v>       0.00000000      -0.04726598       0.00527739 </v>
   <v>       0.00000000      -0.04726598      -0.00527739 </v>
   <v>       0.00000000       0.04726598       0.00527739 </v>
  </varray>
  <varray name="stress" >
   <v>       1.74238746       0.00000000       0.00000000 </v>
   <v>       0.00000000      -1.30115387       0.00000000 </v>
   <v>       0.00000000      -0.00000000       1.36163671 </v>
  </varray>
  <energy>
   <i name="e_fr_energy">     -8.06592639 </i>
   <i name="e_wo_entrp">     -8.06592639 </i>
   <i name="e_0_energy">     -8.06592639 </i>
  </energy>
  <time name="totalsc">    1.47    1.47</time>
 </calculation>
 <calculation>
  <scstep>
   <time name="dav">    0.08    0.08</time>
   <time name="total">    0.14    0.14</time>
   <energy>
    <i name="alphaZ">     32.12604510 </i>
    <i name="ewald">  -1279.67026591 </i>
    <i name="hartreedc">   -315.41072151 </i>
    <i name="XCdc">     81.22928195 </i>
    <i name="pawpsdc">   2257.81544987 </i>
    <i name="pawaedc">  -2257.06962817 </i>
    <i name="eentropy">      0.00000000 </i>
    <i name="bandstr">   -162.00964808 </i>
    <i name="atom">   1634.92028419 </i>
    <i name="e_fr_energy">     -8.06920255 </i>
    <i name="e_wo_entrp">     -8.06920255 </i>
    <i name="e_0_energy">     -8.06920255 </i>
   </energy>
  </scstep>
  <scstep>
   <time name="dav">    0.10    0.10</time>
   <time name="total">    0.16    0.16</time>
   <energy>
    <i name="e_fr_energy">     -8.06937660 </i>
    <i name="e_wo_entrp">     -8.06937660 </i>
    <i name="e_0_energy">     -8.06937660 </i>
   </energy>
  </scstep>
  <scstep>
   <time name="dav">    0.08    0.08</time>
   <time name="total">    0.14    0.14</time>
   <energy>
    <i name="e_fr_energy">     -8.06822170 </i>
    <i name="e_wo_entrp">     -8.06822170 </i>
    <i name="e_0_energy">     -8.06822170 </i>
   </energy>
  </scstep>
  <scstep>
   <time name="dav">    0.08    0.08</time>
   <time name="total">    0.14    0.14</time>
   <energy>
    <i name="e_fr_energy">     -8.06776751 </i>
    <i name="e_wo_entrp">     -8.06776751 </i>
    <i name="e_0_energy">     -8.06776751 </i>
   </energy>
  </scstep>
  <scstep>
   <time name="dav">    0.08    0.08</time>
   <time name="total">    0.14    0.14</time>
   <energy>
    <i name="e_fr_energy">     -8.06777196 </i>
    <i name="e_wo_entrp">     -8.06777196 </i>
    <i name="e_0_energy">     -8.06777196 </i>
   </energy>
  </scstep>
  <scstep>
   <time name="dav">    0.08    0.08</time>
   <time name="total">    0.14    0.14</time>
   <energy>
    <i name="e_fr_energy">     -8.06777112 </i>
    <i name="e_wo_entrp">     -8.06777112 </i>
    <i name="e_0_energy">     -8.06777112 </i>
   </energy>
  </scstep>
  <scstep>
   <time name="dav">    0.09    0.09</time>
   <time name="total">    0.15    0.15</time>
   <energy>
    <i name="e_fr_energy">     -8.06777189 </i>
    <i name="e_wo_entrp">     -8.06777189 </i>
    <i name="e_0_energy">     -8.06777189 </i>
   </energy>
  </scstep>
  <scstep>
   <time name="dav">    0.06    0.06</time>
   <time name="total">    0.11    0.11</time>
   <energy>
    <i name="alphaZ">     32.12604510 </i>
    <i name="ewald">  -1279.67026591 </i>
    <i name="hartreedc">   -316.20022324 </i>
    <i name="XCdc">     81.27079952 </i>
    <i name="pawpsdc">   2261.06060953 </i>
    <i name="pawaedc">  -2260.31732191 </i>
    <i name="eentropy">      0.00000000 </i>
    <i name="bandstr">   -161.25769923 </i>
    <i name="atom">   1634.92028419 </i>
    <i name="e_fr_energy">     -8.06777195 </i>
    <i name="e_wo_entrp">     -8.06777195 </i>
    <i name="e_0_energy">     -8.06777195 </i>
   </energy>
  </scstep>
  <structure>
   <crystal>
    <varray name="basis" >
     <v>       3.32056939      -1.97489903       0.00000000 </v>
     <v>       3.32056939       1.97489903       0.00000000 </v>
     <v>       0.00000000       0.00000000       8.01989842 </v>
    </varray>
    <i name="volume">    105.18560791 </i>
    <varray name="rec_basis" >
     <v>       0.15057659      -0.25317750       0.00000000 </v>
     <v>       0.15057659       0.25317750      -0.00000000 </v>
     <v>      -0.00000000       0.00000000       0.12468986 </v>
    </varray>
   </crystal>
   <varray name="positions" >
    <v>       0.87816988       0.12183012       0.61040142 </v>
    <v>       0.12183012       0.87816988       0.38959858 </v>
    <v>       0.62183012       0.37816988       0.11040142 </v>
    <v>       0.37816988       0.62183012       0.88959858 </v>
   </varray>
  </structure>
  <varray name="forces" >
   <v>       0.00000000       0.04577632       0.03254421 </v>
   <v>       0.00000000      -0.04577632      -0.03254421 </v>
   <v>       0.00000000      -0.04577632       0.03254421 </v>
   <v>       0.00000000       0.04577632      -0.03254421 </v>
  </varray>
  <varray name="stress" >
   <v>       1.49680288       0.00000000       0.00000000 </v>
   <v>       0.00000000      -0.65645212       0.00000000 </v>
   <v>       0.00000000      -0.00000000       2.01009616 </v>
  </varray>
  <energy>
   <i name="e_fr_energy">     -8.06777195 </i>
   <i name="e_wo_entrp">     -8.06777195 </i>
   <i name="e_0_energy">     -8.06777195 </i>
  </energy>
  <time name="totalsc">    1.48    1.49</time>
 </calculation>
 <calculation>
  <scstep>
   <time name="dav">    0.08    0.08</time>
   <time name="total">    0.14    0.14</time>
   <energy>
    <i name="alphaZ">     32.03002258 </i>
    <i name="ewald">  -1276.56472185 </i>
    <i name="hartreedc">   -316.88669272 </i>
    <i name="XCdc">     81.20206722 </i>
    <i name="pawpsdc">   2261.06058805 </i>
    <i name="pawaedc">  -2260.31729726 </i>
    <i name="eentropy">      0.00000000 </i>
[...]
       </set>
      </set>
      <set comment="kpoint 5">
       <set comment="band 1">
        <r>  0.1891  0.0113  0.0000 </r>
        <r>  0.1891  0.0113  0.0000 </r>
        <r>  0.1863  0.0121  0.0000 </r>
        <r>  0.1863  0.0121  0.0000 </r>
       </set>
       <set comment="band 2">
        <r>  0.1861  0.0154  0.0000 </r>
        <r>  0.1861  0.0154  0.0000 </r>
        <r>  0.1896  0.0144  0.0000 </r>
        <r>  0.1896  0.0144  0.0000 </r>
       </set>
       <set comment="band 3">
        <r>  0.1983  0.0070  0.0000 </r>
        <r>  0.1983  0.0070  0.0000 </r>
        <r>  0.1898  0.0062  0.0000 </r>
        <r>  0.1898  0.0062  0.0000 </r>
       </set>
       <set comment="band 4">
        <r>  0.2001  0.0044  0.0000 </r>
        <r>  0.2001  0.0044  0.0000 </r>
        <r>  0.2089  0.0058  0.0000 </r>
        <r>  0.2089  0.0058  0.0000 </r>
       </set>
       <set comment="band 5">
        <r>  0.0089  0.1577  0.0000 </r>
        <r>  0.0089  0.1577  0.0000 </r>
        <r>  0.0077  0.1717  0.0000 </r>
        <r>  0.0077  0.1717  0.0000 </r>
       </set>
       <set comment="band 6">
        <r>  0.0174  0.2006  0.0000 </r>
        <r>  0.0174  0.2006  0.0000 </r>
        <r>  0.0140  0.1343  0.0000 </r>
        <r>  0.0140  0.1343  0.0000 </r>
       </set>
       <set comment="band 7">
        <r>  0.0006  0.0844  0.0000 </r>
        <r>  0.0006  0.0844  0.0000 </r>
        <r>  0.0017  0.2051  0.0000 </r>
        <r>  0.0017  0.2051  0.0000 </r>
       </set>
       <set comment="band 8">
        <r>  0.0032  0.1613  0.0000 </r>
        <r>  0.0032  0.1613  0.0000 </r>
        <r>  0.0002  0.1339  0.0000 </r>
        <r>  0.0002  0.1339  0.0000 </r>
       </set>
       <set comment="band 9">
        <r>  0.0009  0.0648  0.0000 </r>
        <r>  0.0009  0.0648  0.0000 </r>
        <r>  0.0000  0.2503  0.0000 </r>
        <r>  0.0000  0.2503  0.0000 </r>
       </set>
       <set comment="band 10">
        <r>  0.0001  0.2718  0.0000 </r>
        <r>  0.0001  0.2718  0.0000 </r>
        <r>  0.0059  0.0547  0.0000 </r>
        <r>  0.0059  0.0547  0.0000 </r>
       </set>
       <set comment="band 11">
        <r>  0.0001  0.2326  0.0000 </r>
        <r>  0.0001  0.2326  0.0000 </r>
        <r>  0.0051  0.0858  0.0000 </r>
        <r>  0.0051  0.0858  0.0000 </r>
       </set>
       <set comment="band 12">
        <r>  0.0004  0.1660  0.0000 </r>
        <r>  0.0004  0.1660  0.0000 </r>
        <r>  0.0011  0.1658  0.0000 </r>
        <r>  0.0011  0.1658  0.0000 </r>
       </set>
       <set comment="band 13">
        <r>  0.0025  0.1330  0.0000 </r>
        <r>  0.0025  0.1330  0.0000 </r>
        <r>  0.0004  0.2172  0.0000 </r>
        <r>  0.0004  0.2172  0.0000 </r>
       </set>
       <set comment="band 14">
        <r>  0.0006  0.1328  0.0000 </r>
        <r>  0.0006  0.1328  0.0000 </r>
        <r>  0.0000  0.2240  0.0000 </r>
        <r>  0.0000  0.2240  0.0000 </r>
       </set>
       <set comment="band 15">
        <r>  0.0160  0.1989  0.0000 </r>
        <r>  0.0160  0.1989  0.0000 </r>
        <r>  0.0138  0.1225  0.0000 </r>
        <r>  0.0138  0.1225  0.0000 </r>
       </set>
       <set comment="band 16">
        <r>  0.0069  0.1569  0.0000 </r>
        <r>  0.0069  0.1569  0.0000 </r>
        <r>  0.0055  0.1862  0.0000 </r>
        <r>  0.0055  0.1862  0.0000 </r>
       </set>
       <set comment="band 17">
        <r>  0.0062  0.0199  0.0000 </r>
        <r>  0.0062  0.0199  0.0000 </r>
        <r>  0.0051  0.0180  0.0000 </r>
        <r>  0.0051  0.0180  0.0000 </r>
       </set>
       <set comment="band 18">
        <r>  0.0010  0.0202  0.0000 </r>
        <r>  0.0010  0.0202  0.0000 </r>
        <r>  0.0061  0.0153  0.0000 </r>
        <r>  0.0061  0.0153  0.0000 </r>
       </set>
      </set>
      <set comment="kpoint 6">
       <set comment="band 1">
        <r>  0.1918  0.0124  0.0000 </r>
        <r>  0.1918  0.0124  0.0000 </r>
        <r>  0.1866  0.0138  0.0000 </r>
        <r>  0.1866  0.0138  0.0000 </r>
       </set>
       <set comment="band 2">
        <r>  0.1862  0.0150  0.0000 </r>
        <r>  0.1862  0.0150  0.0000 </r>
        <r>  0.1919  0.0135  0.0000 </r>
        <r>  0.1919  0.0135  0.0000 </r>
       </set>
       <set comment="band 3">
        <r>  0.2051  0.0064  0.0000 </r>
        <r>  0.2051  0.0064  0.0000 </r>
        <r>  0.1900  0.0049  0.0000 </r>
        <r>  0.1900  0.0049  0.0000 </r>
       </set>
       <set comment="band 4">
        <r>  0.1924  0.0043  0.0000 </r>
        <r>  0.1924  0.0043  0.0000 </r>
        <r>  0.2077  0.0062  0.0000 </r>
        <r>  0.2077  0.0062  0.0000 </r>
       </set>
       <set comment="band 5">
        <r>  0.0076  0.1214  0.0000 </r>
        <r>  0.0076  0.1214  0.0000 </r>
        <r>  0.0106  0.2008  0.0000 </r>
        <r>  0.0106  0.2008  0.0000 </r>
       </set>
       <set comment="band 6">
        <r>  0.0135  0.2212  0.0000 </r>
        <r>  0.0135  0.2212  0.0000 </r>
        <r>  0.0083  0.1015  0.0000 </r>
        <r>  0.0083  0.1015  0.0000 </r>
       </set>
       <set comment="band 7">
        <r>  0.0072  0.0288  0.0000 </r>
        <r>  0.0072  0.0288  0.0000 </r>
        <r>  0.0004  0.2621  0.0000 </r>
        <r>  0.0004  0.2621  0.0000 </r>
       </set>
       <set comment="band 8">
        <r>  0.0007  0.2345  0.0000 </r>
        <r>  0.0007  0.2345  0.0000 </r>
        <r>  0.0065  0.0635  0.0000 </r>
        <r>  0.0065  0.0635  0.0000 </r>
       </set>
       <set comment="band 9">
        <r>  0.0001  0.1509  0.0000 </r>
        <r>  0.0001  0.1509  0.0000 </r>
        <r>  0.0020  0.1551  0.0000 </r>
        <r>  0.0020  0.1551  0.0000 </r>
       </set>
       <set comment="band 10">
        <r>  0.0002  0.1662  0.0000 </r>
        <r>  0.0002  0.1662  0.0000 </r>
        <r>  0.0006  0.1469  0.0000 </r>
        <r>  0.0006  0.1469  0.0000 </r>
       </set>
       <set comment="band 11">
        <r>  0.0002  0.2040  0.0000 </r>
        <r>  0.0002  0.2040  0.0000 </r>
        <r>  0.0023  0.1162  0.0000 </r>
        <r>  0.0023  0.1162  0.0000 </r>
       </set>
       <set comment="band 12">
        <r>  0.0011  0.1983  0.0000 </r>
        <r>  0.0011  0.1983  0.0000 </r>
        <r>  0.0060  0.1308  0.0000 </r>
        <r>  0.0060  0.1308  0.0000 </r>
       </set>
       <set comment="band 13">
        <r>  0.0029  0.1791  0.0000 </r>
        <r>  0.0029  0.1791  0.0000 </r>
        <r>  0.0009  0.1663  0.0000 </r>
        <r>  0.0009  0.1663  0.0000 </r>
       </set>
       <set comment="band 14">
        <r>  0.0033  0.0781  0.0000 </r>
        <r>  0.0033  0.0781  0.0000 </r>
        <r>  0.0000  0.2747  0.0000 </r>
        <r>  0.0000  0.2747  0.0000 </r>
       </set>
       <set comment="band 15">
        <r>  0.0150  0.2851  0.0000 </r>
        <r>  0.0150  0.2851  0.0000 </r>
        <r>  0.0054  0.0529  0.0000 </r>
        <r>  0.0054  0.0529  0.0000 </r>
       </set>
       <set comment="band 16">
        <r>  0.0033  0.0805  0.0000 </r>
        <r>  0.0033  0.0805  0.0000 </r>
        <r>  0.0115  0.2731  0.0000 </r>
        <r>  0.0115  0.2731  0.0000 </r>
       </set>
       <set comment="band 17">
        <r>  0.0026  0.0138  0.0000 </r>
        <r>  0.0026  0.0138  0.0000 </r>
        <r>  0.0009  0.0083  0.0000 </r>
        <r>  0.0009  0.0083  0.0000 </r>
       </set>
       <set comment="band 18">
        <r>  0.0020  0.0169  0.0000 </r>
        <r>  0.0020  0.0169  0.0000 </r>
        <r>  0.0042  0.0135  0.0000 </r>
        <r>  0.0042  0.0135  0.0000 </r>
       </set>
      </set>
      <set comment="kpoint 7">
       <set comment="band 1">
        <r>  0.1853  0.0135  0.0000 </r>
        <r>  0.1853  0.0135  0.0000 </r>
        <r>  0.1904  0.0121  0.0000 </r>
        <r>  0.1904  0.0121  0.0000 </r>
       </set>
       <set comment="band 2">
        <r>  0.1913  0.0135  0.0000 </r>
        <r>  0.1913  0.0135  0.0000 </r>
        <r>  0.1856  0.0150  0.0000 </r>
        <r>  0.1856  0.0150  0.0000 </r>
       </set>
       <set comment="band 3">
        <r>  0.1881  0.0050  0.0000 </r>
        <r>  0.1881  0.0050  0.0000 </r>
        <r>  0.2026  0.0065  0.0000 </r>
        <r>  0.2026  0.0065  0.0000 </r>
       </set>
       <set comment="band 4">
        <r>  0.2082  0.0062  0.0000 </r>
        <r>  0.2082  0.0062  0.0000 </r>
        <r>  0.1935  0.0042  0.0000 </r>
        <r>  0.1935  0.0042  0.0000 </r>
       </set>
       <set comment="band 5">
        <r>  0.0076  0.1798  0.0000 </r>
        <r>  0.0076  0.1798  0.0000 </r>
        <r>  0.0079  0.1401  0.0000 </r>
        <r>  0.0079  0.1401  0.0000 </r>
       </set>
       <set comment="band 6">
        <r>  0.0115  0.1187  0.0000 </r>
        <r>  0.0115  0.1187  0.0000 </r>
        <r>  0.0141  0.2080  0.0000 </r>
        <r>  0.0141  0.2080  0.0000 </r>
       </set>
       <set comment="band 7">
        <r>  0.0000  0.2623  0.0000 </r>
        <r>  0.0000  0.2623  0.0000 </r>
        <r>  0.0065  0.0298  0.0000 </r>
        <r>  0.0065  0.0298  0.0000 </r>
       </set>
       <set comment="band 8">
        <r>  0.0094  0.0670  0.0000 </r>
        <r>  0.0094  0.0670  0.0000 </r>
        <r>  0.0012  0.2432  0.0000 </r>
        <r>  0.0012  0.2432  0.0000 </r>
       </set>
       <set comment="band 9">
        <r>  0.0000  0.1624  0.0000 </r>
        <r>  0.0000  0.1624  0.0000 </r>
        <r>  0.0000  0.1548  0.0000 </r>
        <r>  0.0000  0.1548  0.0000 </r>
       </set>
       <set comment="band 10">
        <r>  0.0000  0.1584  0.0000 </r>
        <r>  0.0000  0.1584  0.0000 </r>
        <r>  0.0000  0.1671  0.0000 </r>
        <r>  0.0000  0.1671  0.0000 </r>
       </set>
       <set comment="band 11">
        <r>  0.0092  0.0364  0.0000 </r>
        <r>  0.0092  0.0364  0.0000 </r>
        <r>  0.0004  0.2890  0.0000 </r>
        <r>  0.0004  0.2890  0.0000 </r>
       </set>
       <set comment="band 12">
        <r>  0.0000  0.1770  0.0000 </r>
        <r>  0.0000  0.1770  0.0000 </r>
        <r>  0.0000  0.1620  0.0000 </r>
        <r>  0.0000  0.1620  0.0000 </r>
       </set>
       <set comment="band 13">
        <r>  0.0000  0.1691  0.0000 </r>
        <r>  0.0000  0.1691  0.0000 </r>
        <r>  0.0000  0.1832  0.0000 </r>
        <r>  0.0000  0.1832  0.0000 </r>
       </set>
       <set comment="band 14">
        <r>  0.0006  0.3183  0.0000 </r>
        <r>  0.0006  0.3183  0.0000 </r>
        <r>  0.0071  0.0315  0.0000 </r>
        <r>  0.0071  0.0315  0.0000 </r>
       </set>
       <set comment="band 15">
        <r>  0.0068  0.0588  0.0000 </r>
        <r>  0.0068  0.0588  0.0000 </r>
        <r>  0.0155  0.2767  0.0000 </r>
        <r>  0.0155  0.2767  0.0000 </r>
       </set>
       <set comment="band 16">
        <r>  0.0102  0.2642  0.0000 </r>
        <r>  0.0102  0.2642  0.0000 </r>
        <r>  0.0039  0.0921  0.0000 </r>
        <r>  0.0039  0.0921  0.0000 </r>
       </set>
       <set comment="band 17">
        <r>  0.0113  0.0184  0.0000 </r>
        <r>  0.0113  0.0184  0.0000 </r>
        <r>  0.0145  0.0154  0.0000 </r>
        <r>  0.0145  0.0154  0.0000 </r>
       </set>
       <set comment="band 18">
        <r>  0.0000  0.0059  0.0000 </r>
        <r>  0.0000  0.0059  0.0000 </r>
        <r>  0.0000  0.0122  0.0000 </r>
        <r>  0.0000  0.0122  0.0000 </r>
       </set>
      </set>
      <set comment="kpoint 8">
       <set comment="band 1">
        <r>  0.1879  0.0112  0.0000 </r>
        <r>  0.1879  0.0112  0.0000 </r>
        <r>  0.1879  0.0112  0.0000 </r>
        <r>  0.1879  0.0112  0.0000 </r>
       </set>
       <set comment="band 2">
        <r>  0.1878  0.0151  0.0000 </r>
        <r>  0.1878  0.0151  0.0000 </r>
        <r>  0.1878  0.0151  0.0000 </r>
        <r>  0.1878  0.0151  0.0000 </r>
       </set>
       <set comment="band 3">
        <r>  0.1939  0.0071  0.0000 </r>
        <r>  0.1939  0.0071  0.0000 </r>
        <r>  0.1939  0.0071  0.0000 </r>
        <r>  0.1939  0.0071  0.0000 </r>
       </set>
       <set comment="band 4">
        <r>  0.2068  0.0051  0.0000 </r>
        <r>  0.2068  0.0051  0.0000 </r>
        <r>  0.2068  0.0051  0.0000 </r>
        <r>  0.2068  0.0051  0.0000 </r>
       </set>
       <set comment="band 5">
        <r>  0.0093  0.1681  0.0000 </r>
        <r>  0.0093  0.1681  0.0000 </r>
        <r>  0.0093  0.1681  0.0000 </r>
        <r>  0.0093  0.1681  0.0000 </r>
       </set>
       <set comment="band 6">
        <r>  0.0173  0.1707  0.0000 </r>
        <r>  0.0173  0.1707  0.0000 </r>
        <r>  0.0173  0.1707  0.0000 </r>
        <r>  0.0173  0.1707  0.0000 </r>
       </set>
       <set comment="band 7">
        <r>  0.0003  0.1366  0.0000 </r>
        <r>  0.0003  0.1366  0.0000 </r>
        <r>  0.0003  0.1366  0.0000 </r>
        <r>  0.0003  0.1366  0.0000 </r>
       </set>
       <set comment="band 8">
        <r>  0.0003  0.1437  0.0000 </r>
        <r>  0.0003  0.1437  0.0000 </r>
        <r>  0.0003  0.1437  0.0000 </r>
        <r>  0.0003  0.1437  0.0000 </r>
       </set>
       <set comment="band 9">
        <r>  0.0007  0.1648  0.0000 </r>
        <r>  0.0007  0.1648  0.0000 </r>
        <r>  0.0007  0.1648  0.0000 </r>
        <r>  0.0007  0.1648  0.0000 </r>
       </set>
       <set comment="band 10">
        <r>  0.0029  0.1663  0.0000 </r>
        <r>  0.0029  0.1663  0.0000 </r>
        <r>  0.0029  0.1663  0.0000 </r>
        <r>  0.0029  0.1663  0.0000 </r>
       </set>
       <set comment="band 11">
        <r>  0.0013  0.1540  0.0000 </r>
        <r>  0.0013  0.1540  0.0000 </r>
        <r>  0.0013  0.1540  0.0000 </r>
        <r>  0.0013  0.1540  0.0000 </r>
       </set>
       <set comment="band 12">
        <r>  0.0008  0.1590  0.0000 </r>
        <r>  0.0008  0.1590  0.0000 </r>
        <r>  0.0008  0.1590  0.0000 </r>
        <r>  0.0008  0.1590  0.0000 </r>
       </set>
       <set comment="band 13">
        <r>  0.0005  0.1709  0.0000 </r>
        <r>  0.0005  0.1709  0.0000 </r>
        <r>  0.0005  0.1709  0.0000 </r>
        <r>  0.0005  0.1709  0.0000 </r>
       </set>
       <set comment="band 14">
        <r>  0.0000  0.1754  0.0000 </r>
        <r>  0.0000  0.1754  0.0000 </r>
        <r>  0.0000  0.1754  0.0000 </r>
        <r>  0.0000  0.1754  0.0000 </r>
       </set>
       <set comment="band 15">
        <r>  0.0160  0.1550  0.0000 </r>
        <r>  0.0160  0.1550  0.0000 </r>
        <r>  0.0160  0.1550  0.0000 </r>
        <r>  0.0160  0.1550  0.0000 </r>
       </set>
       <set comment="band 16">
        <r>  0.0068  0.1678  0.0000 </r>
        <r>  0.0068  0.1678  0.0000 </r>
        <r>  0.0068  0.1678  0.0000 </r>
        <r>  0.0068  0.1678  0.0000 </r>
       </set>
       <set comment="band 17">
        <r>  0.0005  0.0083  0.0000 </r>
        <r>  0.0005  0.0083  0.0000 </r>
        <r>  0.0005  0.0083  0.0000 </r>
        <r>  0.0005  0.0083  0.0000 </r>
       </set>
       <set comment="band 18">
        <r>  0.0014  0.0181  0.0000 </r>
        <r>  0.0014  0.0181  0.0000 </r>
        <r>  0.0014  0.0181  0.0000 </r>
        <r>  0.0014  0.0181  0.0000 </r>
       </set>
      </set>
      <set comment="kpoint 9">
       <set comment="band 1">
        <r>  0.1901  0.0114  0.0000 </r>
        <r>  0.1901  0.0114  0.0000 </r>
        <r>  0.1873  0.0122  0.0000 </r>
        <r>  0.1873  0.0122  0.0000 </r>
       </set>
       <set comment="band 2">
        <r>  0.1869  0.0155  0.0000 </r>
        <r>  0.1869  0.0155  0.0000 </r>
        <r>  0.1904  0.0145  0.0000 </r>
        <r>  0.1904  0.0145  0.0000 </r>
       </set>
       <set comment="band 3">
        <r>  0.1997  0.0069  0.0000 </r>
        <r>  0.1997  0.0069  0.0000 </r>
        <r>  0.1911  0.0061  0.0000 </r>
        <r>  0.1911  0.0061  0.0000 </r>
       </set>
       <set comment="band 4">
        <r>  0.2004  0.0044  0.0000 </r>
        <r>  0.2004  0.0044  0.0000 </r>
        <r>  0.2092  0.0058  0.0000 </r>
        <r>  0.2092  0.0058  0.0000 </r>
       </set>
       <set comment="band 5">
        <r>  0.0093  0.1566  0.0000 </r>
        <r>  0.0093  0.1566  0.0000 </r>
        <r>  0.0085  0.1754  0.0000 </r>
        <r>  0.0085  0.1754  0.0000 </r>
       </set>
       <set comment="band 6">
        <r>  0.0171  0.2029  0.0000 </r>
        <r>  0.0171  0.2029  0.0000 </r>
        <r>  0.0137  0.1315  0.0000 </r>
        <r>  0.0137  0.1315  0.0000 </r>
       </set>
       <set comment="band 7">
        <r>  0.0000  0.1383  0.0000 </r>
        <r>  0.0000  0.1383  0.0000 </r>
        <r>  0.0000  0.1361  0.0000 </r>
        <r>  0.0000  0.1361  0.0000 </r>
       </set>
       <set comment="band 8">
        <r>  0.0000  0.1429  0.0000 </r>
        <r>  0.0000  0.1429  0.0000 </r>
        <r>  0.0000  0.1469  0.0000 </r>
        <r>  0.0000  0.1469  0.0000 </r>
       </set>
       <set comment="band 9">
        <r>  0.0039  0.0319  0.0000 </r>
        <r>  0.0039  0.0319  0.0000 </r>
        <r>  0.0001  0.2711  0.0000 </r>
        <r>  0.0001  0.2711  0.0000 </r>
       </set>
       <set comment="band 10">
        <r>  0.0000  0.2530  0.0000 </r>
        <r>  0.0000  0.2530  0.0000 </r>
        <r>  0.0066  0.0711  0.0000 </r>
        <r>  0.0066  0.0711  0.0000 </r>
       </set>
       <set comment="band 11">
        <r>  0.0000  0.1570  0.0000 </r>
        <r>  0.0000  0.1570  0.0000 </r>
        <r>  0.0000  0.1493  0.0000 </r>
        <r>  0.0000  0.1493  0.0000 </r>
       </set>
       <set comment="band 12">
        <r>  0.0002  0.2449  0.0000 </r>
        <r>  0.0002  0.2449  0.0000 </r>
        <r>  0.0058  0.0819  0.0000 </r>
        <r>  0.0058  0.0819  0.0000 </r>
       </set>
       <set comment="band 13">
        <r>  0.0031  0.0792  0.0000 </r>
        <r>  0.0031  0.0792  0.0000 </r>
        <r>  0.0003  0.2738  0.0000 </r>
        <r>  0.0003  0.2738  0.0000 </r>
       </set>
       <set comment="band 14">
        <r>  0.0000  0.1715  0.0000 </r>
        <r>  0.0000  0.1715  0.0000 </r>
        <r>  0.0000  0.1783  0.0000 </r>
        <r>  0.0000  0.1783  0.0000 </r>
       </set>
       <set comment="band 15">
        <r>  0.0151  0.1973  0.0000 </r>
        <r>  0.0151  0.1973  0.0000 </r>
        <r>  0.0135  0.1240  0.0000 </r>
        <r>  0.0135  0.1240  0.0000 </r>
       </set>
       <set comment="band 16">
        <r>  0.0069  0.1572  0.0000 </r>
        <r>  0.0069  0.1572  0.0000 </r>
        <r>  0.0055  0.1840  0.0000 </r>
        <r>  0.0055  0.1840  0.0000 </r>
       </set>
       <set comment="band 17">
        <r>  0.0004  0.0107  0.0000 </r>
        <r>  0.0004  0.0107  0.0000 </r>
        <r>  0.0014  0.0121  0.0000 </r>
        <r>  0.0014  0.0121  0.0000 </r>
       </set>
       <set comment="band 18">
        <r>  0.0000  0.0299  0.0000 </r>
        <r>  0.0000  0.0299  0.0000 </r>
        <r>  0.0000  0.0077  0.0000 </r>
        <r>  0.0000  0.0077  0.0000 </r>
       </set>
      </set>
     </set>
    </set>
   </array>
  </projected>
 </calculation>
 <structure name="finalpos" >
  <crystal>
   <varray name="basis" >
    <v>       3.41694261      -1.94621136      -0.00000000 </v>
    <v>       3.41694261       1.94621136       0.00000000 </v>
    <v>       0.00000000       0.00000000       8.00631107 </v>
   </varray>
   <i name="volume">    106.48541906 </i>
   <varray name="rec_basis" >
    <v>       0.14632965      -0.25690940       0.00000000 </v>
    <v>       0.14632965       0.25690940      -0.00000000 </v>
    <v>      -0.00000000      -0.00000000       0.12490147 </v>
   </varray>
  </crystal>
  <varray name="positions" >
   <v>       0.87447513       0.12552487       0.61056637 </v>
   <v>       0.12552487       0.87447513       0.38943363 </v>
   <v>       0.62552487       0.37447513       0.11056637 </v>
   <v>       0.37447513       0.62552487       0.88943363 </v>
  </varray>
 </structure>
</modeling>
