 vasp.6.5.1 10Mar25 (build May 05 2025 13:45:00) complex                        
  
 executed on             LinuxIFC date 2026.04.28  06:57:35
 running  112 mpi-ranks, on    1 nodes
 distrk:  each k-point on   28 cores,    4 groups
 distr:  one band on NCORE=   1 cores,   28 groups


--------------------------------------------------------------------------------------------------------


 INCAR:
   ALGO = Damped
   PREC = Normal
   LREAL = False
   EDIFF = 1e-07
   ENCUT = 400.0
   LASPH = True
   NELM = 100
   ISIF = 3
   IBRION = 2
   EDIFFG = -0.005
   NSW = 300
   ISMEAR = 0
   SIGMA = 0.1
   LWAVE = True
   LCHARG = False
   LORBIT = 10
   LHFCALC = True
   PRECFOCK = Fast
   AEXX = 0.36
   HFSCREEN = 0.2
   TIME = 0.4
   KPAR = 4

 POTCAR:    PAW_PBE Nd_3 06Sep2000                
 POTCAR:    PAW_PBE Zn 06Sep2000                  
 -----------------------------------------------------------------------------
|                                                                             |
|           W    W    AA    RRRRR   N    N  II  N    N   GGGG   !!!           |
|           W    W   A  A   R    R  NN   N  II  NN   N  G    G  !!!           |
|           W    W  A    A  R    R  N N  N  II  N N  N  G       !!!           |
|           W WW W  AAAAAA  RRRRR   N  N N  II  N  N N  G  GGG   !            |
|           WW  WW  A    A  R   R   N   NN  II  N   NN  G    G                |
|           W    W  A    A  R    R  N    N  II  N    N   GGGG   !!!           |
|                                                                             |
|     For optimal performance we recommend to set                             |
|       NCORE = 2 up to number-of-cores-per-socket                            |
|     NCORE specifies how many cores store one orbital (NPAR=cpu/NCORE).      |
|     This setting can greatly improve the performance of VASP for DFT.       |
|     The default, NCORE=1 might be grossly inefficient on modern             |
|     multi-core architectures or massively parallel machines. Do your        |
|     own testing! More info at https://www.vasp.at/wiki/index.php/NCORE      |
|     Unfortunately you need to use the default for GW and RPA                |
|     calculations (for HF NCORE is supported but not extensively tested      |
|     yet).                                                                   |
|                                                                             |
 -----------------------------------------------------------------------------

 POTCAR:    PAW_PBE Nd_3 06Sep2000                
   SHA256 =  90782177844a5d17e05a83442c3981b109958f4399d5595472847236a982ac31 Nd_3/POTCAR           
   COPYR  = (c) Copyright 06Sep2000 Georg Kresse                                                    
   COPYR  = This file is part of the software VASP. Any use, copying, and all other rights are regul
   COPYR  = If you do not have a valid VASP license, you may not use, copy or distribute this file. 
   VRHFIN =Nd : [core=Xe4]                                                                          
   LEXCH  = PE                                                                                      
   EATOM  =   934.1494 eV,   68.6580 Ry                                                             
                                                                                                    
   TITEL  = PAW_PBE Nd_3 06Sep2000                                                                  
   LULTRA =        F    use ultrasoft PP ?                                                          
   IUNSCR =        1    unscreen: 0-lin 1-nonlin 2-no                                               
   RPACOR =    2.400    partial core radius                                                         
   POMASS =  144.240; ZVAL   =   11.000    mass and valenz                                          
   RCORE  =    2.800    outmost cutoff radius                                                       
   RWIGS  =    3.000; RWIGS  =    1.588    wigner-seitz radius (au A)                               
   ENMAX  =  182.619; ENMIN  =  136.964 eV                                                          
   RCLOC  =    2.418    cutoff for local pot                                                        
   LCOR   =        T    correct aug charges                                                         
   LPAW   =        T    paw PP                                                                      
   EAUG   =  299.021                                                                                
   DEXC   =    0.000                                                                                
   RMAX   =    2.866    core radius for proj-oper                                                   
   RAUG   =    1.300    factor for augmentation sphere                                              
   RDEP   =    2.838    radius for radial grids                                                     
   RDEPT  =    2.433    core radius for aug-charge                                                  
                                                                                                    
   Atomic configuration                                                                             
   14 entries                                                                                       
     n  l   j            E        occ.                                                              
     1  0  0.50    -43395.8286   2.0000                                                             
     2  0  0.50     -7023.8781   2.0000                                                             
     2  1  1.50     -6278.5294   6.0000                                                             
     3  0  0.50     -1529.8925   2.0000                                                             
     3  1  1.50     -1294.9660   6.0000                                                             
     3  2  2.50      -969.3626  10.0000                                                             
     4  0  0.50      -309.7145   2.0000                                                             
     4  1  1.50      -232.6371   6.0000                                                             
     4  2  2.50      -123.0912  10.0000                                                             
     4  3  2.50        -6.9199   3.0000                                                             
     5  0  0.50       -43.6910   2.0000                                                             
     6  0  0.50        -3.8688   2.0000                                                             
     5  1  1.50       -24.6661   6.0000                                                             
     5  2  2.50        -2.9249   1.0000                                                             
   Description                                                                                      
     l       E           TYP  RCUT    TYP  RCUT                                                     
     0    -43.6910211     23  2.800                                                                 
     0     -3.8687565     23  2.800                                                                 
     1    -24.6660554     23  2.800                                                                 
     1     13.6058260     23  2.800                                                                 
     2     -2.9249058     23  2.800                                                                 
     2      0.2001824     23  2.800                                                                 
  local pseudopotential read in
  partial core-charges read in
  partial kinetic energy density read in
  atomic valenz-charges read in
  non local Contribution for L=           0  read in
    real space projection operators read in
  non local Contribution for L=           0  read in
    real space projection operators read in
  non local Contribution for L=           1  read in
    real space projection operators read in
  non local Contribution for L=           1  read in
    real space projection operators read in
  non local Contribution for L=           2  read in
    real space projection operators read in
  non local Contribution for L=           2  read in
    real space projection operators read in
    PAW grid and wavefunctions read in
 
   number of l-projection  operators is LMAX  =           6
   number of lm-projection operators is LMMAX =          18
 
 POTCAR:    PAW_PBE Zn 06Sep2000                  
   SHA256 =  501fddbd8274dd8e9725d4f3de27861d7f1e553a7e18441bc79fed8f346e7f23 Zn/POTCAR             
   COPYR  = (c) Copyright 06Sep2000 Georg Kresse                                                    
   COPYR  = This file is part of the software VASP. Any use, copying, and all other rights are regul
   COPYR  = If you do not have a valid VASP license, you may not use, copy or distribute this file. 
   VRHFIN =Zn: d10 p2                                                                               
   LEXCH  = PE                                                                                      
   EATOM  =  1748.8345 eV,  128.5357 Ry                                                             
                                                                                                    
   TITEL  = PAW_PBE Zn 06Sep2000                                                                    
   LULTRA =        F    use ultrasoft PP ?                                                          
   IUNSCR =        1    unscreen: 0-lin 1-nonlin 2-no                                               
   RPACOR =    2.000    partial core radius                                                         
   POMASS =   65.390; ZVAL   =   12.000    mass and valenz                                          
   RCORE  =    2.300    outmost cutoff radius                                                       
   RWIGS  =    2.400; RWIGS  =    1.270    wigner-seitz radius (au A)                               
   ENMAX  =  276.723; ENMIN  =  207.542 eV                                                          
   RCLOC  =    1.828    cutoff for local pot                                                        
   LCOR   =        T    correct aug charges                                                         
   LPAW   =        T    paw PP                                                                      
   EAUG   =  575.892                                                                                
   DEXC   =    0.000                                                                                
   RMAX   =    2.347    core radius for proj-oper                                                   
   RAUG   =    1.300    factor for augmentation sphere                                              
   RDEP   =    2.324    radius for radial grids                                                     
   RDEPT  =    1.788    core radius for aug-charge                                                  
                                                                                                    
   Atomic configuration                                                                             
    9 entries                                                                                       
     n  l   j            E        occ.                                                              
     1  0  0.50     -9524.6913   2.0000                                                             
     2  0  0.50     -1158.1882   2.0000                                                             
     2  1  1.50     -1003.8506   6.0000                                                             
     3  0  0.50      -129.2194   2.0000                                                             
     3  1  1.50       -83.3890   6.0000                                                             
     3  2  2.50       -10.1410  10.0000                                                             
     4  0  0.50        -5.9785   2.0000                                                             
     4  1  0.50        -4.0817   0.0000                                                             
     4  3  2.50        -1.3606   0.0000                                                             
   Description                                                                                      
     l       E           TYP  RCUT    TYP  RCUT                                                     
     2    -10.1410010     23  2.300                                                                 
     2    -11.5015836     23  2.300                                                                 
     0     -5.9785163     23  2.300                                                                 
     0      1.1858015     23  2.300                                                                 
     1     -2.7211652     23  2.300                                                                 
     1     13.2444212     23  2.300                                                                 
  local pseudopotential read in
  partial core-charges read in
  partial kinetic energy density read in
  atomic valenz-charges read in
  non local Contribution for L=           2  read in
    real space projection operators read in
  non local Contribution for L=           2  read in
    real space projection operators read in
  non local Contribution for L=           0  read in
    real space projection operators read in
  non local Contribution for L=           0  read in
    real space projection operators read in
  non local Contribution for L=           1  read in
    real space projection operators read in
  non local Contribution for L=           1  read in
    real space projection operators read in
    PAW grid and wavefunctions read in
 
   number of l-projection  operators is LMAX  =           6
   number of lm-projection operators is LMMAX =          18
 
 -----------------------------------------------------------------------------
|                                                                             |
|               ----> ADVICE to this user running VASP <----                  |
|                                                                             |
|     You have a (more or less) 'large supercell' and for larger cells it     |
|     might be more efficient to use real-space projection operators.         |
|     Therefore, try LREAL= Auto in the INCAR file.                           |
|     Mind: For very accurate calculation, you might also keep the            |
|     reciprocal projection scheme (i.e. LREAL=.FALSE.).                      |
|                                                                             |
 -----------------------------------------------------------------------------

  PAW_PBE Nd_3 06Sep2000                :
 energy of atom  1       EATOM= -934.1494
 kinetic energy error for atom=    0.0015 (will be added to EATOM!!)
  PAW_PBE Zn 06Sep2000                  :
 energy of atom  2       EATOM=-1748.8345
 kinetic energy error for atom=    0.0107 (will be added to EATOM!!)
 
 
 POSCAR: Nd2 Zn22
  positions in direct lattice
  No initial velocities read in


 exchange-correlation table for PE
   RHO(1)=    0.500       N(1)  =     2000
   RHO(2)=  100.500       N(2)  =     4000
 


--------------------------------------------------------------------------------------------------------


 ion  position               nearest neighbor table
   1  0.750  0.750  0.375-  13 3.23  23 3.23  18 3.24  22 3.24  12 3.24  24 3.24  17 3.24  19 3.24
                            15 3.36  21 3.36   4 3.36  11 3.36  20 3.37  16 3.37  14 3.37   3 3.37
   2  0.250  0.250  0.625-  15 3.23  21 3.23   3 3.24  14 3.24  16 3.24  20 3.24  11 3.24   4 3.24
                            13 3.36  23 3.36  17 3.36  19 3.36  12 3.37  24 3.37  22 3.37  18 3.37
   3  0.167  0.578  0.445-  11 2.56   7 2.57  19 2.58   9 2.59  24 2.62  23 2.63  20 2.66   5 2.84
                            22 2.85  21 2.94   2 3.24   1 3.37
   4  0.334  0.922  0.200-  14 2.56  10 2.57  22 2.58   8 2.59  24 2.62  23 2.63  21 2.66   5 2.84
                            19 2.86  20 2.94   2 3.24   1 3.36
   5  0.250  0.250  0.126-   9 2.75   7 2.76  10 2.76   8 2.76  15 2.83  21 2.83   3 2.84  14 2.84
                            11 2.84   4 2.84  20 2.85  16 2.85   2 3.38   2 3.38
   6  0.750  0.750  0.874-   9 2.75   7 2.76  10 2.76   8 2.76  13 2.83  23 2.83  22 2.84  18 2.84
                            17 2.84  19 2.84  12 2.85  24 2.85   1 3.38   1 3.38
   7  0.000  0.500  0.000-  11 2.57  19 2.57  18 2.57   3 2.57  13 2.59  21 2.59  16 2.59  24 2.59
                             6 2.76   5 2.76
   8  0.000  0.000  0.000-  12 2.57  16 2.57  20 2.57  24 2.57  17 2.59  19 2.59   4 2.59  11 2.59
                             6 2.76   5 2.76
   9  0.500  0.500  0.500-  13 2.57  15 2.57  21 2.57  23 2.57  18 2.59  14 2.59  22 2.59   3 2.59
                             6 2.75   5 2.75
  10  0.500  0.000  0.000-   4 2.57  17 2.57  14 2.57  22 2.57  15 2.59  23 2.59  12 2.59  20 2.59
                             6 2.76   5 2.76
  11  0.922  0.334  0.200-   3 2.56   7 2.57  18 2.58   8 2.59  12 2.62  13 2.63  15 2.66   5 2.84
                            17 2.86  16 2.94   2 3.24   1 3.36
  12  0.834  0.078  0.278-  24 2.56   8 2.57  16 2.58  10 2.59  14 2.62  11 2.62  18 2.66   6 2.85
                            15 2.86  17 2.94   1 3.24   2 3.37
  13  0.667  0.423  0.867-  23 2.56   9 2.57  15 2.58   7 2.59  14 2.63  11 2.63  17 2.66   6 2.83
                            16 2.86  18 2.94   1 3.23   2 3.36
  14  0.578  0.167  0.445-   4 2.56  10 2.57  17 2.58   9 2.59  12 2.62  13 2.63  16 2.66   5 2.84
                            18 2.85  15 2.94   2 3.24   1 3.37
  15  0.577  0.333  0.133-  21 2.56   9 2.57  13 2.58  10 2.59  18 2.63  17 2.63  11 2.66   5 2.83
                            12 2.86  14 2.94   2 3.23   1 3.36
  16  0.922  0.166  0.722-  20 2.56   8 2.57  12 2.58   7 2.59  18 2.62  17 2.62  14 2.66   5 2.85
                            13 2.86  11 2.94   2 3.24   1 3.37
  17  0.666  0.078  0.800-  22 2.56  10 2.57  14 2.58   8 2.59  16 2.62  15 2.63  13 2.66   6 2.84
                            11 2.86  12 2.94   1 3.24   2 3.36
  18  0.833  0.422  0.555-  19 2.56   7 2.57  11 2.58   9 2.59  16 2.62  15 2.63  12 2.66   6 2.84
                            14 2.85  13 2.94   1 3.24   2 3.37
  19  0.078  0.666  0.800-  18 2.56   7 2.57   3 2.58   8 2.59  20 2.62  21 2.63  23 2.66   6 2.84
                             4 2.86  24 2.94   1 3.24   2 3.36
  20  0.166  0.922  0.722-  16 2.56   8 2.57  24 2.58  10 2.59  22 2.62  19 2.62   3 2.66   5 2.85
                            23 2.86   4 2.94   2 3.24   1 3.37
  21  0.333  0.577  0.133-  15 2.56   9 2.57  23 2.58   7 2.59  22 2.63  19 2.63   4 2.66   5 2.83
                            24 2.86   3 2.94   2 3.23   1 3.36
  22  0.422  0.833  0.555-  17 2.56  10 2.57   4 2.58   9 2.59  20 2.62  21 2.63  24 2.66   6 2.84
                             3 2.85  23 2.94   1 3.24   2 3.37
  23  0.423  0.667  0.867-  13 2.56   9 2.57  21 2.58  10 2.59   3 2.63   4 2.63  19 2.66   6 2.83
                            20 2.86  22 2.94   1 3.23   2 3.36
  24  0.078  0.834  0.278-  12 2.56   8 2.57  20 2.58   7 2.59   3 2.62   4 2.62  22 2.66   6 2.85
                            21 2.86  19 2.94   1 3.24   2 3.37
 
  LATTYP: Found a base centered monoclinic cell.
 ALAT       =    12.4687739520
 B/A-ratio  =     0.8423143921
 C/A-ratio  =     0.5416796183
 COS(beta)  =    -0.5401608907
  
  Lattice vectors:
  
 A1 = (   6.2343869760,  -5.2513138759,   0.0000000000)
 A2 = (   6.2343869760,   5.2513138759,   0.0000000000)
 A3 = (  -3.6482902548,   0.0000000000,   5.6839761183)


Analysis of symmetry for initial positions (statically):
=====================================================================
 Subroutine PRICEL returns:
 Original cell was already a primitive cell.
 

 Routine SETGRP: Setting up the symmetry group for a 
 base centered monoclinic supercell.


 Subroutine GETGRP returns: Found  4 space group operations
 (whereof  4 operations were pure point group operations)
 out of a pool of  4 trial point group operations.


The static configuration has the point symmetry C_2h.


Analysis of symmetry for dynamics (positions and initial velocities):
=====================================================================
 Subroutine PRICEL returns:
 Original cell was already a primitive cell.
 

 Routine SETGRP: Setting up the symmetry group for a 
 base centered monoclinic supercell.


 Subroutine GETGRP returns: Found  4 space group operations
 (whereof  4 operations were pure point group operations)
 out of a pool of  4 trial point group operations.


The dynamic configuration has the point symmetry C_2h.


 Subroutine INISYM returns: Found  4 space group operations
 (whereof  4 operations are pure point group operations),
 and found     1 'primitive' translations


----------------------------------------------------------------------------------------

                                     Primitive cell                                     

  volume of cell :     372.1722

  direct lattice vectors                    reciprocal lattice vectors
     6.234386976 -5.251313876  0.000000000     0.080200347 -0.095214267  0.051477019
     6.234386976  5.251313876  0.000000000     0.080200347  0.095214267  0.051477019
    -3.648290255  0.000000000  5.683976118     0.000000000  0.000000000  0.175933181

  length of vectors
     8.151311452  8.151311452  6.754080714     0.134713532  0.134713532  0.175933181

  position of ions in fractional coordinates (direct lattice)
     0.749570960  0.749570960  0.374547700
     0.250429040  0.250429040  0.625452300
     0.166810660  0.577860780  0.444570770
     0.333613290  0.922494040  0.200243670
     0.250450200  0.250450200  0.125523750
     0.749549800  0.749549800  0.874476250
     1.000000000  0.500000000  0.000000000
     0.000000000  0.000000000  0.000000000
     0.500000000  0.500000000  0.500000000
     0.500000000  1.000000000  0.000000000
     0.922494040  0.333613290  0.200243670
     0.833502040  0.077614760  0.277908520
     0.666536750  0.422885580  0.866821140
     0.577860780  0.166810660  0.444570770
     0.577114420  0.333463250  0.133178860
     0.922385240  0.166497960  0.722091480
     0.666386710  0.077505960  0.799756330
     0.833189340  0.422139220  0.555429230
     0.077505960  0.666386710  0.799756330
     0.166497960  0.922385240  0.722091480
     0.333463250  0.577114420  0.133178860
     0.422139220  0.833189340  0.555429230
     0.422885580  0.666536750  0.866821140
     0.077614760  0.833502040  0.277908520

  ion indices of the primitive-cell ions
   primitive index   ion index
                 1           1
                 2           2
                 3           3
                 4           4
                 5           5
                 6           6
                 7           7
                 8           8
                 9           9
                10          10
                11          11
                12          12
                13          13
                14          14
                15          15
                16          16
                17          17
                18          18
                19          19
                20          20
                21          21
                22          22
                23          23
                24          24

----------------------------------------------------------------------------------------

 
 
 KPOINTS: Num irrep kpoints: 45                   

Automatic generation of k-mesh.
 Grid dimensions read from file:
 generate k-points for:    5    5    6

 Generating k-lattice:

  Cartesian coordinates                     Fractional coordinates (reciprocal lattice)
     0.016040069 -0.019042853  0.010295404     0.200000000  0.000000000  0.000000000
     0.016040069  0.019042853  0.010295404     0.000000000  0.200000000  0.000000000
     0.000000000  0.000000000  0.029322197     0.000000000  0.000000000  0.166666667

  Length of vectors
     0.026942706  0.026942706  0.029322197

  Shift w.r.t. Gamma in fractional coordinates (k-lattice)
     0.000000000  0.000000000  0.500000000

 
 Subroutine IBZKPT returns following result:
 ===========================================
 
 Found     45 irreducible k-points:
 
 Following reciprocal coordinates:
            Coordinates               Weight
  0.000000  0.000000  0.083333      2.000000
  0.200000  0.000000  0.083333      4.000000
  0.400000 -0.000000  0.083333      4.000000
 -0.400000  0.000000  0.083333      4.000000
 -0.200000 -0.000000  0.083333      4.000000
  0.200000  0.200000  0.083333      2.000000
  0.400000  0.200000  0.083333      4.000000
 -0.400000  0.200000  0.083333      4.000000
 -0.200000  0.200000  0.083333      4.000000
  0.400000  0.400000  0.083333      2.000000
 -0.400000  0.400000  0.083333      4.000000
 -0.200000  0.400000  0.083333      4.000000
 -0.400000 -0.400000  0.083333      2.000000
 -0.200000 -0.400000  0.083333      4.000000
 -0.200000 -0.200000  0.083333      2.000000
  0.000000  0.000000  0.250000      2.000000
  0.200000  0.000000  0.250000      4.000000
  0.400000 -0.000000  0.250000      4.000000
 -0.400000  0.000000  0.250000      4.000000
 -0.200000 -0.000000  0.250000      4.000000
  0.200000  0.200000  0.250000      2.000000
  0.400000  0.200000  0.250000      4.000000
 -0.400000  0.200000  0.250000      4.000000
 -0.200000  0.200000  0.250000      4.000000
  0.400000  0.400000  0.250000      2.000000
 -0.400000  0.400000  0.250000      4.000000
 -0.200000  0.400000  0.250000      4.000000
 -0.400000 -0.400000  0.250000      2.000000
 -0.200000 -0.400000  0.250000      4.000000
 -0.200000 -0.200000  0.250000      2.000000
  0.000000  0.000000  0.416667      2.000000
  0.200000  0.000000  0.416667      4.000000
  0.400000 -0.000000  0.416667      4.000000
 -0.400000  0.000000  0.416667      4.000000
 -0.200000 -0.000000  0.416667      4.000000
  0.200000  0.200000  0.416667      2.000000
  0.400000  0.200000  0.416667      4.000000
 -0.400000  0.200000  0.416667      4.000000
 -0.200000  0.200000  0.416667      4.000000
  0.400000  0.400000  0.416667      2.000000
 -0.400000  0.400000  0.416667      4.000000
 -0.200000  0.400000  0.416667      4.000000
 -0.400000 -0.400000  0.416667      2.000000
 -0.200000 -0.400000  0.416667      4.000000
 -0.200000 -0.200000  0.416667      2.000000
 
 Following cartesian coordinates:
            Coordinates               Weight
  0.000000  0.000000  0.014661      2.000000
  0.016040 -0.019043  0.024957      4.000000
  0.032080 -0.038086  0.035252      4.000000
 -0.032080  0.038086 -0.005930      4.000000
 -0.016040  0.019043  0.004366      4.000000
  0.032080 -0.000000  0.035252      2.000000
  0.048120 -0.019043  0.045547      4.000000
 -0.016040  0.057129  0.004366      4.000000
 -0.000000  0.038086  0.014661      4.000000
  0.064160 -0.000000  0.055843      2.000000
  0.000000  0.076171  0.014661      4.000000
  0.016040  0.057129  0.024957      4.000000
 -0.064160  0.000000 -0.026521      2.000000
 -0.048120 -0.019043 -0.016225      4.000000
 -0.032080  0.000000 -0.005930      2.000000
  0.000000  0.000000  0.043983      2.000000
  0.016040 -0.019043  0.054279      4.000000
  0.032080 -0.038086  0.064574      4.000000
 -0.032080  0.038086  0.023392      4.000000
 -0.016040  0.019043  0.033688      4.000000
  0.032080 -0.000000  0.064574      2.000000
  0.048120 -0.019043  0.074870      4.000000
 -0.016040  0.057129  0.033688      4.000000
 -0.000000  0.038086  0.043983      4.000000
  0.064160 -0.000000  0.085165      2.000000
  0.000000  0.076171  0.043983      4.000000
  0.016040  0.057129  0.054279      4.000000
 -0.064160  0.000000  0.002802      2.000000
 -0.048120 -0.019043  0.013097      4.000000
 -0.032080  0.000000  0.023392      2.000000
  0.000000  0.000000  0.073305      2.000000
  0.016040 -0.019043  0.083601      4.000000
  0.032080 -0.038086  0.093896      4.000000
 -0.032080  0.038086  0.052715      4.000000
 -0.016040  0.019043  0.063010      4.000000
  0.032080 -0.000000  0.093896      2.000000
  0.048120 -0.019043  0.104192      4.000000
 -0.016040  0.057129  0.063010      4.000000
 -0.000000  0.038086  0.073305      4.000000
  0.064160 -0.000000  0.114487      2.000000
  0.000000  0.076171  0.073305      4.000000
  0.016040  0.057129  0.083601      4.000000
 -0.064160  0.000000  0.032124      2.000000
 -0.048120 -0.019043  0.042419      4.000000
 -0.032080  0.000000  0.052715      2.000000
 
 
 Subroutine IBZKPT_HF returns following result:
 ==============================================
 
 Found    150 k-points in 1st BZ
 the following    150 k-points will be used (e.g. in the exchange kernel)
 Following reciprocal coordinates:   # in IRBZ
  0.000000  0.000000  0.083333    0.00666667   1 t-inv F
  0.200000  0.000000  0.083333    0.00666667   2 t-inv F
  0.400000 -0.000000  0.083333    0.00666667   3 t-inv F
 -0.400000  0.000000  0.083333    0.00666667   4 t-inv F
 -0.200000 -0.000000  0.083333    0.00666667   5 t-inv F
  0.200000  0.200000  0.083333    0.00666667   6 t-inv F
  0.400000  0.200000  0.083333    0.00666667   7 t-inv F
 -0.400000  0.200000  0.083333    0.00666667   8 t-inv F
 -0.200000  0.200000  0.083333    0.00666667   9 t-inv F
  0.400000  0.400000  0.083333    0.00666667  10 t-inv F
 -0.400000  0.400000  0.083333    0.00666667  11 t-inv F
 -0.200000  0.400000  0.083333    0.00666667  12 t-inv F
 -0.400000 -0.400000  0.083333    0.00666667  13 t-inv F
 -0.200000 -0.400000  0.083333    0.00666667  14 t-inv F
 -0.200000 -0.200000  0.083333    0.00666667  15 t-inv F
  0.000000  0.000000  0.250000    0.00666667  16 t-inv F
  0.200000  0.000000  0.250000    0.00666667  17 t-inv F
  0.400000 -0.000000  0.250000    0.00666667  18 t-inv F
 -0.400000  0.000000  0.250000    0.00666667  19 t-inv F
 -0.200000 -0.000000  0.250000    0.00666667  20 t-inv F
  0.200000  0.200000  0.250000    0.00666667  21 t-inv F
  0.400000  0.200000  0.250000    0.00666667  22 t-inv F
 -0.400000  0.200000  0.250000    0.00666667  23 t-inv F
 -0.200000  0.200000  0.250000    0.00666667  24 t-inv F
  0.400000  0.400000  0.250000    0.00666667  25 t-inv F
 -0.400000  0.400000  0.250000    0.00666667  26 t-inv F
 -0.200000  0.400000  0.250000    0.00666667  27 t-inv F
 -0.400000 -0.400000  0.250000    0.00666667  28 t-inv F
 -0.200000 -0.400000  0.250000    0.00666667  29 t-inv F
 -0.200000 -0.200000  0.250000    0.00666667  30 t-inv F
  0.000000  0.000000  0.416667    0.00666667  31 t-inv F
  0.200000  0.000000  0.416667    0.00666667  32 t-inv F
  0.400000 -0.000000  0.416667    0.00666667  33 t-inv F
 -0.400000  0.000000  0.416667    0.00666667  34 t-inv F
 -0.200000 -0.000000  0.416667    0.00666667  35 t-inv F
  0.200000  0.200000  0.416667    0.00666667  36 t-inv F
  0.400000  0.200000  0.416667    0.00666667  37 t-inv F
 -0.400000  0.200000  0.416667    0.00666667  38 t-inv F
 -0.200000  0.200000  0.416667    0.00666667  39 t-inv F
  0.400000  0.400000  0.416667    0.00666667  40 t-inv F
 -0.400000  0.400000  0.416667    0.00666667  41 t-inv F
 -0.200000  0.400000  0.416667    0.00666667  42 t-inv F
 -0.400000 -0.400000  0.416667    0.00666667  43 t-inv F
 -0.200000 -0.400000  0.416667    0.00666667  44 t-inv F
 -0.200000 -0.200000  0.416667    0.00666667  45 t-inv F
  0.000000  0.000000 -0.083333    0.00666667   1 t-inv F
 -0.200000 -0.000000 -0.083333    0.00666667   2 t-inv F
 -0.000000 -0.200000 -0.083333    0.00666667   2 t-inv F
  0.000000  0.200000  0.083333    0.00666667   2 t-inv F
 -0.400000  0.000000 -0.083333    0.00666667   3 t-inv F
  0.000000 -0.400000 -0.083333    0.00666667   3 t-inv F
 -0.000000  0.400000  0.083333    0.00666667   3 t-inv F
  0.400000 -0.000000 -0.083333    0.00666667   4 t-inv F
 -0.000000  0.400000 -0.083333    0.00666667   4 t-inv F
  0.000000 -0.400000  0.083333    0.00666667   4 t-inv F
  0.200000  0.000000 -0.083333    0.00666667   5 t-inv F
  0.000000  0.200000 -0.083333    0.00666667   5 t-inv F
 -0.000000 -0.200000  0.083333    0.00666667   5 t-inv F
 -0.200000 -0.200000 -0.083333    0.00666667   6 t-inv F
 -0.400000 -0.200000 -0.083333    0.00666667   7 t-inv F
 -0.200000 -0.400000 -0.083333    0.00666667   7 t-inv F
  0.200000  0.400000  0.083333    0.00666667   7 t-inv F
  0.400000 -0.200000 -0.083333    0.00666667   8 t-inv F
 -0.200000  0.400000 -0.083333    0.00666667   8 t-inv F
  0.200000 -0.400000  0.083333    0.00666667   8 t-inv F
  0.200000 -0.200000 -0.083333    0.00666667   9 t-inv F
 -0.200000  0.200000 -0.083333    0.00666667   9 t-inv F
  0.200000 -0.200000  0.083333    0.00666667   9 t-inv F
 -0.400000 -0.400000 -0.083333    0.00666667  10 t-inv F
  0.400000 -0.400000 -0.083333    0.00666667  11 t-inv F
 -0.400000  0.400000 -0.083333    0.00666667  11 t-inv F
  0.400000 -0.400000  0.083333    0.00666667  11 t-inv F
  0.200000 -0.400000 -0.083333    0.00666667  12 t-inv F
 -0.400000  0.200000 -0.083333    0.00666667  12 t-inv F
  0.400000 -0.200000  0.083333    0.00666667  12 t-inv F
  0.400000  0.400000 -0.083333    0.00666667  13 t-inv F
  0.200000  0.400000 -0.083333    0.00666667  14 t-inv F
  0.400000  0.200000 -0.083333    0.00666667  14 t-inv F
 -0.400000 -0.200000  0.083333    0.00666667  14 t-inv F
  0.200000  0.200000 -0.083333    0.00666667  15 t-inv F
  0.000000  0.000000 -0.250000    0.00666667  16 t-inv F
 -0.200000 -0.000000 -0.250000    0.00666667  17 t-inv F
 -0.000000 -0.200000 -0.250000    0.00666667  17 t-inv F
  0.000000  0.200000  0.250000    0.00666667  17 t-inv F
 -0.400000  0.000000 -0.250000    0.00666667  18 t-inv F
  0.000000 -0.400000 -0.250000    0.00666667  18 t-inv F
 -0.000000  0.400000  0.250000    0.00666667  18 t-inv F
  0.400000 -0.000000 -0.250000    0.00666667  19 t-inv F
 -0.000000  0.400000 -0.250000    0.00666667  19 t-inv F
  0.000000 -0.400000  0.250000    0.00666667  19 t-inv F
  0.200000  0.000000 -0.250000    0.00666667  20 t-inv F
  0.000000  0.200000 -0.250000    0.00666667  20 t-inv F
 -0.000000 -0.200000  0.250000    0.00666667  20 t-inv F
 -0.200000 -0.200000 -0.250000    0.00666667  21 t-inv F
 -0.400000 -0.200000 -0.250000    0.00666667  22 t-inv F
 -0.200000 -0.400000 -0.250000    0.00666667  22 t-inv F
  0.200000  0.400000  0.250000    0.00666667  22 t-inv F
  0.400000 -0.200000 -0.250000    0.00666667  23 t-inv F
 -0.200000  0.400000 -0.250000    0.00666667  23 t-inv F
  0.200000 -0.400000  0.250000    0.00666667  23 t-inv F
  0.200000 -0.200000 -0.250000    0.00666667  24 t-inv F
 -0.200000  0.200000 -0.250000    0.00666667  24 t-inv F
  0.200000 -0.200000  0.250000    0.00666667  24 t-inv F
 -0.400000 -0.400000 -0.250000    0.00666667  25 t-inv F
  0.400000 -0.400000 -0.250000    0.00666667  26 t-inv F
 -0.400000  0.400000 -0.250000    0.00666667  26 t-inv F
  0.400000 -0.400000  0.250000    0.00666667  26 t-inv F
  0.200000 -0.400000 -0.250000    0.00666667  27 t-inv F
 -0.400000  0.200000 -0.250000    0.00666667  27 t-inv F
  0.400000 -0.200000  0.250000    0.00666667  27 t-inv F
  0.400000  0.400000 -0.250000    0.00666667  28 t-inv F
  0.200000  0.400000 -0.250000    0.00666667  29 t-inv F
  0.400000  0.200000 -0.250000    0.00666667  29 t-inv F
 -0.400000 -0.200000  0.250000    0.00666667  29 t-inv F
  0.200000  0.200000 -0.250000    0.00666667  30 t-inv F
  0.000000  0.000000 -0.416667    0.00666667  31 t-inv F
 -0.200000 -0.000000 -0.416667    0.00666667  32 t-inv F
 -0.000000 -0.200000 -0.416667    0.00666667  32 t-inv F
  0.000000  0.200000  0.416667    0.00666667  32 t-inv F
 -0.400000  0.000000 -0.416667    0.00666667  33 t-inv F
  0.000000 -0.400000 -0.416667    0.00666667  33 t-inv F
 -0.000000  0.400000  0.416667    0.00666667  33 t-inv F
  0.400000 -0.000000 -0.416667    0.00666667  34 t-inv F
 -0.000000  0.400000 -0.416667    0.00666667  34 t-inv F
  0.000000 -0.400000  0.416667    0.00666667  34 t-inv F
  0.200000  0.000000 -0.416667    0.00666667  35 t-inv F
  0.000000  0.200000 -0.416667    0.00666667  35 t-inv F
 -0.000000 -0.200000  0.416667    0.00666667  35 t-inv F
 -0.200000 -0.200000 -0.416667    0.00666667  36 t-inv F
 -0.400000 -0.200000 -0.416667    0.00666667  37 t-inv F
 -0.200000 -0.400000 -0.416667    0.00666667  37 t-inv F
  0.200000  0.400000  0.416667    0.00666667  37 t-inv F
  0.400000 -0.200000 -0.416667    0.00666667  38 t-inv F
 -0.200000  0.400000 -0.416667    0.00666667  38 t-inv F
  0.200000 -0.400000  0.416667    0.00666667  38 t-inv F
  0.200000 -0.200000 -0.416667    0.00666667  39 t-inv F
 -0.200000  0.200000 -0.416667    0.00666667  39 t-inv F
  0.200000 -0.200000  0.416667    0.00666667  39 t-inv F
 -0.400000 -0.400000 -0.416667    0.00666667  40 t-inv F
  0.400000 -0.400000 -0.416667    0.00666667  41 t-inv F
 -0.400000  0.400000 -0.416667    0.00666667  41 t-inv F
  0.400000 -0.400000  0.416667    0.00666667  41 t-inv F
  0.200000 -0.400000 -0.416667    0.00666667  42 t-inv F
 -0.400000  0.200000 -0.416667    0.00666667  42 t-inv F
  0.400000 -0.200000  0.416667    0.00666667  42 t-inv F
  0.400000  0.400000 -0.416667    0.00666667  43 t-inv F
  0.200000  0.400000 -0.416667    0.00666667  44 t-inv F
  0.400000  0.200000 -0.416667    0.00666667  44 t-inv F
 -0.400000 -0.200000  0.416667    0.00666667  44 t-inv F
  0.200000  0.200000 -0.416667    0.00666667  45 t-inv F


--------------------------------------------------------------------------------------------------------




 Dimension of arrays:
   k-points           NKPTS =     45   k-points in BZ     NKDIM =    150   number of bands    NBANDS=    196
   number of dos      NEDOS =    301   number of ions     NIONS =     24
   non local maximal  LDIM  =      6   non local SUM 2l+1 LMDIM =     18
   total plane-waves  NPLWV =  57600
   max r-space proj   IRMAX =      1   max aug-charges    IRDMAX=  12528
   dimension x,y,z NGX =    40 NGY =   40 NGZ =   36
   dimension x,y,z NGXF=    80 NGYF=   80 NGZF=   72
   support grid    NGXF=    80 NGYF=   80 NGZF=   72
   ions per type =               2  22
   NGX,Y,Z   is equivalent  to a cutoff of   8.16,  8.16,  8.86 a.u.
   NGXF,Y,Z  is equivalent  to a cutoff of  16.32, 16.32, 17.72 a.u.

 SYSTEM =  unknown system                          
 POSCAR =  Nd2 Zn22                                

 Startparameter for this run:
   NWRITE =      2    write-flag & timer
   PREC   = normal    normal or accurate (medium, high low for compatibility)
   ISTART =      0    job   : 0-new  1-cont  2-samecut
   ICHARG =      2    charge: 1-file 2-atom 10-const
   ISPIN  =      1    spin polarized calculation?
   LNONCOLLINEAR =      F non collinear calculations
   LSORBIT =      F    spin-orbit coupling
   INIWAV =      1    electr: 0-lowe 1-rand  2-diag
   LASPH  =      T    aspherical Exc in radial PAW
 Electronic Relaxation 1
   ENCUT  =  400.0 eV  29.40 Ry    5.42 a.u.  13.29 13.29 11.01*2*pi/ulx,y,z
   ENINI  =  400.0     initial cutoff
   ENAUG  =  575.9 eV  augmentation charge cutoff
   NELM   =    100;   NELMIN=  2; NELMDL= -5     # of ELM steps 
   EDIFF  = 0.1E-06   stopping-criterion for ELM
   LREAL  =      F    real-space projection
   NLSPLINE    = F    spline interpolate recip. space projectors
   LCOMPAT=      F    compatible to vasp.4.4
   GGA_COMPAT  = T    GGA compatible to vasp.4.4-vasp.4.6
   LMAXPAW     = -100 max onsite density
   LMAXMIX     =    2 max onsite mixed and CHGCAR
   VOSKOWN=      0    Vosko Wilk Nusair interpolation
   ROPT   =    0.00000   0.00000
 Ionic relaxation
   EDIFFG = -.5E-02   stopping-criterion for IOM
   NSW    =    300    number of steps for IOM
   NBLOCK =      1;   KBLOCK =    300    inner block; outer block 
   IBRION =      2    ionic relax: 0-MD 1-quasi-New 2-CG
   NFREE  =      1    steps in history (QN), initial steepest desc. (CG)
   ISIF   =      3    stress and relaxation
   IWAVPR =     11    prediction:  0-non 1-charg 2-wave 3-comb
   ISYM   =      3    0-nonsym 1-usesym 2-fastsym
   LCORR  =      T    Harris-Foulkes like correction to forces

   POTIM  = 0.5000    time-step for ionic-motion
   TEIN   =    0.0    initial temperature
   TEBEG  =    0.0;   TEEND  =   0.0 temperature during run
   SMASS  =  -3.00    Nose mass-parameter (am)
   estimated Nose-frequenzy (Omega)   =  0.10E-29 period in steps = 0.13E+47 mass=  -0.152E-26a.u.
   SCALEE = 1.0000    scale energy and forces
   NPACO  =    256;   APACO  = 10.0  distance and # of slots for P.C.
   PSTRESS=    0.0 pullay stress

  Mass of Ions in am
   POMASS = 144.24 65.39
  Ionic Valenz
   ZVAL   =  11.00 12.00
  Atomic Wigner-Seitz radii
   RWIGS  =  -1.00 -1.00
  virtual crystal weights 
   VCA    =   1.00  1.00
   NELECT =     286.0000    total number of electrons
   NUPDOWN=      -1.0000    fix difference up-down

 DOS related values:
   EMIN   =  10.00;   EMAX   =-10.00  energy-range for DOS
   EFERMI =   0.00;   METHOD = LEGACY      
   ISMEAR =     0;   SIGMA  =   0.10  broadening in eV -4-tet -1-fermi 0-gaus
   EFERMI_NEDOS =   21; number of points for ismear=-14 and -15

 Electronic relaxation 2 (details)
   IALGO  =     53    algorithm
   LDIAG  =      T    sub-space diagonalisation (order eigenvalues)
   LSUBROT=      F    optimize rotation matrix (better conditioning)
   LROBUST=      F    robust break criterion during scf (extrapolated energy error)
   ISEARCH=      0    line search for conjugate gradient (0, 1=use gradient)
   TURBO    =      0    0=normal 1=particle mesh
   IRESTART =      0    0=no restart 2=restart with 2 vectors
   NREBOOT  =      0    no. of reboots
   NMIN     =      0    reboot dimension
   EREF     =   0.00    reference energy to select bands
   IMIX   =      4    mixing-type and parameters
     AMIX     =   0.40;   BMIX     =  1.00
     AMIX_MAG =   1.60;   BMIX_MAG =  1.00
     AMIN     =   0.10
     WC   =   100.;   INIMIX=   1;  MIXPRE=   1;  MAXMIX= -45

 Intra band minimization:
   WEIMIN = 0.0010     energy-eigenvalue tresh-hold
   EBREAK =  0.13E-09  absolut break condition
   DEPER  =   0.30     relativ break condition  

   TIME   =   0.40     timestep for ELM

  volume/ion in A,a.u.               =      15.51       104.65
  Fermi-wavevector in a.u.,A,eV,Ry     =   1.499508  2.833660 30.593039  2.248525
  Thomas-Fermi vector in A             =   2.611129
 
 Write flags
   LWAVE        =      T    write WAVECAR
   LDOWNSAMPLE  =      F    k-point downsampling of WAVECAR
   LCHARG       =      F    write CHGCAR
   LVTOT        =      F    write LOCPOT, total local potential
   LVHAR        =      F    write LOCPOT, Hartree potential only
   WRT_POTENTIAL= false  ! write potential to hdf5 file
   LELF         =      F    write electronic localiz. function (ELF)
   LORBIT       =     10    0 simple, 1 ext, 2 COOP (PROOUT), +10 PAW based schemes


 Python interface
   PLUGINS active      =      F    recompile with -DPLUGINS to activate
 
 Dipole corrections
   LMONO      =      F    monopole corrections only (constant potential shift)
   LDIPOL     =      F    correct potential (dipole corrections)
   IDIPOL     =      0    1-x, 2-y, 3-z, 4-all directions 
   EPSILON    =  1.0000000 bulk dielectric constant
   LVACPOTAV  =      F  vacuum potentials using an averaging scheme for the charge density
   VACPOTFLAT =  0.1000000 required flatness to determine vacuum potential
 
Coulomb truncation method
  LTRUNCATE          =      F  Coulomb kernel truncation to be used

 
 Exchange correlation treatment:
   GGA     = PE    functional components
   XC_C    = 1    coefficients multiplying the functional components
   LIBXC   =     F    Libxc                    
   VOSKOWN =     0    Vosko Wilk Nusair interpolation
   EXXOEP  =     0    0=HF, 1=EXX-LHF (local Hartree Fock) 2=EXX OEP
   LHFCALC =     T    Hartree Fock is set to
   LSYMGRAD=     F    symmetrize gradient (conserves proper symmetry)
   PRECFOCK=fast      Normal, Fast or Accurate (Low or Medium for compatibility)
   LRHFCALC=     F    long range Hartree Fock
   LRSCOR  =     F    long range correlation only (use DFT for short range part)
   LTHOMAS =     F    Thomas Fermi screening in HF
   LMODELHF=     F    short range full HF, long range fraction AEXX
   FOCKCORR=     1    mode to apply convergence corrections
   LFOCKACE=     T    use Adeptively-Compressed-Exchange operator
   ENCUT4O =  -1.0   cutoff for four orbital integrals eV
   LMAXFOCK=     4    L truncation for augmentation on plane wave grid
   LMAXFOCKAE=  -1    L truncation for all-electron charge restoration on plane wave grid
   NMAXFOCKAE=   1    number of basis functions for all-electron charge restoration
   LFOCKAEDFT=     F  apply the AE augmentation even for DFT
   NKREDX  =     1    reduce k-point grid by
   NKREDY  =     1    reduce k-point grid by
   NKREDZ  =     1    reduce k-point grid by
   SHIFTRED=     F    shift reduced grid of Gamma
   HFKIDENT=     F    idential grid for each k-point
   ODDONLY =     F    use only odd q-grid points
   EVENONLY=     F    use only even q-grid points
   HFALPHA =   -1.0000 decay constant for conv. correction
   MCALPHA =    0.0000 extent of test-charge in conv. correction in multipole expansion
   AEXX    =    0.3600 exact exchange contribution
   HFSCREEN=    0.2000 screening length (either q_TF or 0.3 A-1)
   HFSCREENC=   0.2000 screening length for correlation (either q_TF or 0.3 A-1)
   HFRCUT  =    0.0000 spherical cutoff for potential kernel
   ALDAX   =    0.6400 LDA exchange part
   AGGAX   =    0.6400 GGA exchange part
   AMGGAX  =    0.6400 meta-GGA exchange part
   ALDAC   =    1.0000 LDA correlation
   AGGAC   =    1.0000 GGA correlation
   AMGGAC  =    1.0000 meta-GGA correlation
   ENCUTFOCK=  -1.0 apply spherical cutoff to Coloumb kernel
   NBANDSGWLOW=     1    first orbital included in HF term
   NBLOCK_FOCK=    64    blocking factor in FOCK_ACC

 Parameters of functionals:
   PE:
     No parameter
 
 Van der Waals corrections
   IVDW    =     0    specifies the selected vdW correction

 Linear response parameters
   LEPSILON=     F    determine dielectric tensor
   LRPA    =     F    only Hartree local field effects (RPA)
   LNABLA  =     F    use nabla operator in PAW spheres
   LVEL    =     F    velocity operator in full k-point grid
   CSHIFT  =0.1000    complex shift for real part using Kramers Kronig
   OMEGAMAX=  -1.0    maximum frequency
   DEG_THRESHOLD= 0.2000000E-02 threshold for treating states as degnerate
   RTIME   =   -0.100 relaxation time in fs
  (WPLASMAI=    0.000 imaginary part of plasma frequency in eV, 0.658/RTIME)
   DFIELD  = 0.0000000 0.0000000 0.0000000 field for delta impulse in time
 
  Optional k-point grid parameters
   LKPOINTS_OPT  =     F    use optional k-point grid
   KPOINTS_OPT_MODE=     1    mode for optional k-point grid
 
 Orbital magnetization related:
   ORBITALMAG=     F  switch on orbital magnetization
   LCHIMAG   =     F  perturbation theory with respect to B field
   DQ        =  0.001000  dq finite difference perturbation B field
   LLRAUG    =     F  two centre corrections for induced B field
   LBONE     =     F  B-component reconstruction in AE one-centre
   LVGVCALC  =     T  calculate vGv susceptibility
   LVGVAPPL  =     F  apply vGv susceptibility instead of pGv for G=0

 Random number generation:
   RANDOM_GENERATOR = DEFAULT
   PCG_SEED         = not used


--------------------------------------------------------------------------------------------------------


 conjugate gradient relaxation of ions
 charge density and potential will be updated during run
 non-spin polarized calculation
 Conjugate gradient for all bands (Freysoldt, et al. PRB 79, 241103 (2009))
 perform sub-space diagonalisation
    before iterative eigenvector-optimisation
 modified Broyden-mixing scheme, WC =      100.0
 initial mixing is a Kerker type mixing with AMIX =  0.4000 and BMIX =      1.0000
 Hartree-type preconditioning will be used
 using additional bands           53
 reciprocal scheme for non local part
 use partial core corrections
 no Harris-corrections to forces 
 use gradient corrections 
 use of overlap-Matrix (Vanderbilt PP)
 Gauss-broadening in eV      SIGMA  =   0.10


--------------------------------------------------------------------------------------------------------


  energy-cutoff  :      400.00
  volume of cell :      372.17
      direct lattice vectors                 reciprocal lattice vectors
     6.234386976 -5.251313876  0.000000000     0.080200347 -0.095214267  0.051477019
     6.234386976  5.251313876  0.000000000     0.080200347  0.095214267  0.051477019
    -3.648290255  0.000000000  5.683976118     0.000000000  0.000000000  0.175933181

  length of vectors
     8.151311452  8.151311452  6.754080714     0.134713532  0.134713532  0.175933181


 
 k-points in units of 2pi/SCALE and weight: Num irrep kpoints: 45                   
   0.00000000  0.00000000  0.01466110       0.013
   0.01604007 -0.01904285  0.02495650       0.027
   0.03208014 -0.03808571  0.03525191       0.027
  -0.03208014  0.03808571 -0.00592971       0.027
  -0.01604007  0.01904285  0.00436569       0.027
   0.03208014 -0.00000000  0.03525191       0.013
   0.04812021 -0.01904285  0.04554731       0.027
  -0.01604007  0.05712856  0.00436569       0.027
  -0.00000000  0.03808571  0.01466110       0.027
   0.06416028 -0.00000000  0.05584271       0.013
   0.00000000  0.07617141  0.01466110       0.027
   0.01604007  0.05712856  0.02495650       0.027
  -0.06416028  0.00000000 -0.02652052       0.013
  -0.04812021 -0.01904285 -0.01622511       0.027
  -0.03208014  0.00000000 -0.00592971       0.013
   0.00000000  0.00000000  0.04398330       0.013
   0.01604007 -0.01904285  0.05427870       0.027
   0.03208014 -0.03808571  0.06457410       0.027
  -0.03208014  0.03808571  0.02339249       0.027
  -0.01604007  0.01904285  0.03368789       0.027
   0.03208014 -0.00000000  0.06457410       0.013
   0.04812021 -0.01904285  0.07486951       0.027
  -0.01604007  0.05712856  0.03368789       0.027
  -0.00000000  0.03808571  0.04398330       0.027
   0.06416028 -0.00000000  0.08516491       0.013
   0.00000000  0.07617141  0.04398330       0.027
   0.01604007  0.05712856  0.05427870       0.027
  -0.06416028  0.00000000  0.00280168       0.013
  -0.04812021 -0.01904285  0.01309708       0.027
  -0.03208014  0.00000000  0.02339249       0.013
   0.00000000  0.00000000  0.07330549       0.013
   0.01604007 -0.01904285  0.08360090       0.027
   0.03208014 -0.03808571  0.09389630       0.027
  -0.03208014  0.03808571  0.05271468       0.027
  -0.01604007  0.01904285  0.06301009       0.027
   0.03208014 -0.00000000  0.09389630       0.013
   0.04812021 -0.01904285  0.10419170       0.027
  -0.01604007  0.05712856  0.06301009       0.027
  -0.00000000  0.03808571  0.07330549       0.027
   0.06416028 -0.00000000  0.11448711       0.013
   0.00000000  0.07617141  0.07330549       0.027
   0.01604007  0.05712856  0.08360090       0.027
  -0.06416028  0.00000000  0.03212388       0.013
  -0.04812021 -0.01904285  0.04241928       0.027
  -0.03208014  0.00000000  0.05271468       0.013
 
 k-points in reciprocal lattice and weights: Num irrep kpoints: 45                   
   0.00000000  0.00000000  0.08333333       0.013
   0.20000000  0.00000000  0.08333333       0.027
   0.40000000 -0.00000000  0.08333333       0.027
  -0.40000000  0.00000000  0.08333333       0.027
  -0.20000000 -0.00000000  0.08333333       0.027
   0.20000000  0.20000000  0.08333333       0.013
   0.40000000  0.20000000  0.08333333       0.027
  -0.40000000  0.20000000  0.08333333       0.027
  -0.20000000  0.20000000  0.08333333       0.027
   0.40000000  0.40000000  0.08333333       0.013
  -0.40000000  0.40000000  0.08333333       0.027
  -0.20000000  0.40000000  0.08333333       0.027
  -0.40000000 -0.40000000  0.08333333       0.013
  -0.20000000 -0.40000000  0.08333333       0.027
  -0.20000000 -0.20000000  0.08333333       0.013
   0.00000000  0.00000000  0.25000000       0.013
   0.20000000  0.00000000  0.25000000       0.027
   0.40000000 -0.00000000  0.25000000       0.027
  -0.40000000  0.00000000  0.25000000       0.027
  -0.20000000 -0.00000000  0.25000000       0.027
   0.20000000  0.20000000  0.25000000       0.013
   0.40000000  0.20000000  0.25000000       0.027
  -0.40000000  0.20000000  0.25000000       0.027
  -0.20000000  0.20000000  0.25000000       0.027
   0.40000000  0.40000000  0.25000000       0.013
  -0.40000000  0.40000000  0.25000000       0.027
  -0.20000000  0.40000000  0.25000000       0.027
  -0.40000000 -0.40000000  0.25000000       0.013
  -0.20000000 -0.40000000  0.25000000       0.027
  -0.20000000 -0.20000000  0.25000000       0.013
   0.00000000  0.00000000  0.41666667       0.013
   0.20000000  0.00000000  0.41666667       0.027
   0.40000000 -0.00000000  0.41666667       0.027
  -0.40000000  0.00000000  0.41666667       0.027
  -0.20000000 -0.00000000  0.41666667       0.027
   0.20000000  0.20000000  0.41666667       0.013
   0.40000000  0.20000000  0.41666667       0.027
  -0.40000000  0.20000000  0.41666667       0.027
  -0.20000000  0.20000000  0.41666667       0.027
   0.40000000  0.40000000  0.41666667       0.013
  -0.40000000  0.40000000  0.41666667       0.027
  -0.20000000  0.40000000  0.41666667       0.027
  -0.40000000 -0.40000000  0.41666667       0.013
  -0.20000000 -0.40000000  0.41666667       0.027
  -0.20000000 -0.20000000  0.41666667       0.013
 
 position of ions in fractional coordinates (direct lattice) 
   0.74957096  0.74957096  0.37454770
   0.25042904  0.25042904  0.62545230
   0.16681066  0.57786078  0.44457077
   0.33361329  0.92249404  0.20024367
   0.25045020  0.25045020  0.12552375
   0.74954980  0.74954980  0.87447625
   0.00000000  0.50000000  0.00000000
   0.00000000  0.00000000  0.00000000
   0.50000000  0.50000000  0.50000000
   0.50000000  0.00000000  0.00000000
   0.92249404  0.33361329  0.20024367
   0.83350204  0.07761476  0.27790852
   0.66653675  0.42288558  0.86682114
   0.57786078  0.16681066  0.44457077
   0.57711442  0.33346325  0.13317886
   0.92238524  0.16649796  0.72209148
   0.66638671  0.07750596  0.79975633
   0.83318934  0.42213922  0.55542923
   0.07750596  0.66638671  0.79975633
   0.16649796  0.92238524  0.72209148
   0.33346325  0.57711442  0.13317886
   0.42213922  0.83318934  0.55542923
   0.42288558  0.66653675  0.86682114
   0.07761476  0.83350204  0.27790852
 
 position of ions in cartesian coordinates  (Angst):
   7.97977214  0.00000000  2.12892018
   0.84071156  0.00000000  3.55505594
   3.02064672  2.15855320  2.52692964
   7.10051215  3.09239765  1.13818024
   2.66485986 -0.00000000  0.71347400
   6.15562384 -0.00000000  4.97050212
   3.11719349  2.62565694  0.00000000
   0.00000000  0.00000000  0.00000000
   4.41024185  0.00000000  2.84198806
   3.11719349 -2.62565694  0.00000000
   7.10051215 -3.09239765  1.13818024
   4.66636377 -3.96940136  1.57962539
   3.62946527 -1.27948877  4.92699066
   3.02064672 -2.15855320  2.52692964
   5.19101843 -1.27948877  0.75698546
   4.15411993 -3.96940136  4.10435073
   1.71997155 -3.09239765  4.54579588
   5.79983698 -2.15855320  3.15704648
   1.71997155  3.09239765  4.54579588
   4.15411993  3.96940136  4.10435073
   5.19101843  1.27948877  0.75698546
   5.79983698  2.15855320  3.15704648
   3.62946527  1.27948877  4.92699066
   4.66636377  3.96940136  1.57962539
 


--------------------------------------------------------------------------------------------------------


 k-point     1 :   0.0000 0.0000 0.0833  plane waves:    6769
 k-point     2 :   0.2000 0.0000 0.0833  plane waves:    6758
 k-point     3 :   0.4000-0.0000 0.0833  plane waves:    6753
 k-point     4 :  -0.4000 0.0000 0.0833  plane waves:    6761
 k-point     5 :  -0.2000-0.0000 0.0833  plane waves:    6768
 k-point     6 :   0.2000 0.2000 0.0833  plane waves:    6753
 k-point     7 :   0.4000 0.2000 0.0833  plane waves:    6752
 k-point     8 :  -0.4000 0.2000 0.0833  plane waves:    6743
 k-point     9 :  -0.2000 0.2000 0.0833  plane waves:    6747
 k-point    10 :   0.4000 0.4000 0.0833  plane waves:    6738
 k-point    11 :  -0.4000 0.4000 0.0833  plane waves:    6738
 k-point    12 :  -0.2000 0.4000 0.0833  plane waves:    6760
 k-point    13 :  -0.4000-0.4000 0.0833  plane waves:    6745
 k-point    14 :  -0.2000-0.4000 0.0833  plane waves:    6751
 k-point    15 :  -0.2000-0.2000 0.0833  plane waves:    6759
 k-point    16 :   0.0000 0.0000 0.2500  plane waves:    6764
 k-point    17 :   0.2000 0.0000 0.2500  plane waves:    6763
 k-point    18 :   0.4000-0.0000 0.2500  plane waves:    6759
 k-point    19 :  -0.4000 0.0000 0.2500  plane waves:    6762
 k-point    20 :  -0.2000-0.0000 0.2500  plane waves:    6765
 k-point    21 :   0.2000 0.2000 0.2500  plane waves:    6761
 k-point    22 :   0.4000 0.2000 0.2500  plane waves:    6757
 k-point    23 :  -0.4000 0.2000 0.2500  plane waves:    6765
 k-point    24 :  -0.2000 0.2000 0.2500  plane waves:    6761
 k-point    25 :   0.4000 0.4000 0.2500  plane waves:    6773
 k-point    26 :  -0.4000 0.4000 0.2500  plane waves:    6764
 k-point    27 :  -0.2000 0.4000 0.2500  plane waves:    6759
 k-point    28 :  -0.4000-0.4000 0.2500  plane waves:    6775
 k-point    29 :  -0.2000-0.4000 0.2500  plane waves:    6762
 k-point    30 :  -0.2000-0.2000 0.2500  plane waves:    6766
 k-point    31 :   0.0000 0.0000 0.4167  plane waves:    6760
 k-point    32 :   0.2000 0.0000 0.4167  plane waves:    6778
 k-point    33 :   0.4000-0.0000 0.4167  plane waves:    6781
 k-point    34 :  -0.4000 0.0000 0.4167  plane waves:    6760
 k-point    35 :  -0.2000-0.0000 0.4167  plane waves:    6752
 k-point    36 :   0.2000 0.2000 0.4167  plane waves:    6768
 k-point    37 :   0.4000 0.2000 0.4167  plane waves:    6766
 k-point    38 :  -0.4000 0.2000 0.4167  plane waves:    6777
 k-point    39 :  -0.2000 0.2000 0.4167  plane waves:    6770
 k-point    40 :   0.4000 0.4000 0.4167  plane waves:    6772
 k-point    41 :  -0.4000 0.4000 0.4167  plane waves:    6775
 k-point    42 :  -0.2000 0.4000 0.4167  plane waves:    6778
 k-point    43 :  -0.4000-0.4000 0.4167  plane waves:    6760
 k-point    44 :  -0.2000-0.4000 0.4167  plane waves:    6758
 k-point    45 :  -0.2000-0.2000 0.4167  plane waves:    6745

 maximum and minimum number of plane-waves per node :      6781     6738

 maximum number of plane-waves:      6781
 maximum index in each direction: 
   IXMAX=   13   IYMAX=   13   IZMAX=   10
   IXMIN=  -13   IYMIN=  -13   IZMIN=  -11


 serial   3D FFT for wavefunctions
 parallel 3D FFT for charge:
    minimum data exchange during FFTs selected (reduces bandwidth)


 FFT grid for exact exchange (Hartree Fock) 
  NGX = 28; NGY = 28; NGZ = 24

 
 Radii for the augmentation spheres in the non-local exchange
 for species   1 augmentation radius   1.784 (default was   1.321)
       energy cutoff for augmentation   1600.0
 for species   2 augmentation radius   1.285 (default was   0.952)
       energy cutoff for augmentation   1600.0
 Maximum index for augmentation-charges in exchange         1196
  SETUP_FOCK is finished

 total amount of memory used by VASP MPI-rank0   238296. kBytes
=======================================================================

   base                                    :      30000. kBytes
   nonl-proj                               :      90792. kBytes
   fftplans                                :        838. kBytes
   grid                                    :       3316. kBytes
   one-center                              :        373. kBytes
   HF                                      :        129. kBytes
   nonlr-proj                              :       3198. kBytes
   wavefun                                 :     109650. kBytes
 
     INWAV:  cpu time      0.0000: real time      0.0003
 Broyden mixing: mesh for mixing (old mesh)
   NGX = 27   NGY = 27   NGZ = 21
  (NGX  = 80   NGY  = 80   NGZ  = 72)
  gives a total of  15309 points

 initial charge density was supplied:
 charge density of overlapping atoms calculated
 number of electron     286.0000000 magnetization 
 keeping initial charge density in first step


--------------------------------------------------------------------------------------------------------


 Maximum index for augmentation-charges          581 (set IRDMAX)


--------------------------------------------------------------------------------------------------------


 First call to EWALD:  gamma=   0.246
 Maximum number of real-space cells   3x   3x   3
 Maximum number of reciprocal cells   3x   3x   3

    FEWALD:  cpu time      0.0116: real time      0.0125


--------------------------------------- Ionic step        1  -------------------------------------------




--------------------------------------- Iteration      1(   1)  ---------------------------------------


    POTLOK:  cpu time      0.0270: real time      0.0546
    SETDIJ:  cpu time      0.0588: real time      0.0593
    TRIAL :  cpu time      1.9136: real time      2.1149
    CORREC:  cpu time      0.0005: real time      0.0005
    --------------------------------------------
      LOOP:  cpu time      2.0402: real time      2.2709

 eigenvalue-minimisations  : 17808
 total energy-change (2. order) :-0.1469833E+05  (-0.1099572E+05)
 number of electron     286.0000000 magnetization 
 augmentation part      286.0000000 magnetization 

 Free energy of the ion-electron system (eV)
  ---------------------------------------------------
  alpha Z        PSCENC =      2603.56727696
  Ewald energy   TEWEN  =    -27579.06700626
  -Hartree energ DENC   =    -11963.08099586
  -exchange      EXHF   =         0.00000000
  -V(xc)+E(xc)   XCENC  =      1317.21630576
  PAW double counting   =     33455.82020933   -53433.42601386
  entropy T*S    EENTRO =        -0.01119533
  eigenvalues    EBANDS =       605.21208777
  atomic energy  EATOM  =     40295.43582725
  ---------------------------------------------------
  free energy    TOTEN  =    -14698.33350422 eV

  energy without entropy =   -14698.32230890  energy(sigma->0) =   -14698.32790656
  exchange ACFDT corr.  =         0.00000000  see jH, gK, PRB 81, 115126


--------------------------------------------------------------------------------------------------------




--------------------------------------- Iteration      1(   2)  ---------------------------------------


    TRIAL :  cpu time      2.1576: real time      2.1674
    CORREC:  cpu time      0.0004: real time      0.0004
    --------------------------------------------
      LOOP:  cpu time      2.1782: real time      2.1905

 eigenvalue-minimisations  : 21672
 total energy-change (2. order) :-0.2163394E+04  (-0.2080325E+04)
 number of electron     286.0000000 magnetization 
 augmentation part      286.0000000 magnetization 

 Free energy of the ion-electron system (eV)
  ---------------------------------------------------
  alpha Z        PSCENC =      2603.56727696
  Ewald energy   TEWEN  =    -27579.06700626
  -Hartree energ DENC   =    -11963.08099586
  -exchange      EXHF   =         0.00000000
  -V(xc)+E(xc)   XCENC  =      1317.21630576
  PAW double counting   =     33455.82020933   -53433.42601386
  entropy T*S    EENTRO =        -0.03281245
  eigenvalues    EBANDS =     -1558.15982279
  atomic energy  EATOM  =     40295.43582725
  ---------------------------------------------------
  free energy    TOTEN  =    -16861.72703191 eV

  energy without entropy =   -16861.69421945  energy(sigma->0) =   -16861.71062568
  exchange ACFDT corr.  =         0.00000000  see jH, gK, PRB 81, 115126


--------------------------------------------------------------------------------------------------------




--------------------------------------- Iteration      1(   3)  ---------------------------------------


    TRIAL :  cpu time      2.5072: real time      2.5184
    CORREC:  cpu time      0.0005: real time      0.0005
    --------------------------------------------
      LOOP:  cpu time      2.5271: real time      2.5410

 eigenvalue-minimisations  : 25256
 total energy-change (2. order) :-0.6519011E+03  (-0.6287626E+03)
 number of electron     286.0000000 magnetization 
 augmentation part      286.0000000 magnetization 

 Free energy of the ion-electron system (eV)
  ---------------------------------------------------
  alpha Z        PSCENC =      2603.56727696
  Ewald energy   TEWEN  =    -27579.06700626
  -Hartree energ DENC   =    -11963.08099586
  -exchange      EXHF   =         0.00000000
  -V(xc)+E(xc)   XCENC  =      1317.21630576
  PAW double counting   =     33455.82020933   -53433.42601386
  entropy T*S    EENTRO =        -0.03108505
  eigenvalues    EBANDS =     -2210.06261710
  atomic energy  EATOM  =     40295.43582725
  ---------------------------------------------------
  free energy    TOTEN  =    -17513.62809881 eV

  energy without entropy =   -17513.59701376  energy(sigma->0) =   -17513.61255629
  exchange ACFDT corr.  =         0.00000000  see jH, gK, PRB 81, 115126


--------------------------------------------------------------------------------------------------------




--------------------------------------- Iteration      1(   4)  ---------------------------------------


    TRIAL :  cpu time      3.0267: real time      3.0398
    CORREC:  cpu time      0.0004: real time      0.0004
    --------------------------------------------
      LOOP:  cpu time      3.0489: real time      3.0628

 eigenvalue-minimisations  : 30884
 total energy-change (2. order) :-0.1325193E+03  (-0.1300066E+03)
 number of electron     286.0000000 magnetization 
 augmentation part      286.0000000 magnetization 

 Free energy of the ion-electron system (eV)
  ---------------------------------------------------
  alpha Z        PSCENC =      2603.56727696
  Ewald energy   TEWEN  =    -27579.06700626
  -Hartree energ DENC   =    -11963.08099586
  -exchange      EXHF   =         0.00000000
  -V(xc)+E(xc)   XCENC  =      1317.21630576
  PAW double counting   =     33455.82020933   -53433.42601386
  entropy T*S    EENTRO =        -0.02387988
  eigenvalues    EBANDS =     -2342.58912447
  atomic energy  EATOM  =     40295.43582725
  ---------------------------------------------------
  free energy    TOTEN  =    -17646.14740101 eV

  energy without entropy =   -17646.12352114  energy(sigma->0) =   -17646.13546107
  exchange ACFDT corr.  =         0.00000000  see jH, gK, PRB 81, 115126


--------------------------------------------------------------------------------------------------------




--------------------------------------- Iteration      1(   5)  ---------------------------------------


    POTLOK:  cpu time      0.0192: real time      0.0193
    SETDIJ:  cpu time      0.1847: real time      0.1853
    TRIAL :  cpu time   1788.4465: real time   1797.2388
    CORREC:  cpu time      0.0006: real time      0.0015
    CHARGE:  cpu time      0.0861: real time      0.1049
    --------------------------------------------
      LOOP:  cpu time   1788.7531: real time   1797.5748

 eigenvalue-minimisations  : 30044
 total energy-change (2. order) : 0.1760737E+05  (-0.4029415E+02)
 number of electron     286.0000504 magnetization 
 augmentation part      181.1269127 magnetization 

 Free energy of the ion-electron system (eV)
  ---------------------------------------------------
  alpha Z        PSCENC =      2603.56727696
  Ewald energy   TEWEN  =    -27579.06700626
  -Hartree energ DENC   =    -11963.08099586
  -exchange      EXHF   =      1165.84114394
  -V(xc)+E(xc)   XCENC  =       859.21567059
  PAW double counting   =     33898.78080027   -37326.34171764
  entropy T*S    EENTRO =        -0.01269120
  eigenvalues    EBANDS =     -1993.12065050
  atomic energy  EATOM  =     40295.43582725
  ---------------------------------------------------
  free energy    TOTEN  =       -38.78234244 eV

  energy without entropy =      -38.76965125  energy(sigma->0) =      -38.77599685
  exchange ACFDT corr.  =        -0.00371971  see jH, gK, PRB 81, 115126


--------------------------------------------------------------------------------------------------------




--------------------------------------- Iteration      1(   6)  ---------------------------------------


    POTLOK:  cpu time      0.0406: real time      0.0430
    SETDIJ:  cpu time      0.1869: real time      0.1879
    TRIAL :  cpu time   1781.0241: real time   1789.7809
    CORREC:  cpu time      0.0226: real time      0.0234
    CHARGE:  cpu time      0.0887: real time      0.1316
    --------------------------------------------
      LOOP:  cpu time   1781.3897: real time   1790.1957

 eigenvalue-minimisations  :     0
 total energy-change (2. order) : 0.4438408E+01  (-0.2010297E+02)
 number of electron     286.0000497 magnetization 
 augmentation part      178.8658707 magnetization 

 Free energy of the ion-electron system (eV)
  ---------------------------------------------------
  alpha Z        PSCENC =      2603.56727696
  Ewald energy   TEWEN  =    -27579.06700626
  -Hartree energ DENC   =    -11850.97644502
  -exchange      EXHF   =      1133.29807471
  -V(xc)+E(xc)   XCENC  =       861.40301813
  PAW double counting   =     37553.42505303   -41159.13554536
  entropy T*S    EENTRO =        -0.01269120
  eigenvalues    EBANDS =     -1892.28149634
  atomic energy  EATOM  =     40295.43582725
  ---------------------------------------------------
  free energy    TOTEN  =       -34.34393409 eV

  energy without entropy =      -34.33124289  energy(sigma->0) =      -34.33758849
  exchange ACFDT corr.  =        -0.00123954  see jH, gK, PRB 81, 115126


--------------------------------------------------------------------------------------------------------




--------------------------------------- Iteration      1(   7)  ---------------------------------------


    POTLOK:  cpu time      0.0413: real time      0.0462
    SETDIJ:  cpu time      0.1881: real time      0.1894
    TRIAL :  cpu time   1784.1034: real time   1792.9405
    CORREC:  cpu time      0.0060: real time      0.0069
    CHARGE:  cpu time      0.0848: real time      0.1027
    --------------------------------------------
      LOOP:  cpu time   1784.4444: real time   1793.3106

 eigenvalue-minimisations  :     0
 total energy-change (2. order) :-0.9696009E+01  (-0.2723421E+01)
 number of electron     286.0000497 magnetization 
 augmentation part      178.9593274 magnetization 

 Free energy of the ion-electron system (eV)
  ---------------------------------------------------
  alpha Z        PSCENC =      2603.56727696
  Ewald energy   TEWEN  =    -27579.06700626
  -Hartree energ DENC   =    -11692.84343553
  -exchange      EXHF   =      1123.55371729
  -V(xc)+E(xc)   XCENC  =       853.38867000
  PAW double counting   =     37620.62988051   -41094.36609195
  entropy T*S    EENTRO =        -0.01760177
  eigenvalues    EBANDS =     -2174.32117980
  atomic energy  EATOM  =     40295.43582725
  ---------------------------------------------------
  free energy    TOTEN  =       -44.03994329 eV

  energy without entropy =      -44.02234151  energy(sigma->0) =      -44.03114240
  exchange ACFDT corr.  =        -0.09741931  see jH, gK, PRB 81, 115126


--------------------------------------------------------------------------------------------------------




--------------------------------------- Iteration      1(   8)  ---------------------------------------


    POTLOK:  cpu time      0.0408: real time      0.0444
    SETDIJ:  cpu time      0.1865: real time      0.1877
    TRIAL :  cpu time   1783.9923: real time   1792.6698
    CORREC:  cpu time      0.0039: real time      0.0050
    CHARGE:  cpu time      0.0831: real time      0.0928
    --------------------------------------------
      LOOP:  cpu time   1784.3324: real time   1793.0270

 eigenvalue-minimisations  :     0
 total energy-change (2. order) :-0.1221725E+01  (-0.1592888E+01)
 number of electron     286.0000498 magnetization 
 augmentation part      179.6582143 magnetization 

 Free energy of the ion-electron system (eV)
  ---------------------------------------------------
  alpha Z        PSCENC =      2603.56727696
  Ewald energy   TEWEN  =    -27579.06700626
  -Hartree energ DENC   =    -11748.23224647
  -exchange      EXHF   =      1124.07269611
  -V(xc)+E(xc)   XCENC  =       853.73135470
  PAW double counting   =     37786.05456781   -41274.22853857
  entropy T*S    EENTRO =        -0.02190518
  eigenvalues    EBANDS =     -2106.57369483
  atomic energy  EATOM  =     40295.43582725
  ---------------------------------------------------
  free energy    TOTEN  =       -45.26166849 eV

  energy without entropy =      -45.23976331  energy(sigma->0) =      -45.25071590
  exchange ACFDT corr.  =        -0.00666780  see jH, gK, PRB 81, 115126


--------------------------------------------------------------------------------------------------------




--------------------------------------- Iteration      1(   9)  ---------------------------------------


    POTLOK:  cpu time      0.0355: real time      0.0388
    SETDIJ:  cpu time      0.1882: real time      0.1891
    TRIAL :  cpu time   1783.1687: real time   1791.9551
    CORREC:  cpu time      0.0028: real time      0.0037
    CHARGE:  cpu time      0.0887: real time      0.1380
    --------------------------------------------
      LOOP:  cpu time   1783.5134: real time   1792.3561

 eigenvalue-minimisations  :     0
 total energy-change (2. order) :-0.7092292E+00  (-0.4416418E+00)
 number of electron     286.0000499 magnetization 
 augmentation part      179.6130528 magnetization 

 Free energy of the ion-electron system (eV)
  ---------------------------------------------------
  alpha Z        PSCENC =      2603.56727696
  Ewald energy   TEWEN  =    -27579.06700626
  -Hartree energ DENC   =    -11819.66652585
  -exchange      EXHF   =      1127.15324123
  -V(xc)+E(xc)   XCENC  =       856.13893444
  PAW double counting   =     37891.66613653   -41424.81772444
  entropy T*S    EENTRO =        -0.02245222
  eigenvalues    EBANDS =     -1996.35860531
  atomic energy  EATOM  =     40295.43582725
  ---------------------------------------------------
  free energy    TOTEN  =       -45.97089767 eV

  energy without entropy =      -45.94844545  energy(sigma->0) =      -45.95967156
  exchange ACFDT corr.  =        -0.00673237  see jH, gK, PRB 81, 115126


--------------------------------------------------------------------------------------------------------




--------------------------------------- Iteration      1(  10)  ---------------------------------------


    POTLOK:  cpu time      0.0383: real time      0.0444
    SETDIJ:  cpu time      0.1857: real time      0.1872
    TRIAL :  cpu time   1784.8978: real time   1793.4544
    CORREC:  cpu time      0.0028: real time      0.0039
    CHARGE:  cpu time      0.0887: real time      0.1276
    --------------------------------------------
      LOOP:  cpu time   1785.2362: real time   1793.8454

 eigenvalue-minimisations  :     0
 total energy-change (2. order) :-0.2161843E+00  (-0.2563662E+00)
 number of electron     286.0000498 magnetization 
 augmentation part      179.2618845 magnetization 

 Free energy of the ion-electron system (eV)
  ---------------------------------------------------
  alpha Z        PSCENC =      2603.56727696
  Ewald energy   TEWEN  =    -27579.06700626
  -Hartree energ DENC   =    -11797.98508328
  -exchange      EXHF   =      1127.01328094
  -V(xc)+E(xc)   XCENC  =       855.99908309
  PAW double counting   =     37897.25401158   -41426.41325730
  entropy T*S    EENTRO =        -0.02201855
  eigenvalues    EBANDS =     -2021.96919637
  atomic energy  EATOM  =     40295.43582725
  ---------------------------------------------------
  free energy    TOTEN  =       -46.18708195 eV

  energy without entropy =      -46.16506339  energy(sigma->0) =      -46.17607267
  exchange ACFDT corr.  =        -0.00542055  see jH, gK, PRB 81, 115126


--------------------------------------------------------------------------------------------------------




--------------------------------------- Iteration      1(  11)  ---------------------------------------


    POTLOK:  cpu time      0.0426: real time      0.0470
    SETDIJ:  cpu time      0.1850: real time      0.1858
    TRIAL :  cpu time   1786.1128: real time   1794.6970
    CORREC:  cpu time      0.0036: real time      0.0044
    CHARGE:  cpu time      0.0865: real time      0.0884
    --------------------------------------------
      LOOP:  cpu time   1786.4510: real time   1795.0486

 eigenvalue-minimisations  :     0
 total energy-change (2. order) :-0.1132756E+00  (-0.9719373E-01)
 number of electron     286.0000497 magnetization 
 augmentation part      179.2276176 magnetization 

 Free energy of the ion-electron system (eV)
  ---------------------------------------------------
  alpha Z        PSCENC =      2603.56727696
  Ewald energy   TEWEN  =    -27579.06700626
  -Hartree energ DENC   =    -11759.41216352
  -exchange      EXHF   =      1125.68944659
  -V(xc)+E(xc)   XCENC  =       854.95435761
  PAW double counting   =     37867.43185060   -41377.18347092
  entropy T*S    EENTRO =        -0.02205373
  eigenvalues    EBANDS =     -2077.69442213
  atomic energy  EATOM  =     40295.43582725
  ---------------------------------------------------
  free energy    TOTEN  =       -46.30035755 eV

  energy without entropy =      -46.27830382  energy(sigma->0) =      -46.28933068
  exchange ACFDT corr.  =        -0.00536684  see jH, gK, PRB 81, 115126


--------------------------------------------------------------------------------------------------------




--------------------------------------- Iteration      1(  12)  ---------------------------------------


    POTLOK:  cpu time      0.0388: real time      0.0426
    SETDIJ:  cpu time      0.1882: real time      0.1897
    TRIAL :  cpu time   1781.9533: real time   1791.4806
    CORREC:  cpu time      0.0025: real time      0.0033
    CHARGE:  cpu time      0.0885: real time      0.1281
    --------------------------------------------
      LOOP:  cpu time   1782.3012: real time   1791.8770

 eigenvalue-minimisations  :     0
 total energy-change (2. order) :-0.6277117E-01  (-0.4718441E-01)
 number of electron     286.0000497 magnetization 
 augmentation part      179.2830390 magnetization 

 Free energy of the ion-electron system (eV)
  ---------------------------------------------------
  alpha Z        PSCENC =      2603.56727696
  Ewald energy   TEWEN  =    -27579.06700626
  -Hartree energ DENC   =    -11765.93958425
  -exchange      EXHF   =      1125.79359760
  -V(xc)+E(xc)   XCENC  =       855.06053267
  PAW double counting   =     37856.31686005   -41368.27496283
  entropy T*S    EENTRO =        -0.02249269
  eigenvalues    EBANDS =     -2069.23317722
  atomic energy  EATOM  =     40295.43582725
  ---------------------------------------------------
  free energy    TOTEN  =       -46.36312872 eV

  energy without entropy =      -46.34063603  energy(sigma->0) =      -46.35188237
  exchange ACFDT corr.  =        -0.00582793  see jH, gK, PRB 81, 115126


--------------------------------------------------------------------------------------------------------




--------------------------------------- Iteration      1(  13)  ---------------------------------------


    POTLOK:  cpu time      0.0398: real time      0.0444
    SETDIJ:  cpu time      0.1883: real time      0.1896
