       N       E                     dE             d eps       ncg     rms           ort
DAV:   1    -0.205473768487E+05   -0.20547E+05   -0.31657E+05  2552   0.216E+03  
DAV:   2    -0.323100187195E+05   -0.11763E+05   -0.10928E+05  2552   0.583E+02  
DAV:   3    -0.358899284734E+05   -0.35799E+04   -0.33365E+04  2552   0.272E+02  
DAV:   4    -0.364614207245E+05   -0.57149E+03   -0.55556E+03  2552   0.124E+02  
DAV:   5    -0.728613897395E+03    0.35733E+05   -0.12971E+03  2552   0.105E+02  
SDA:   6    -0.385155332573E+03    0.34346E+03   -0.53647E+03  2552   0.134E+04   0.000E+00
DMP:   7    -0.640904131237E+03   -0.25575E+03   -0.21993E+02  2552   0.859E+02  -0.811E+02
DMP:   8    -0.630834330586E+03    0.10070E+02   -0.57274E+02  2552   0.184E+03  -0.106E+03
DMP:   9    -0.667059926457E+03   -0.36226E+02   -0.18332E+02  2552   0.312E+02   0.383E+02
DMP:  10    -0.674405563565E+03   -0.73456E+01   -0.44994E+01  2552   0.146E+02  -0.884E+01
DMP:  11    -0.677071635137E+03   -0.26661E+01   -0.36534E+01  2552   0.828E+01   0.224E+01
DMP:  12    -0.678839465053E+03   -0.17678E+01   -0.47611E+00  2552   0.130E+01  -0.280E+00
DMP:  13    -0.678968198205E+03   -0.12873E+00   -0.40227E+00  2552   0.122E+01  -0.551E+00
DMP:  14    -0.679211167795E+03   -0.24297E+00   -0.12660E+00  2552   0.237E+00   0.207E+00
DMP:  15    -0.679258696339E+03   -0.47529E-01   -0.30231E-01  2552   0.106E+00  -0.795E-01
DMP:  16    -0.679275816888E+03   -0.17121E-01   -0.30380E-01  2552   0.721E-01   0.101E-01
DMP:  17    -0.679292248577E+03   -0.16432E-01   -0.59615E-02  2552   0.125E-01   0.636E-02
DMP:  18    -0.679294620476E+03   -0.23719E-02   -0.36610E-02  2552   0.103E-01  -0.298E-02
DMP:  19    -0.679297077529E+03   -0.24571E-02   -0.16931E-02  2552   0.304E-02   0.313E-02
DMP:  20    -0.679298043775E+03   -0.96625E-03   -0.55619E-03  2552   0.117E-02   0.590E-03
DMP:  21    -0.679298422339E+03   -0.37856E-03   -0.36326E-03  2552   0.716E-03   0.502E-03
DMP:  22    -0.679298659448E+03   -0.23711E-03   -0.12739E-03  2552   0.210E-03   0.285E-03
DMP:  23    -0.679298745873E+03   -0.86426E-04   -0.72259E-04  2552   0.135E-03   0.119E-03
DMP:  24    -0.679298802974E+03   -0.57101E-04   -0.38907E-04  2552   0.571E-04   0.105E-03
DMP:  25    -0.679298833569E+03   -0.30595E-04   -0.19709E-04  2552   0.285E-04   0.544E-04
DMP:  26    -0.679298850256E+03   -0.16686E-04   -0.11735E-04  2552   0.167E-04   0.331E-04
DMP:  27    -0.679298860056E+03   -0.98005E-05   -0.62057E-05  2552   0.812E-05   0.193E-04
   1 F= -.67929886E+03 E0= -.67929886E+03  d E =-.679299E+03  mag=    -0.0000
       N       E                     dE             d eps       ncg     rms           ort
SDA:   1    -0.583770568500E+03    0.95528E+02   -0.12896E+03  2552   0.322E+03   0.000E+00
DMP:   2    -0.646502119261E+03   -0.62732E+02   -0.45482E+02  2552   0.111E+03   0.717E+01
DMP:   3    -0.674553237335E+03   -0.28051E+02   -0.12636E+02  2552   0.218E+02   0.258E+02
DMP:   4    -0.676467056036E+03   -0.19138E+01   -0.70135E+01  2552   0.263E+02  -0.230E+02
DMP:   5    -0.679185799034E+03   -0.27187E+01   -0.81916E+00  2552   0.337E+01  -0.346E+01
DMP:   6    -0.679636248051E+03   -0.45045E+00   -0.14568E+01  2552   0.356E+01   0.213E+00
DMP:   7    -0.680261192937E+03   -0.62494E+00   -0.31374E+00  2552   0.996E+00  -0.553E+00
DMP:   8    -0.680437176961E+03   -0.17598E+00   -0.78856E-01  2552   0.161E+00   0.945E-01
DMP:   9    -0.680446083143E+03   -0.89062E-02   -0.48348E-01  2552   0.179E+00  -0.152E+00
DMP:  10    -0.680472121270E+03   -0.26038E-01   -0.11440E-01  2552   0.250E-01   0.936E-02
DMP:  11    -0.680476495139E+03   -0.43739E-02   -0.95861E-02  2552   0.265E-01  -0.670E-02
DMP:  12    -0.680481517429E+03   -0.50223E-02   -0.16794E-02  2552   0.377E-02   0.111E-02
DMP:  13    -0.680482313005E+03   -0.79558E-03   -0.13407E-02  2552   0.344E-02  -0.232E-03
DMP:  14    -0.680482718171E+03   -0.40517E-03   -0.24436E-03  2552   0.111E-02  -0.131E-02
DMP:  15    -0.680482863232E+03   -0.14506E-03   -0.13614E-03  2552   0.299E-03   0.109E-03
DMP:  16    -0.680482910854E+03   -0.47622E-04   -0.69652E-04  2552   0.216E-03  -0.109E-03
DMP:  17    -0.680482951902E+03   -0.41048E-04   -0.18066E-04  2552   0.322E-04   0.339E-04
DMP:  18    -0.680482958284E+03   -0.63820E-05   -0.10823E-04  2552   0.315E-04  -0.117E-04
DMP:  19    -0.680482963793E+03   -0.55088E-05   -0.13959E-05  2552   0.391E-05  -0.111E-05
   2 F= -.68048296E+03 E0= -.68048296E+03  d E =-.118410E+01  mag=    -0.0000
       N       E                     dE             d eps       ncg     rms           ort
SDA:   1    -0.677167016889E+03    0.33159E+01   -0.27881E+01  2552   0.697E+01   0.000E+00
DMP:   2    -0.679316511416E+03   -0.21495E+01   -0.15610E+01  2552   0.246E+01   0.378E+01
DMP:   3    -0.680352421173E+03   -0.10359E+01   -0.37587E+00  2552   0.452E+00   0.128E+01
DMP:   4    -0.680537374404E+03   -0.18495E+00   -0.29628E-01  2552   0.798E-01  -0.149E-01
DMP:   5    -0.680531484793E+03    0.58896E-02   -0.11223E-01  2552   0.676E-01  -0.103E+00
DMP:   6    -0.680537139111E+03   -0.56543E-02   -0.22481E-01  2552   0.561E-01   0.215E-03
DMP:   7    -0.680553679077E+03   -0.16540E-01   -0.11972E-01  2552   0.198E-01   0.265E-01
DMP:   8    -0.680561730882E+03   -0.80518E-02   -0.33880E-02  2552   0.453E-02   0.103E-01
DMP:   9    -0.680563670643E+03   -0.19398E-02   -0.60356E-03  2552   0.104E-02   0.122E-02
DMP:  10    -0.680563911685E+03   -0.24104E-03   -0.17887E-03  2552   0.564E-03  -0.306E-03
DMP:  11    -0.680563994839E+03   -0.83154E-04   -0.11546E-03  2552   0.300E-03  -0.301E-04
DMP:  12    -0.680564073139E+03   -0.78301E-04   -0.67877E-04  2552   0.130E-03   0.103E-03
DMP:  13    -0.680564120117E+03   -0.46978E-04   -0.29727E-04  2552   0.496E-04   0.648E-04
DMP:  14    -0.680564139696E+03   -0.19579E-04   -0.10028E-04  2552   0.158E-04   0.242E-04
DMP:  15    -0.680564145428E+03   -0.57323E-05   -0.23602E-05  2552   0.425E-05   0.432E-05
   3 F= -.68056415E+03 E0= -.68056415E+03  d E =-.126529E+01  mag=     0.0000
       N       E                     dE             d eps       ncg     rms           ort
SDA:   1    -0.660373527069E+03    0.20191E+02   -0.19110E+02  2552   0.478E+02   0.000E+00
DMP:   2    -0.674268760733E+03   -0.13895E+02   -0.85331E+01  2552   0.131E+02   0.217E+02
DMP:   3    -0.679545141976E+03   -0.52764E+01   -0.20413E+01  2552   0.319E+01   0.502E+01
DMP:   4    -0.680588691549E+03   -0.10435E+01   -0.37998E+00  2552   0.908E+00   0.111E+00
DMP:   5    -0.680687352729E+03   -0.98661E-01   -0.11711E+00  2552   0.466E+00  -0.453E+00
DMP:   6    -0.680748704372E+03   -0.61352E-01   -0.12958E+00  2552   0.318E+00   0.150E-01
DMP:   7    -0.680837062991E+03   -0.88359E-01   -0.59024E-01  2552   0.102E+00   0.118E+00
DMP:   8    -0.680874351538E+03   -0.37289E-01   -0.19081E-01  2552   0.328E-01   0.389E-01
DMP:   9    -0.680885462907E+03   -0.11111E-01   -0.49795E-02  2552   0.944E-02   0.787E-02
DMP:  10    -0.680887777529E+03   -0.23146E-02   -0.13764E-02  2552   0.377E-02  -0.867E-03
DMP:  11    -0.680888460274E+03   -0.68275E-03   -0.79566E-03  2552   0.200E-02  -0.178E-04
DMP:  12    -0.680888975046E+03   -0.51477E-03   -0.42424E-03  2552   0.836E-03   0.587E-03
DMP:  13    -0.680889254510E+03   -0.27946E-03   -0.17658E-03  2552   0.314E-03   0.335E-03
DMP:  14    -0.680889365842E+03   -0.11133E-03   -0.57247E-04  2552   0.995E-04   0.114E-03
DMP:  15    -0.680889397673E+03   -0.31832E-04   -0.14387E-04  2552   0.297E-04   0.163E-04
DMP:  16    -0.680889405110E+03   -0.74366E-05   -0.57086E-05  2552   0.138E-04   0.125E-05
   4 F= -.68088941E+03 E0= -.68088941E+03  d E =-.325260E+00  mag=     0.0000
       N       E                     dE             d eps       ncg     rms           ort
SDA:   1    -0.680143452757E+03    0.74594E+00   -0.68805E+00  2552   0.172E+01   0.000E+00
DMP:   2    -0.680649196263E+03   -0.50574E+00   -0.31626E+00  2552   0.482E+00   0.808E+00
DMP:   3    -0.680846387020E+03   -0.19719E+00   -0.75403E-01  2552   0.114E+00   0.195E+00
DMP:   4    -0.680885339678E+03   -0.38953E-01   -0.13051E-01  2552   0.302E-01   0.629E-02
DMP:   5    -0.680888564204E+03   -0.32245E-02   -0.37660E-02  2552   0.157E-01  -0.165E-01
DMP:   6    -0.680890421432E+03   -0.18572E-02   -0.44166E-02  2552   0.111E-01  -0.126E-03
DMP:   7    -0.680893514203E+03   -0.30928E-02   -0.23141E-02  2552   0.410E-02   0.442E-02
DMP:   8    -0.680895014785E+03   -0.15006E-02   -0.75417E-03  2552   0.123E-02   0.172E-02
DMP:   9    -0.680895461476E+03   -0.44669E-03   -0.19127E-03  2552   0.345E-03   0.349E-03
DMP:  10    -0.680895551856E+03   -0.90379E-04   -0.44891E-04  2552   0.122E-03  -0.256E-04
DMP:  11    -0.680895571769E+03   -0.19913E-04   -0.27159E-04  2552   0.725E-04  -0.121E-04
DMP:  12    -0.680895589289E+03   -0.17520E-04   -0.16075E-04  2552   0.326E-04   0.199E-04
DMP:  13    -0.680895600030E+03   -0.10741E-04   -0.69044E-05  2552   0.121E-04   0.134E-04
DMP:  14    -0.680895604543E+03   -0.45127E-05   -0.24002E-05  2552   0.402E-05   0.519E-05
   5 F= -.68089560E+03 E0= -.68089560E+03  d E =-.331459E+00  mag=     0.0000
       N       E                     dE             d eps       ncg     rms           ort
SDA:   1    -0.674574571069E+03    0.63210E+01   -0.54917E+01  2552   0.137E+02   0.000E+00
DMP:   2    -0.678701730821E+03   -0.41272E+01   -0.28537E+01  2552   0.449E+01   0.691E+01
DMP:   3    -0.680563327339E+03   -0.18616E+01   -0.71920E+00  2552   0.969E+00   0.217E+01
DMP:   4    -0.680927616498E+03   -0.36429E+00   -0.79675E-01  2552   0.191E+00   0.227E-01
DMP:   5    -0.680929617982E+03   -0.20015E-02   -0.21231E-01  2552   0.125E+00  -0.189E+00
DMP:   6    -0.680938851723E+03   -0.92337E-02   -0.40755E-01  2552   0.105E+00  -0.691E-02
DMP:   7    -0.680968298312E+03   -0.29447E-01   -0.22301E-01  2552   0.384E-01   0.454E-01
DMP:   8    -0.680983214261E+03   -0.14916E-01   -0.69547E-02  2552   0.102E-01   0.188E-01
DMP:   9    -0.680987262615E+03   -0.40484E-02   -0.12949E-02  2552   0.215E-02   0.285E-02
DMP:  10    -0.680987779558E+03   -0.51694E-03   -0.34341E-03  2552   0.111E-02  -0.652E-03
DMP:  11    -0.680987932663E+03   -0.15310E-03   -0.23200E-03  2552   0.613E-03  -0.869E-04
DMP:  12    -0.680988085803E+03   -0.15314E-03   -0.13668E-03  2552   0.270E-03   0.187E-03
DMP:  13    -0.680988179635E+03   -0.93832E-04   -0.60143E-04  2552   0.102E-03   0.126E-03
DMP:  14    -0.680988219419E+03   -0.39784E-04   -0.20534E-04  2552   0.331E-04   0.478E-04
DMP:  15    -0.680988231472E+03   -0.12053E-04   -0.51149E-05  2552   0.930E-05   0.914E-05
DMP:  16    -0.680988234261E+03   -0.27898E-05   -0.17802E-05  2552   0.401E-05   0.114E-05
   6 F= -.68098823E+03 E0= -.68098823E+03  d E =-.926297E-01  mag=    -0.0000
       N       E                     dE             d eps       ncg     rms           ort
SDA:   1    -0.680640952501E+03    0.34728E+00   -0.29385E+00  2552   0.735E+00   0.000E+00
DMP:   2    -0.680864546193E+03   -0.22359E+00   -0.15556E+00  2552   0.242E+00   0.383E+00
DMP:   3    -0.680966476173E+03   -0.10193E+00   -0.39410E-01  2552   0.524E-01   0.121E+00
DMP:   4    -0.680987140090E+03   -0.20664E-01   -0.45663E-02  2552   0.959E-02   0.479E-02
DMP:   5    -0.680987518282E+03   -0.37819E-03   -0.11865E-02  2552   0.661E-02  -0.953E-02
DMP:   6    -0.680988048065E+03   -0.52978E-03   -0.20012E-02  2552   0.512E-02  -0.318E-03
DMP:   7    -0.680989511401E+03   -0.14633E-02   -0.11821E-02  2552   0.207E-02   0.232E-02
DMP:   8    -0.680990319102E+03   -0.80770E-03   -0.39900E-03  2552   0.583E-03   0.108E-02
DMP:   9    -0.680990563673E+03   -0.24457E-03   -0.89310E-04  2552   0.137E-03   0.225E-03
DMP:  10    -0.680990606505E+03   -0.42832E-04   -0.19640E-04  2552   0.526E-04  -0.907E-05
DMP:  11    -0.680990615093E+03   -0.85885E-05   -0.11468E-04  2552   0.308E-04  -0.557E-05
DMP:  12    -0.680990622337E+03   -0.72436E-05   -0.68475E-05  2552   0.141E-04   0.782E-05
   7 F= -.68099062E+03 E0= -.68099062E+03  d E =-.950178E-01  mag=    -0.0000
       N       E                     dE             d eps       ncg     rms           ort
SDA:   1    -0.680964546143E+03    0.26069E-01   -0.22190E-01  2552   0.555E-01   0.000E+00
DMP:   2    -0.680981368194E+03   -0.16822E-01   -0.11199E-01  2552   0.171E-01   0.286E-01
DMP:   3    -0.680988758899E+03   -0.73907E-02   -0.29012E-02  2552   0.383E-02   0.896E-02
DMP:   4    -0.680990361054E+03   -0.16022E-02   -0.45047E-03  2552   0.836E-03   0.761E-03
DMP:   5    -0.680990488875E+03   -0.12782E-03   -0.11211E-03  2552   0.466E-03  -0.485E-03
DMP:   6    -0.680990540284E+03   -0.51409E-04   -0.12624E-03  2552   0.324E-03  -0.230E-04
DMP:   7    -0.680990629497E+03   -0.89213E-04   -0.71863E-04  2552   0.130E-03   0.130E-03
DMP:   8    -0.680990678652E+03   -0.49155E-04   -0.26762E-04  2552   0.417E-04   0.661E-04
DMP:   9    -0.680990695823E+03   -0.17171E-04   -0.77649E-05  2552   0.122E-04   0.190E-04
DMP:  10    -0.680990700234E+03   -0.44103E-05   -0.20331E-05  2552   0.409E-05   0.260E-05
   8 F= -.68099070E+03 E0= -.68099070E+03  d E =-.950957E-01  mag=     0.0000
       N       E                     dE             d eps       ncg     rms           ort
SDA:   1    -0.679558138469E+03    0.14326E+01   -0.12083E+01  2552   0.302E+01   0.000E+00
DMP:   2    -0.680488666568E+03   -0.93053E+00   -0.66376E+00  2552   0.104E+01   0.163E+01
DMP:   3    -0.680927306376E+03   -0.43864E+00   -0.16506E+00  2552   0.209E+00   0.534E+00
DMP:   4    -0.681012242918E+03   -0.84937E-01   -0.16056E-01  2552   0.355E-01   0.120E-01
DMP:   5    -0.681011715834E+03    0.52708E-03   -0.45286E-02  2552   0.277E-01  -0.428E-01
DMP:   6    -0.681013731346E+03   -0.20155E-02   -0.88530E-02  2552   0.226E-01  -0.125E-02
DMP:   7    -0.681020271046E+03   -0.65397E-02   -0.50840E-02  2552   0.867E-02   0.106E-01
DMP:   8    -0.681023714406E+03   -0.34434E-02   -0.15248E-02  2552   0.209E-02   0.451E-02
DMP:   9    -0.681024615969E+03   -0.90156E-03   -0.30640E-03  2552   0.500E-03   0.695E-03
DMP:  10    -0.681024749443E+03   -0.13347E-03   -0.75159E-04  2552   0.226E-03  -0.985E-04
DMP:  11    -0.681024783249E+03   -0.33806E-04   -0.49150E-04  2552   0.130E-03  -0.178E-04
DMP:  12    -0.681024815870E+03   -0.32621E-04   -0.28443E-04  2552   0.557E-04   0.403E-04
DMP:  13    -0.681024835572E+03   -0.19701E-04   -0.12673E-04  2552   0.214E-04   0.270E-04
DMP:  14    -0.681024844021E+03   -0.84490E-05   -0.43904E-05  2552   0.698E-05   0.105E-04
   9 F= -.68102484E+03 E0= -.68102484E+03  d E =-.341438E-01  mag=    -0.0000
       N       E                     dE             d eps       ncg     rms           ort
SDA:   1    -0.679945549696E+03    0.10793E+01   -0.89572E+00  2552   0.224E+01   0.000E+00
DMP:   2    -0.680635460831E+03   -0.68991E+00   -0.49211E+00  2552   0.768E+00   0.121E+01
DMP:   3    -0.680960699845E+03   -0.32524E+00   -0.12234E+00  2552   0.155E+00   0.396E+00
DMP:   4    -0.681023791948E+03   -0.63092E-01   -0.12036E-01  2552   0.264E-01   0.963E-02
DMP:   5    -0.681023537025E+03    0.25492E-03   -0.33594E-02  2552   0.204E-01  -0.314E-01
DMP:   6    -0.681025023151E+03   -0.14861E-02   -0.64909E-02  2552   0.166E-01  -0.972E-03
DMP:   7    -0.681029824894E+03   -0.48017E-02   -0.37752E-02  2552   0.646E-02   0.779E-02
DMP:   8    -0.681032387144E+03   -0.25622E-02   -0.11439E-02  2552   0.157E-02   0.338E-02
DMP:   9    -0.681033066569E+03   -0.67943E-03   -0.23240E-03  2552   0.376E-03   0.537E-03
DMP:  10    -0.681033169277E+03   -0.10271E-03   -0.56150E-04  2552   0.166E-03  -0.672E-04
DMP:  11    -0.681033194391E+03   -0.25114E-04   -0.36263E-04  2552   0.960E-04  -0.140E-04
DMP:  12    -0.681033218356E+03   -0.23965E-04   -0.21043E-04  2552   0.414E-04   0.292E-04
DMP:  13    -0.681033232930E+03   -0.14574E-04   -0.94377E-05  2552   0.160E-04   0.200E-04
DMP:  14    -0.681033239248E+03   -0.63176E-05   -0.33161E-05  2552   0.528E-05   0.788E-05
  10 F= -.68103324E+03 E0= -.68103324E+03  d E =-.425390E-01  mag=    -0.0000
       N       E                     dE             d eps       ncg     rms           ort
SDA:   1    -0.679205597982E+03    0.18276E+01   -0.15866E+01  2552   0.397E+01   0.000E+00
DMP:   2    -0.680399711857E+03   -0.11941E+01   -0.81088E+00  2552   0.126E+01   0.200E+01
DMP:   3    -0.680927891435E+03   -0.52818E+00   -0.20848E+00  2552   0.287E+00   0.614E+00
DMP:   4    -0.681036836426E+03   -0.10894E+00   -0.23161E-01  2552   0.489E-01   0.236E-01
DMP:   5    -0.681037214512E+03   -0.37809E-03   -0.59137E-02  2552   0.362E-01  -0.560E-01
DMP:   6    -0.681039936978E+03   -0.27225E-02   -0.11237E-01  2552   0.285E-01  -0.117E-02
DMP:   7    -0.681047981880E+03   -0.80449E-02   -0.59542E-02  2552   0.102E-01   0.121E-01
DMP:   8    -0.681051992655E+03   -0.40108E-02   -0.19725E-02  2552   0.296E-02   0.517E-02
DMP:   9    -0.681053184722E+03   -0.11921E-02   -0.43660E-03  2552   0.699E-03   0.103E-02
DMP:  10    -0.681053381619E+03   -0.19690E-03   -0.10417E-03  2552   0.301E-03  -0.107E-03
DMP:  11    -0.681053430634E+03   -0.49015E-04   -0.63933E-04  2552   0.166E-03  -0.149E-04
DMP:  12    -0.681053470868E+03   -0.40234E-04   -0.33058E-04  2552   0.669E-04   0.412E-04
DMP:  13    -0.681053493251E+03   -0.22383E-04   -0.15921E-04  2552   0.287E-04   0.290E-04
DMP:  14    -0.681053503813E+03   -0.10563E-04   -0.56923E-05  2552   0.922E-05   0.131E-04
DMP:  15    -0.681053507174E+03   -0.33604E-05   -0.15455E-05  2552   0.280E-05   0.279E-05
  11 F= -.68105351E+03 E0= -.68105351E+03  d E =-.202679E-01  mag=    -0.0000
       N       E                     dE             d eps       ncg     rms           ort
SDA:   1    -0.680832760545E+03    0.22074E+00   -0.19088E+00  2552   0.477E+00   0.000E+00
DMP:   2    -0.680976302357E+03   -0.14354E+00   -0.95985E-01  2552   0.148E+00   0.241E+00
DMP:   3    -0.681039054540E+03   -0.62752E-01   -0.24916E-01  2552   0.341E-01   0.738E-01
DMP:   4    -0.681052438955E+03   -0.13384E-01   -0.32125E-02  2552   0.626E-02   0.464E-02
DMP:   5    -0.681052868927E+03   -0.42997E-03   -0.74130E-03  2552   0.410E-02  -0.588E-02
DMP:   6    -0.681053193630E+03   -0.32470E-03   -0.12248E-02  2552   0.315E-02  -0.229E-03
DMP:   7    -0.681054069364E+03   -0.87573E-03   -0.67550E-03  2552   0.119E-02   0.132E-02
DMP:   8    -0.681054526057E+03   -0.45669E-03   -0.23550E-03  2552   0.361E-03   0.596E-03
DMP:   9    -0.681054671322E+03   -0.14527E-03   -0.56708E-04  2552   0.893E-04   0.137E-03
DMP:  10    -0.681054698701E+03   -0.27379E-04   -0.12480E-04  2552   0.332E-04  -0.513E-05
DMP:  11    -0.681054704415E+03   -0.57142E-05   -0.72040E-05  2552   0.191E-04  -0.277E-05
  12 F= -.68105470E+03 E0= -.68105470E+03  d E =-.214652E-01  mag=     0.0000
       N       E                     dE             d eps       ncg     rms           ort
SDA:   1    -0.681022631523E+03    0.32067E-01   -0.27078E-01  2552   0.677E-01   0.000E+00
DMP:   2    -0.681043065111E+03   -0.20434E-01   -0.13808E-01  2552   0.214E-01   0.345E-01
DMP:   3    -0.681052153347E+03   -0.90882E-02   -0.37231E-02  2552   0.514E-02   0.109E-01
DMP:   4    -0.681054208680E+03   -0.20553E-02   -0.54924E-03  2552   0.100E-02   0.967E-03
DMP:   5    -0.681054339365E+03   -0.13069E-03   -0.12201E-03  2552   0.580E-03  -0.720E-03
DMP:   6    -0.681054392602E+03   -0.53237E-04   -0.16719E-03  2552   0.433E-03  -0.387E-04
DMP:   7    -0.681054510974E+03   -0.11837E-03   -0.95879E-04  2552   0.173E-03   0.174E-03
DMP:   8    -0.681054575891E+03   -0.64917E-04   -0.35092E-04  2552   0.553E-04   0.850E-04
DMP:   9    -0.681054597953E+03   -0.22062E-04   -0.93195E-05  2552   0.147E-04   0.225E-04
DMP:  10    -0.681054602856E+03   -0.49028E-05   -0.22580E-05  2552   0.515E-05   0.129E-05
  13 F= -.68105460E+03 E0= -.68105460E+03  d E =-.213636E-01  mag=     0.0000
       N       E                     dE             d eps       ncg     rms           ort
SDA:   1    -0.681047584405E+03    0.70135E-02   -0.61765E-02  2552   0.154E-01   0.000E+00
DMP:   2    -0.681052210684E+03   -0.46263E-02   -0.30011E-02  2552   0.456E-02   0.769E-02
DMP:   3    -0.681054179121E+03   -0.19684E-02   -0.79263E-03  2552   0.109E-02   0.234E-02
DMP:   4    -0.681054619971E+03   -0.44085E-03   -0.12677E-03  2552   0.232E-03   0.224E-03
DMP:   5    -0.681054655973E+03   -0.36001E-04   -0.29819E-04  2552   0.127E-03  -0.137E-03
DMP:   6    -0.681054669568E+03   -0.13595E-04   -0.35047E-04  2552   0.901E-04  -0.646E-05
DMP:   7    -0.681054694038E+03   -0.24470E-04   -0.19211E-04  2552   0.347E-04   0.348E-04
DMP:   8    -0.681054706925E+03   -0.12887E-04   -0.71426E-05  2552   0.115E-04   0.165E-04
DMP:   9    -0.681054711457E+03   -0.45321E-05   -0.21135E-05  2552   0.343E-05   0.484E-05
  14 F= -.68105471E+03 E0= -.68105471E+03  d E =-.214722E-01  mag=     0.0000
       N       E                     dE             d eps       ncg     rms           ort
SDA:   1    -0.680387738632E+03    0.66697E+00   -0.55748E+00  2552   0.139E+01   0.000E+00
DMP:   2    -0.680816111860E+03   -0.42837E+00   -0.30446E+00  2552   0.475E+00   0.748E+00
DMP:   3    -0.681017535837E+03   -0.20142E+00   -0.77269E-01  2552   0.992E-01   0.246E+00
DMP:   4    -0.681057763680E+03   -0.40228E-01   -0.78382E-02  2552   0.165E-01   0.798E-02
DMP:   5    -0.681057738813E+03    0.24867E-04   -0.20361E-02  2552   0.126E-01  -0.197E-01
DMP:   6    -0.681058622595E+03   -0.88378E-03   -0.39876E-02  2552   0.102E-01  -0.673E-03
DMP:   7    -0.681061562119E+03   -0.29395E-02   -0.23112E-02  2552   0.397E-02   0.473E-02
DMP:   8    -0.681063136423E+03   -0.15743E-02   -0.72895E-03  2552   0.102E-02   0.210E-02
DMP:   9    -0.681063576649E+03   -0.44023E-03   -0.15601E-03  2552   0.246E-03   0.378E-03
DMP:  10    -0.681063648647E+03   -0.71999E-04   -0.36253E-04  2552   0.102E-03  -0.302E-04
DMP:  11    -0.681063664976E+03   -0.16328E-04   -0.22309E-04  2552   0.591E-04  -0.866E-05
DMP:  12    -0.681063679501E+03   -0.14525E-04   -0.12856E-04  2552   0.257E-04   0.169E-04
DMP:  13    -0.681063688352E+03   -0.88505E-05   -0.58872E-05  2552   0.101E-04   0.120E-04
  15 F= -.68106369E+03 E0= -.68106369E+03  d E =-.897689E-02  mag=     0.0000
       N       E                     dE             d eps       ncg     rms           ort
SDA:   1    -0.681061361954E+03    0.23175E-02   -0.20419E-02  2552   0.510E-02   0.000E+00
DMP:   2    -0.681062930645E+03   -0.15687E-02   -0.10821E-02  2552   0.166E-02   0.274E-02
DMP:   3    -0.681063656354E+03   -0.72571E-03   -0.28782E-03  2552   0.367E-03   0.923E-03
DMP:   4    -0.681063818001E+03   -0.16165E-03   -0.44063E-04  2552   0.764E-04   0.883E-04
DMP:   5    -0.681063831518E+03   -0.13516E-04   -0.10269E-04  2552   0.419E-04  -0.426E-04
DMP:   6    -0.681063836012E+03   -0.44947E-05   -0.11262E-04  2552   0.294E-04  -0.314E-05
DMP:   7    -0.681063844004E+03   -0.79921E-05   -0.67908E-05  2552   0.124E-04   0.119E-04
  16 F= -.68106384E+03 E0= -.68106384E+03  d E =-.913255E-02  mag=    -0.0000
       N       E                     dE             d eps       ncg     rms           ort
SDA:   1    -0.681054481907E+03    0.93541E-02   -0.78704E-02  2552   0.197E-01   0.000E+00
DMP:   2    -0.681060515393E+03   -0.60335E-02   -0.41543E-02  2552   0.638E-02   0.105E-01
DMP:   3    -0.681063284688E+03   -0.27693E-02   -0.10863E-02  2552   0.139E-02   0.346E-02
DMP:   4    -0.681063885858E+03   -0.60117E-03   -0.16249E-03  2552   0.296E-03   0.289E-03
DMP:   5    -0.681063932338E+03   -0.46480E-04   -0.40526E-04  2552   0.168E-03  -0.174E-03
DMP:   6    -0.681063950853E+03   -0.18515E-04   -0.45336E-04  2552   0.117E-03  -0.898E-05
DMP:   7    -0.681063983047E+03   -0.32195E-04   -0.26610E-04  2552   0.482E-04   0.479E-04
DMP:   8    -0.681064001226E+03   -0.18178E-04   -0.99060E-05  2552   0.153E-04   0.246E-04
DMP:   9    -0.681064007548E+03   -0.63225E-05   -0.28664E-05  2552   0.453E-05   0.690E-05
  17 F= -.68106401E+03 E0= -.68106401E+03  d E =-.929609E-02  mag=    -0.0000
       N       E                     dE             d eps       ncg     rms           ort
SDA:   1    -0.680574978224E+03    0.48902E+00   -0.42614E+00  2552   0.107E+01   0.000E+00
DMP:   2    -0.680896022806E+03   -0.32104E+00   -0.21486E+00  2552   0.331E+00   0.540E+00
DMP:   3    -0.681034997989E+03   -0.13898E+00   -0.52538E-01  2552   0.711E-01   0.158E+00
DMP:   4    -0.681062335437E+03   -0.27337E-01   -0.67743E-02  2552   0.149E-01   0.536E-02
DMP:   5    -0.681063216849E+03   -0.88141E-03   -0.19275E-02  2552   0.960E-02  -0.125E-01
DMP:   6    -0.681064133283E+03   -0.91643E-03   -0.28405E-02  2552   0.719E-02  -0.236E-03
DMP:   7    -0.681066176040E+03   -0.20428E-02   -0.15696E-02  2552   0.273E-02   0.311E-02
DMP:   8    -0.681067225930E+03   -0.10499E-02   -0.51009E-03  2552   0.769E-03   0.133E-02
DMP:   9    -0.681067532159E+03   -0.30623E-03   -0.11794E-03  2552   0.197E-03   0.256E-03
DMP:  10    -0.681067587043E+03   -0.54885E-04   -0.27063E-04  2552   0.754E-04  -0.203E-04
DMP:  11    -0.681067599144E+03   -0.12101E-04   -0.16631E-04  2552   0.443E-04  -0.724E-05
DMP:  12    -0.681067609960E+03   -0.10816E-04   -0.96771E-05  2552   0.195E-04   0.123E-04
DMP:  13    -0.681067616549E+03   -0.65887E-05   -0.43984E-05  2552   0.767E-05   0.872E-05
  18 F= -.68106762E+03 E0= -.68106762E+03  d E =-.360900E-02  mag=     0.0000
       N       E                     dE             d eps       ncg     rms           ort
SDA:   1    -0.681061513756E+03    0.60962E-02   -0.51617E-02  2552   0.129E-01   0.000E+00
DMP:   2    -0.681065421061E+03   -0.39073E-02   -0.26153E-02  2552   0.401E-02   0.663E-02
DMP:   3    -0.681067143031E+03   -0.17220E-02   -0.69594E-03  2552   0.949E-03   0.207E-02
DMP:   4    -0.681067531242E+03   -0.38821E-03   -0.11707E-03  2552   0.216E-03   0.202E-03
DMP:   5    -0.681067569088E+03   -0.37846E-04   -0.28629E-04  2552   0.111E-03  -0.103E-03
DMP:   6    -0.681067582303E+03   -0.13215E-04   -0.29799E-04  2552   0.766E-04  -0.547E-05
DMP:   7    -0.681067603149E+03   -0.20846E-04   -0.16969E-04  2552   0.310E-04   0.298E-04
DMP:   8    -0.681067614574E+03   -0.11425E-04   -0.62254E-05  2552   0.993E-05   0.147E-04
DMP:   9    -0.681067618547E+03   -0.39732E-05   -0.18631E-05  2552   0.305E-05   0.421E-05
  19 F= -.68106762E+03 E0= -.68106762E+03  d E =-.361100E-02  mag=    -0.0000
       N       E                     dE             d eps       ncg     rms           ort
SDA:   1    -0.680900474271E+03    0.16714E+00   -0.14306E+00  2552   0.358E+00   0.000E+00
DMP:   2    -0.681009412250E+03   -0.10894E+00   -0.74733E-01  2552   0.115E+00   0.187E+00
DMP:   3    -0.681058233200E+03   -0.48821E-01   -0.18453E-01  2552   0.243E-01   0.573E-01
DMP:   4    -0.681067885657E+03   -0.96525E-02   -0.23816E-02  2552   0.514E-02   0.213E-02
DMP:   5    -0.681068266388E+03   -0.38073E-03   -0.71630E-03  2552   0.334E-02  -0.405E-02
DMP:   6    -0.681068617182E+03   -0.35079E-03   -0.93972E-03  2552   0.236E-02  -0.375E-04
DMP:   7    -0.681069293348E+03   -0.67617E-03   -0.53496E-03  2552   0.943E-03   0.103E-02
DMP:   8    -0.681069654607E+03   -0.36126E-03   -0.17883E-03  2552   0.267E-03   0.470E-03
DMP:   9    -0.681069762462E+03   -0.10785E-03   -0.41123E-04  2552   0.676E-04   0.922E-04
DMP:  10    -0.681069782158E+03   -0.19697E-04   -0.99508E-05  2552   0.266E-04  -0.444E-05
DMP:  11    -0.681069786872E+03   -0.47140E-05   -0.57817E-05  2552   0.150E-04  -0.148E-05
  20 F= -.68106979E+03 E0= -.68106979E+03  d E =-.216832E-02  mag=    -0.0000
