 vasp.6.5.1 10Mar25 (build May 05 2025 13:45:00) complex                        
  
 executed on             LinuxIFC date 2026.04.28  06:48:38
 running  112 mpi-ranks, on    1 nodes
 distrk:  each k-point on   28 cores,    4 groups
 distr:  one band on NCORE=   1 cores,   28 groups


--------------------------------------------------------------------------------------------------------


 INCAR:
   ALGO = Damped
   PREC = Normal
   LREAL = False
   EDIFF = 1e-07
   ENCUT = 400.0
   LASPH = True
   NELM = 100
   ISIF = 3
   IBRION = 2
   EDIFFG = -0.005
   NSW = 300
   ISMEAR = 0
   SIGMA = 0.1
   LWAVE = True
   LCHARG = False
   LORBIT = 10
   LHFCALC = True
   PRECFOCK = Fast
   AEXX = 0.36
   HFSCREEN = 0.2
   TIME = 0.4
   KPAR = 4

 POTCAR:    PAW_PBE Nd_3 06Sep2000                
 POTCAR:    PAW_PBE Zn 06Sep2000                  
 -----------------------------------------------------------------------------
|                                                                             |
|           W    W    AA    RRRRR   N    N  II  N    N   GGGG   !!!           |
|           W    W   A  A   R    R  NN   N  II  NN   N  G    G  !!!           |
|           W    W  A    A  R    R  N N  N  II  N N  N  G       !!!           |
|           W WW W  AAAAAA  RRRRR   N  N N  II  N  N N  G  GGG   !            |
|           WW  WW  A    A  R   R   N   NN  II  N   NN  G    G                |
|           W    W  A    A  R    R  N    N  II  N    N   GGGG   !!!           |
|                                                                             |
|     For optimal performance we recommend to set                             |
|       NCORE = 2 up to number-of-cores-per-socket                            |
|     NCORE specifies how many cores store one orbital (NPAR=cpu/NCORE).      |
|     This setting can greatly improve the performance of VASP for DFT.       |
|     The default, NCORE=1 might be grossly inefficient on modern             |
|     multi-core architectures or massively parallel machines. Do your        |
|     own testing! More info at https://www.vasp.at/wiki/index.php/NCORE      |
|     Unfortunately you need to use the default for GW and RPA                |
|     calculations (for HF NCORE is supported but not extensively tested      |
|     yet).                                                                   |
|                                                                             |
 -----------------------------------------------------------------------------

 POTCAR:    PAW_PBE Nd_3 06Sep2000                
   SHA256 =  90782177844a5d17e05a83442c3981b109958f4399d5595472847236a982ac31 Nd_3/POTCAR           
   COPYR  = (c) Copyright 06Sep2000 Georg Kresse                                                    
   COPYR  = This file is part of the software VASP. Any use, copying, and all other rights are regul
   COPYR  = If you do not have a valid VASP license, you may not use, copy or distribute this file. 
   VRHFIN =Nd : [core=Xe4]                                                                          
   LEXCH  = PE                                                                                      
   EATOM  =   934.1494 eV,   68.6580 Ry                                                             
                                                                                                    
   TITEL  = PAW_PBE Nd_3 06Sep2000                                                                  
   LULTRA =        F    use ultrasoft PP ?                                                          
   IUNSCR =        1    unscreen: 0-lin 1-nonlin 2-no                                               
   RPACOR =    2.400    partial core radius                                                         
   POMASS =  144.240; ZVAL   =   11.000    mass and valenz                                          
   RCORE  =    2.800    outmost cutoff radius                                                       
   RWIGS  =    3.000; RWIGS  =    1.588    wigner-seitz radius (au A)                               
   ENMAX  =  182.619; ENMIN  =  136.964 eV                                                          
   RCLOC  =    2.418    cutoff for local pot                                                        
   LCOR   =        T    correct aug charges                                                         
   LPAW   =        T    paw PP                                                                      
   EAUG   =  299.021                                                                                
   DEXC   =    0.000                                                                                
   RMAX   =    2.866    core radius for proj-oper                                                   
   RAUG   =    1.300    factor for augmentation sphere                                              
   RDEP   =    2.838    radius for radial grids                                                     
   RDEPT  =    2.433    core radius for aug-charge                                                  
                                                                                                    
   Atomic configuration                                                                             
   14 entries                                                                                       
     n  l   j            E        occ.                                                              
     1  0  0.50    -43395.8286   2.0000                                                             
     2  0  0.50     -7023.8781   2.0000                                                             
     2  1  1.50     -6278.5294   6.0000                                                             
     3  0  0.50     -1529.8925   2.0000                                                             
     3  1  1.50     -1294.9660   6.0000                                                             
     3  2  2.50      -969.3626  10.0000                                                             
     4  0  0.50      -309.7145   2.0000                                                             
     4  1  1.50      -232.6371   6.0000                                                             
     4  2  2.50      -123.0912  10.0000                                                             
     4  3  2.50        -6.9199   3.0000                                                             
     5  0  0.50       -43.6910   2.0000                                                             
     6  0  0.50        -3.8688   2.0000                                                             
     5  1  1.50       -24.6661   6.0000                                                             
     5  2  2.50        -2.9249   1.0000                                                             
   Description                                                                                      
     l       E           TYP  RCUT    TYP  RCUT                                                     
     0    -43.6910211     23  2.800                                                                 
     0     -3.8687565     23  2.800                                                                 
     1    -24.6660554     23  2.800                                                                 
     1     13.6058260     23  2.800                                                                 
     2     -2.9249058     23  2.800                                                                 
     2      0.2001824     23  2.800                                                                 
  local pseudopotential read in
  partial core-charges read in
  partial kinetic energy density read in
  atomic valenz-charges read in
  non local Contribution for L=           0  read in
    real space projection operators read in
  non local Contribution for L=           0  read in
    real space projection operators read in
  non local Contribution for L=           1  read in
    real space projection operators read in
  non local Contribution for L=           1  read in
    real space projection operators read in
  non local Contribution for L=           2  read in
    real space projection operators read in
  non local Contribution for L=           2  read in
    real space projection operators read in
    PAW grid and wavefunctions read in
 
   number of l-projection  operators is LMAX  =           6
   number of lm-projection operators is LMMAX =          18
 
 POTCAR:    PAW_PBE Zn 06Sep2000                  
   SHA256 =  501fddbd8274dd8e9725d4f3de27861d7f1e553a7e18441bc79fed8f346e7f23 Zn/POTCAR             
   COPYR  = (c) Copyright 06Sep2000 Georg Kresse                                                    
   COPYR  = This file is part of the software VASP. Any use, copying, and all other rights are regul
   COPYR  = If you do not have a valid VASP license, you may not use, copy or distribute this file. 
   VRHFIN =Zn: d10 p2                                                                               
   LEXCH  = PE                                                                                      
   EATOM  =  1748.8345 eV,  128.5357 Ry                                                             
                                                                                                    
   TITEL  = PAW_PBE Zn 06Sep2000                                                                    
   LULTRA =        F    use ultrasoft PP ?                                                          
   IUNSCR =        1    unscreen: 0-lin 1-nonlin 2-no                                               
   RPACOR =    2.000    partial core radius                                                         
   POMASS =   65.390; ZVAL   =   12.000    mass and valenz                                          
   RCORE  =    2.300    outmost cutoff radius                                                       
   RWIGS  =    2.400; RWIGS  =    1.270    wigner-seitz radius (au A)                               
   ENMAX  =  276.723; ENMIN  =  207.542 eV                                                          
   RCLOC  =    1.828    cutoff for local pot                                                        
   LCOR   =        T    correct aug charges                                                         
   LPAW   =        T    paw PP                                                                      
   EAUG   =  575.892                                                                                
   DEXC   =    0.000                                                                                
   RMAX   =    2.347    core radius for proj-oper                                                   
   RAUG   =    1.300    factor for augmentation sphere                                              
   RDEP   =    2.324    radius for radial grids                                                     
   RDEPT  =    1.788    core radius for aug-charge                                                  
                                                                                                    
   Atomic configuration                                                                             
    9 entries                                                                                       
     n  l   j            E        occ.                                                              
     1  0  0.50     -9524.6913   2.0000                                                             
     2  0  0.50     -1158.1882   2.0000                                                             
     2  1  1.50     -1003.8506   6.0000                                                             
     3  0  0.50      -129.2194   2.0000                                                             
     3  1  1.50       -83.3890   6.0000                                                             
     3  2  2.50       -10.1410  10.0000                                                             
     4  0  0.50        -5.9785   2.0000                                                             
     4  1  0.50        -4.0817   0.0000                                                             
     4  3  2.50        -1.3606   0.0000                                                             
   Description                                                                                      
     l       E           TYP  RCUT    TYP  RCUT                                                     
     2    -10.1410010     23  2.300                                                                 
     2    -11.5015836     23  2.300                                                                 
     0     -5.9785163     23  2.300                                                                 
     0      1.1858015     23  2.300                                                                 
     1     -2.7211652     23  2.300                                                                 
     1     13.2444212     23  2.300                                                                 
  local pseudopotential read in
  partial core-charges read in
  partial kinetic energy density read in
  atomic valenz-charges read in
  non local Contribution for L=           2  read in
    real space projection operators read in
  non local Contribution for L=           2  read in
    real space projection operators read in
  non local Contribution for L=           0  read in
    real space projection operators read in
  non local Contribution for L=           0  read in
    real space projection operators read in
  non local Contribution for L=           1  read in
    real space projection operators read in
  non local Contribution for L=           1  read in
    real space projection operators read in
    PAW grid and wavefunctions read in
 
   number of l-projection  operators is LMAX  =           6
   number of lm-projection operators is LMMAX =          18
 
  PAW_PBE Nd_3 06Sep2000                :
 energy of atom  1       EATOM= -934.1494
 kinetic energy error for atom=    0.0015 (will be added to EATOM!!)
  PAW_PBE Zn 06Sep2000                  :
 energy of atom  2       EATOM=-1748.8345
 kinetic energy error for atom=    0.0107 (will be added to EATOM!!)
 
 
 POSCAR: Nd2 Zn4
  positions in direct lattice
  No initial velocities read in


 exchange-correlation table for PE
   RHO(1)=    0.500       N(1)  =     2000
   RHO(2)=  100.500       N(2)  =     4000
 


--------------------------------------------------------------------------------------------------------


 ion  position               nearest neighbor table
   1  0.709  0.459  0.250-   5 3.10   3 3.10   5 3.10   3 3.10   6 3.14   4 3.14   5 3.17   3 3.17
                             6 3.37   4 3.37   4 3.37   6 3.37   2 3.77   2 3.77
   2  0.291  0.541  0.750-   4 3.10   6 3.10   4 3.10   6 3.10   5 3.14   3 3.14   6 3.17   4 3.17
                             5 3.37   3 3.37   3 3.37   5 3.37   1 3.77   1 3.77
   3  0.723  0.165  0.558-   4 2.60   6 2.62   6 2.62   5 2.86   1 3.10   1 3.10   2 3.14   1 3.17
                             2 3.37   2 3.37
   4  0.277  0.835  0.442-   3 2.60   5 2.62   5 2.62   6 2.86   2 3.10   2 3.10   1 3.14   2 3.17
                             1 3.37   1 3.37
   5  0.107  0.165  0.942-   6 2.60   4 2.62   4 2.62   3 2.86   1 3.10   1 3.10   2 3.14   1 3.17
                             2 3.37   2 3.37
   6  0.893  0.835  0.058-   5 2.60   3 2.62   3 2.62   4 2.86   2 3.10   2 3.10   1 3.14   2 3.17
                             1 3.37   1 3.37
 
  LATTYP: Found a body centered orthorhombic cell.
 ALAT       =     4.5802192684
 B/A-ratio  =     1.6213160289
 C/A-ratio  =     1.6259619633
  
  Lattice vectors:
  
 A1 = (   2.2901096342,  -3.7236311569,  -3.7129914578)
 A2 = (  -2.2901096342,  -3.7236311569,   3.7129914578)
 A3 = (  -2.2901096342,   3.7236311569,  -3.7129914578)


Analysis of symmetry for initial positions (statically):
=====================================================================
 Subroutine PRICEL returns:
 Original cell was already a primitive cell.
 

 Routine SETGRP: Setting up the symmetry group for a 
 body centered orthorhombic supercell.


 Subroutine GETGRP returns: Found  8 space group operations
 (whereof  4 operations were pure point group operations)
 out of a pool of  8 trial point group operations.


The static configuration has the point symmetry C_2h.
 The point group associated with its full space group is D_2h.


Analysis of symmetry for dynamics (positions and initial velocities):
=====================================================================
 Subroutine PRICEL returns:
 Original cell was already a primitive cell.
 

 Routine SETGRP: Setting up the symmetry group for a 
 body centered orthorhombic supercell.


 Subroutine GETGRP returns: Found  8 space group operations
 (whereof  4 operations were pure point group operations)
 out of a pool of  8 trial point group operations.


The dynamic configuration has the point symmetry C_2h.
 The point group associated with its full space group is D_2h.


 Subroutine INISYM returns: Found  8 space group operations
 (whereof  4 operations are pure point group operations),
 and found     1 'primitive' translations


----------------------------------------------------------------------------------------

                                     Primitive cell                                     

  volume of cell :     126.6505

  direct lattice vectors                    reciprocal lattice vectors
    -2.290109634  3.723631157  3.712991458    -0.000000000  0.134277532  0.134662308
     2.290109634 -3.723631157  3.712991458     0.218330159 -0.000000000  0.134662308
     2.290109634  3.723631157 -3.712991458     0.218330159  0.134277532  0.000000000

  length of vectors
     5.735532817  5.735532817  5.735532817     0.190169379  0.256518996  0.256317213

  position of ions in fractional coordinates (direct lattice)
     0.709425150  0.459425150  0.250000000
     0.290574850  0.540574850  0.750000000
     0.722806300  0.164848665  0.557957635
     0.277193700  0.835151335  0.442042365
     0.106891030  0.164848665  0.942042365
     0.893108970  0.835151335  0.057957635

  ion indices of the primitive-cell ions
   primitive index   ion index
                 1           1
                 2           2
                 3           3
                 4           4
                 5           5
                 6           6

----------------------------------------------------------------------------------------

 
 
 KPOINTS: Num irrep kpoints: 94                   

Automatic generation of k-mesh.
 Grid dimensions read from file:
 generate k-points for:    8    8    8

 Generating k-lattice:

  Cartesian coordinates                     Fractional coordinates (reciprocal lattice)
    -0.000000000  0.016784691  0.016832789     0.125000000  0.000000000 -0.000000000
     0.027291270 -0.000000000  0.016832789    -0.000000000  0.125000000 -0.000000000
     0.027291270  0.016784691  0.000000000    -0.000000000  0.000000000  0.125000000

  Length of vectors
     0.023771172  0.032064875  0.032039652

  Shift w.r.t. Gamma in fractional coordinates (k-lattice)
     0.500000000  0.500000000  0.500000000

 
 Subroutine IBZKPT returns following result:
 ===========================================
 
 Found     94 irreducible k-points:
 
 Following reciprocal coordinates:
            Coordinates               Weight
  0.062500  0.062500  0.062500      8.000000
  0.187500  0.062500  0.062500      8.000000
  0.312500  0.062500  0.062500      8.000000
  0.437500  0.062500  0.062500      4.000000
 -0.062500  0.062500  0.062500      2.000000
  0.062500  0.187500  0.062500      8.000000
  0.187500  0.187500  0.062500      8.000000
  0.312500  0.187500  0.062500      8.000000
  0.437500  0.187500  0.062500      8.000000
 -0.437500  0.187500  0.062500      8.000000
 -0.312500  0.187500  0.062500      8.000000
 -0.187500  0.187500  0.062500      4.000000
 -0.062500  0.187500  0.062500      4.000000
  0.062500  0.312500  0.062500      8.000000
  0.187500  0.312500  0.062500      8.000000
  0.312500  0.312500  0.062500      8.000000
  0.437500  0.312500  0.062500      8.000000
 -0.437500  0.312500  0.062500      8.000000
 -0.312500  0.312500  0.062500      4.000000
 -0.187500  0.312500  0.062500      8.000000
 -0.062500  0.312500  0.062500      4.000000
  0.062500  0.437500  0.062500      4.000000
  0.187500  0.437500  0.062500      8.000000
  0.312500  0.437500  0.062500      8.000000
  0.437500  0.437500  0.062500      4.000000
 -0.437500  0.437500  0.062500      4.000000
 -0.312500  0.437500  0.062500      8.000000
 -0.187500  0.437500  0.062500      8.000000
 -0.062500  0.437500  0.062500      4.000000
  0.187500 -0.437500  0.062500      8.000000
  0.437500 -0.437500  0.062500      4.000000
 -0.437500 -0.437500  0.062500      8.000000
 -0.312500 -0.437500  0.062500      8.000000
 -0.187500 -0.437500  0.062500      8.000000
 -0.062500 -0.437500  0.062500      4.000000
  0.312500 -0.312500  0.062500      4.000000
  0.437500 -0.312500  0.062500      8.000000
 -0.437500 -0.312500  0.062500      8.000000
 -0.312500 -0.312500  0.062500      8.000000
 -0.187500 -0.312500  0.062500      8.000000
 -0.062500 -0.312500  0.062500      4.000000
  0.187500 -0.187500  0.062500      4.000000
  0.312500 -0.187500  0.062500      8.000000
  0.437500 -0.187500  0.062500      8.000000
 -0.437500 -0.187500  0.062500      8.000000
 -0.312500 -0.187500  0.062500      8.000000
 -0.187500 -0.187500  0.062500      8.000000
 -0.062500 -0.187500  0.062500      4.000000
  0.062500 -0.062500  0.062500      2.000000
  0.187500 -0.062500  0.062500      4.000000
  0.312500 -0.062500  0.062500      4.000000
  0.437500 -0.062500  0.062500      4.000000
 -0.437500 -0.062500  0.062500      4.000000
 -0.312500 -0.062500  0.062500      4.000000
 -0.187500 -0.062500  0.062500      4.000000
 -0.062500 -0.062500  0.062500      2.000000
  0.187500  0.187500  0.187500      8.000000
  0.312500  0.187500  0.187500      4.000000
 -0.187500  0.187500  0.187500      2.000000
  0.187500  0.312500  0.187500      4.000000
  0.312500  0.312500  0.187500      4.000000
 -0.312500  0.312500  0.187500      4.000000
 -0.187500  0.312500  0.187500      4.000000
 -0.437500  0.437500  0.187500      4.000000
 -0.312500  0.437500  0.187500      8.000000
 -0.187500  0.437500  0.187500      4.000000
  0.437500 -0.437500  0.187500      4.000000
 -0.437500 -0.437500  0.187500      8.000000
 -0.312500 -0.437500  0.187500      8.000000
 -0.187500 -0.437500  0.187500      4.000000
  0.312500 -0.312500  0.187500      4.000000
  0.437500 -0.312500  0.187500      8.000000
 -0.437500 -0.312500  0.187500      8.000000
 -0.312500 -0.312500  0.187500      8.000000
 -0.187500 -0.312500  0.187500      4.000000
  0.187500 -0.187500  0.187500      2.000000
  0.312500 -0.187500  0.187500      4.000000
  0.437500 -0.187500  0.187500      4.000000
 -0.437500 -0.187500  0.187500      4.000000
 -0.312500 -0.187500  0.187500      4.000000
 -0.187500 -0.187500  0.187500      2.000000
 -0.312500  0.312500  0.312500      2.000000
 -0.437500  0.437500  0.312500      4.000000
 -0.312500  0.437500  0.312500      4.000000
  0.437500 -0.437500  0.312500      4.000000
 -0.437500 -0.437500  0.312500      8.000000
 -0.312500 -0.437500  0.312500      4.000000
  0.312500 -0.312500  0.312500      2.000000
  0.437500 -0.312500  0.312500      4.000000
 -0.437500 -0.312500  0.312500      4.000000
 -0.312500 -0.312500  0.312500      2.000000
 -0.437500  0.437500  0.437500      2.000000
  0.437500 -0.437500  0.437500      2.000000
 -0.437500 -0.437500  0.437500      2.000000
 
 Following cartesian coordinates:
            Coordinates               Weight
  0.027291  0.016785  0.016833      8.000000
  0.027291  0.033569  0.033666      8.000000
  0.027291  0.050354  0.050498      8.000000
  0.027291  0.067139  0.067331      4.000000
  0.027291 -0.000000 -0.000000      2.000000
  0.054583  0.016785  0.033666      8.000000
  0.054583  0.033569  0.050498      8.000000
  0.054583  0.050354  0.067331      8.000000
  0.054583  0.067139  0.084164      8.000000
  0.054583 -0.050354 -0.033666      8.000000
  0.054583 -0.033569 -0.016833      8.000000
  0.054583 -0.016785  0.000000      4.000000
  0.054583  0.000000  0.016833      4.000000
  0.081874  0.016785  0.050498      8.000000
  0.081874  0.033569  0.067331      8.000000
  0.081874  0.050354  0.084164      8.000000
  0.081874  0.067139  0.100997      8.000000
  0.081874 -0.050354 -0.016833      8.000000
  0.081874 -0.033569 -0.000000      4.000000
  0.081874 -0.016785  0.016833      8.000000
  0.081874  0.000000  0.033666      4.000000
  0.109165  0.016785  0.067331      4.000000
  0.109165  0.033569  0.084164      8.000000
  0.109165  0.050354  0.100997      8.000000
  0.109165  0.067139  0.117830      4.000000
  0.109165 -0.050354 -0.000000      4.000000
  0.109165 -0.033569  0.016833      8.000000
  0.109165 -0.016785  0.033666      8.000000
  0.109165  0.000000  0.050498      4.000000
 -0.081874  0.033569 -0.033666      8.000000
 -0.081874  0.067139  0.000000      4.000000
 -0.081874 -0.050354 -0.117830      8.000000
 -0.081874 -0.033569 -0.100997      8.000000
 -0.081874 -0.016785 -0.084164      8.000000
 -0.081874 -0.000000 -0.067331      4.000000
 -0.054583  0.050354  0.000000      4.000000
 -0.054583  0.067139  0.016833      8.000000
 -0.054583 -0.050354 -0.100997      8.000000
 -0.054583 -0.033569 -0.084164      8.000000
 -0.054583 -0.016785 -0.067331      8.000000
 -0.054583 -0.000000 -0.050498      4.000000
 -0.027291  0.033569  0.000000      4.000000
 -0.027291  0.050354  0.016833      8.000000
 -0.027291  0.067139  0.033666      8.000000
 -0.027291 -0.050354 -0.084164      8.000000
 -0.027291 -0.033569 -0.067331      8.000000
 -0.027291 -0.016785 -0.050498      8.000000
 -0.027291 -0.000000 -0.033666      4.000000
  0.000000  0.016785  0.000000      2.000000
  0.000000  0.033569  0.016833      4.000000
  0.000000  0.050354  0.033666      4.000000
  0.000000  0.067139  0.050498      4.000000
 -0.000000 -0.050354 -0.067331      4.000000
 -0.000000 -0.033569 -0.050498      4.000000
 -0.000000 -0.016785 -0.033666      4.000000
 -0.000000 -0.000000 -0.016833      2.000000
  0.081874  0.050354  0.050498      8.000000
  0.081874  0.067139  0.067331      4.000000
  0.081874 -0.000000  0.000000      2.000000
  0.109165  0.050354  0.067331      4.000000
  0.109165  0.067139  0.084164      4.000000
  0.109165 -0.016785 -0.000000      4.000000
  0.109165  0.000000  0.016833      4.000000
  0.136456 -0.033569  0.000000      4.000000
  0.136456 -0.016785  0.016833      8.000000
  0.136456  0.000000  0.033666      4.000000
 -0.054583  0.083923  0.000000      4.000000
 -0.054583 -0.033569 -0.117830      8.000000
 -0.054583 -0.016785 -0.100997      8.000000
 -0.054583 -0.000000 -0.084164      4.000000
 -0.027291  0.067139  0.000000      4.000000
 -0.027291  0.083923  0.016833      8.000000
 -0.027291 -0.033569 -0.100997      8.000000
 -0.027291 -0.016785 -0.084164      8.000000
 -0.027291 -0.000000 -0.067331      4.000000
  0.000000  0.050354  0.000000      2.000000
  0.000000  0.067139  0.016833      4.000000
  0.000000  0.083923  0.033666      4.000000
 -0.000000 -0.033569 -0.084164      4.000000
 -0.000000 -0.016785 -0.067331      4.000000
 -0.000000 -0.000000 -0.050498      2.000000
  0.136456 -0.000000 -0.000000      2.000000
  0.163748 -0.016785 -0.000000      4.000000
  0.163748  0.000000  0.016833      4.000000
 -0.027291  0.100708  0.000000      4.000000
 -0.027291 -0.016785 -0.117830      8.000000
 -0.027291 -0.000000 -0.100997      4.000000
  0.000000  0.083923  0.000000      2.000000
  0.000000  0.100708  0.016833      4.000000
 -0.000000 -0.016785 -0.100997      4.000000
 -0.000000 -0.000000 -0.084164      2.000000
  0.191039 -0.000000 -0.000000      2.000000
  0.000000  0.117493  0.000000      2.000000
 -0.000000 -0.000000 -0.117830      2.000000
 
 
 Subroutine IBZKPT_HF returns following result:
 ==============================================
 
 Found    512 k-points in 1st BZ
 the following    512 k-points will be used (e.g. in the exchange kernel)
 Following reciprocal coordinates:   # in IRBZ
  0.062500  0.062500  0.062500    0.00195312   1 t-inv F
  0.187500  0.062500  0.062500    0.00195312   2 t-inv F
  0.312500  0.062500  0.062500    0.00195312   3 t-inv F
  0.437500  0.062500  0.062500    0.00195312   4 t-inv F
 -0.062500  0.062500  0.062500    0.00195312   5 t-inv F
  0.062500  0.187500  0.062500    0.00195312   6 t-inv F
  0.187500  0.187500  0.062500    0.00195312   7 t-inv F
  0.312500  0.187500  0.062500    0.00195312   8 t-inv F
  0.437500  0.187500  0.062500    0.00195312   9 t-inv F
 -0.437500  0.187500  0.062500    0.00195312  10 t-inv F
 -0.312500  0.187500  0.062500    0.00195312  11 t-inv F
 -0.187500  0.187500  0.062500    0.00195312  12 t-inv F
 -0.062500  0.187500  0.062500    0.00195312  13 t-inv F
  0.062500  0.312500  0.062500    0.00195312  14 t-inv F
  0.187500  0.312500  0.062500    0.00195312  15 t-inv F
  0.312500  0.312500  0.062500    0.00195312  16 t-inv F
  0.437500  0.312500  0.062500    0.00195312  17 t-inv F
 -0.437500  0.312500  0.062500    0.00195312  18 t-inv F
 -0.312500  0.312500  0.062500    0.00195312  19 t-inv F
 -0.187500  0.312500  0.062500    0.00195312  20 t-inv F
 -0.062500  0.312500  0.062500    0.00195312  21 t-inv F
  0.062500  0.437500  0.062500    0.00195312  22 t-inv F
  0.187500  0.437500  0.062500    0.00195312  23 t-inv F
  0.312500  0.437500  0.062500    0.00195312  24 t-inv F
  0.437500  0.437500  0.062500    0.00195312  25 t-inv F
 -0.437500  0.437500  0.062500    0.00195312  26 t-inv F
 -0.312500  0.437500  0.062500    0.00195312  27 t-inv F
 -0.187500  0.437500  0.062500    0.00195312  28 t-inv F
 -0.062500  0.437500  0.062500    0.00195312  29 t-inv F
  0.187500 -0.437500  0.062500    0.00195312  30 t-inv F
  0.437500 -0.437500  0.062500    0.00195312  31 t-inv F
 -0.437500 -0.437500  0.062500    0.00195312  32 t-inv F
 -0.312500 -0.437500  0.062500    0.00195312  33 t-inv F
 -0.187500 -0.437500  0.062500    0.00195312  34 t-inv F
 -0.062500 -0.437500  0.062500    0.00195312  35 t-inv F
  0.312500 -0.312500  0.062500    0.00195312  36 t-inv F
  0.437500 -0.312500  0.062500    0.00195312  37 t-inv F
 -0.437500 -0.312500  0.062500    0.00195312  38 t-inv F
 -0.312500 -0.312500  0.062500    0.00195312  39 t-inv F
 -0.187500 -0.312500  0.062500    0.00195312  40 t-inv F
 -0.062500 -0.312500  0.062500    0.00195312  41 t-inv F
  0.187500 -0.187500  0.062500    0.00195312  42 t-inv F
  0.312500 -0.187500  0.062500    0.00195312  43 t-inv F
  0.437500 -0.187500  0.062500    0.00195312  44 t-inv F
 -0.437500 -0.187500  0.062500    0.00195312  45 t-inv F
 -0.312500 -0.187500  0.062500    0.00195312  46 t-inv F
 -0.187500 -0.187500  0.062500    0.00195312  47 t-inv F
 -0.062500 -0.187500  0.062500    0.00195312  48 t-inv F
  0.062500 -0.062500  0.062500    0.00195312  49 t-inv F
  0.187500 -0.062500  0.062500    0.00195312  50 t-inv F
  0.312500 -0.062500  0.062500    0.00195312  51 t-inv F
  0.437500 -0.062500  0.062500    0.00195312  52 t-inv F
 -0.437500 -0.062500  0.062500    0.00195312  53 t-inv F
 -0.312500 -0.062500  0.062500    0.00195312  54 t-inv F
 -0.187500 -0.062500  0.062500    0.00195312  55 t-inv F
 -0.062500 -0.062500  0.062500    0.00195312  56 t-inv F
  0.187500  0.187500  0.187500    0.00195312  57 t-inv F
  0.312500  0.187500  0.187500    0.00195312  58 t-inv F
 -0.187500  0.187500  0.187500    0.00195312  59 t-inv F
  0.187500  0.312500  0.187500    0.00195312  60 t-inv F
  0.312500  0.312500  0.187500    0.00195312  61 t-inv F
 -0.312500  0.312500  0.187500    0.00195312  62 t-inv F
 -0.187500  0.312500  0.187500    0.00195312  63 t-inv F
 -0.437500  0.437500  0.187500    0.00195312  64 t-inv F
 -0.312500  0.437500  0.187500    0.00195312  65 t-inv F
 -0.187500  0.437500  0.187500    0.00195312  66 t-inv F
  0.437500 -0.437500  0.187500    0.00195312  67 t-inv F
 -0.437500 -0.437500  0.187500    0.00195312  68 t-inv F
 -0.312500 -0.437500  0.187500    0.00195312  69 t-inv F
 -0.187500 -0.437500  0.187500    0.00195312  70 t-inv F
  0.312500 -0.312500  0.187500    0.00195312  71 t-inv F
  0.437500 -0.312500  0.187500    0.00195312  72 t-inv F
 -0.437500 -0.312500  0.187500    0.00195312  73 t-inv F
 -0.312500 -0.312500  0.187500    0.00195312  74 t-inv F
 -0.187500 -0.312500  0.187500    0.00195312  75 t-inv F
  0.187500 -0.187500  0.187500    0.00195312  76 t-inv F
  0.312500 -0.187500  0.187500    0.00195312  77 t-inv F
  0.437500 -0.187500  0.187500    0.00195312  78 t-inv F
 -0.437500 -0.187500  0.187500    0.00195312  79 t-inv F
 -0.312500 -0.187500  0.187500    0.00195312  80 t-inv F
 -0.187500 -0.187500  0.187500    0.00195312  81 t-inv F
 -0.312500  0.312500  0.312500    0.00195312  82 t-inv F
 -0.437500  0.437500  0.312500    0.00195312  83 t-inv F
 -0.312500  0.437500  0.312500    0.00195312  84 t-inv F
  0.437500 -0.437500  0.312500    0.00195312  85 t-inv F
 -0.437500 -0.437500  0.312500    0.00195312  86 t-inv F
 -0.312500 -0.437500  0.312500    0.00195312  87 t-inv F
  0.312500 -0.312500  0.312500    0.00195312  88 t-inv F
  0.437500 -0.312500  0.312500    0.00195312  89 t-inv F
 -0.437500 -0.312500  0.312500    0.00195312  90 t-inv F
 -0.312500 -0.312500  0.312500    0.00195312  91 t-inv F
 -0.437500  0.437500  0.437500    0.00195312  92 t-inv F
  0.437500 -0.437500  0.437500    0.00195312  93 t-inv F
 -0.437500 -0.437500  0.437500    0.00195312  94 t-inv F
 -0.062500 -0.062500 -0.062500    0.00195312   1 t-inv F
 -0.187500  0.062500  0.062500    0.00195312   1 t-inv F
  0.187500 -0.062500 -0.062500    0.00195312   1 t-inv F
  0.062500 -0.187500  0.062500    0.00195312   1 t-inv F
 -0.062500  0.187500 -0.062500    0.00195312   1 t-inv F
  0.062500  0.062500 -0.187500    0.00195312   1 t-inv F
 -0.062500 -0.062500  0.187500    0.00195312   1 t-inv F
 -0.187500 -0.062500 -0.062500    0.00195312   2 t-inv F
 -0.312500  0.062500  0.062500    0.00195312   2 t-inv F
  0.312500 -0.062500 -0.062500    0.00195312   2 t-inv F
  0.062500 -0.312500  0.187500    0.00195312   2 t-inv F
 -0.062500  0.312500 -0.187500    0.00195312   2 t-inv F
  0.062500  0.187500 -0.312500    0.00195312   2 t-inv F
 -0.062500 -0.187500  0.312500    0.00195312   2 t-inv F
 -0.312500 -0.062500 -0.062500    0.00195312   3 t-inv F
 -0.437500  0.062500  0.062500    0.00195312   3 t-inv F
  0.437500 -0.062500 -0.062500    0.00195312   3 t-inv F
  0.062500 -0.437500  0.312500    0.00195312   3 t-inv F
 -0.062500  0.437500 -0.312500    0.00195312   3 t-inv F
  0.062500  0.312500 -0.437500    0.00195312   3 t-inv F
 -0.062500 -0.312500  0.437500    0.00195312   3 t-inv F
 -0.437500 -0.062500 -0.062500    0.00195312   4 t-inv F
  0.062500 -0.562500  0.437500    0.00195312   4 t-inv F
 -0.062500  0.562500 -0.437500    0.00195312   4 t-inv F
  0.062500 -0.062500 -0.062500    0.00195312   5 t-inv F
 -0.062500 -0.187500 -0.062500    0.00195312   6 t-inv F
 -0.312500  0.062500  0.187500    0.00195312   6 t-inv F
  0.312500 -0.062500 -0.187500    0.00195312   6 t-inv F
  0.062500 -0.312500  0.062500    0.00195312   6 t-inv F
 -0.062500  0.312500 -0.062500    0.00195312   6 t-inv F
  0.187500  0.062500 -0.312500    0.00195312   6 t-inv F
 -0.187500 -0.062500  0.312500    0.00195312   6 t-inv F
 -0.187500 -0.187500 -0.062500    0.00195312   7 t-inv F
 -0.437500  0.062500  0.187500    0.00195312   7 t-inv F
  0.437500 -0.062500 -0.187500    0.00195312   7 t-inv F
  0.062500 -0.437500  0.187500    0.00195312   7 t-inv F
 -0.062500  0.437500 -0.187500    0.00195312   7 t-inv F
  0.187500  0.187500 -0.437500    0.00195312   7 t-inv F
 -0.187500 -0.187500  0.437500    0.00195312   7 t-inv F
 -0.312500 -0.187500 -0.062500    0.00195312   8 t-inv F
 -0.562500  0.062500  0.187500    0.00195312   8 t-inv F
  0.562500 -0.062500 -0.187500    0.00195312   8 t-inv F
  0.062500 -0.562500  0.312500    0.00195312   8 t-inv F
 -0.062500  0.562500 -0.312500    0.00195312   8 t-inv F
  0.187500  0.312500 -0.562500    0.00195312   8 t-inv F
 -0.187500 -0.312500  0.562500    0.00195312   8 t-inv F
 -0.437500 -0.187500 -0.062500    0.00195312   9 t-inv F
 -0.687500  0.062500  0.187500    0.00195312   9 t-inv F
  0.687500 -0.062500 -0.187500    0.00195312   9 t-inv F
  0.062500 -0.687500  0.437500    0.00195312   9 t-inv F
 -0.062500  0.687500 -0.437500    0.00195312   9 t-inv F
  0.187500  0.437500 -0.687500    0.00195312   9 t-inv F
 -0.187500 -0.437500  0.687500    0.00195312   9 t-inv F
  0.437500 -0.187500 -0.062500    0.00195312  10 t-inv F
  0.187500  0.062500  0.187500    0.00195312  10 t-inv F
 -0.187500 -0.062500 -0.187500    0.00195312  10 t-inv F
  0.062500  0.187500 -0.437500    0.00195312  10 t-inv F
 -0.062500 -0.187500  0.437500    0.00195312  10 t-inv F
  0.187500 -0.437500  0.187500    0.00195312  10 t-inv F
 -0.187500  0.437500 -0.187500    0.00195312  10 t-inv F
  0.312500 -0.187500 -0.062500    0.00195312  11 t-inv F
  0.062500  0.062500  0.187500    0.00195312  11 t-inv F
 -0.062500 -0.062500 -0.187500    0.00195312  11 t-inv F
  0.062500  0.062500 -0.312500    0.00195312  11 t-inv F
 -0.062500 -0.062500  0.312500    0.00195312  11 t-inv F
  0.187500 -0.312500  0.062500    0.00195312  11 t-inv F
 -0.187500  0.312500 -0.062500    0.00195312  11 t-inv F
  0.187500 -0.187500 -0.062500    0.00195312  12 t-inv F
 -0.062500  0.062500  0.187500    0.00195312  12 t-inv F
  0.062500 -0.062500 -0.187500    0.00195312  12 t-inv F
  0.062500 -0.187500 -0.062500    0.00195312  13 t-inv F
 -0.187500  0.062500  0.187500    0.00195312  13 t-inv F
  0.187500 -0.062500 -0.187500    0.00195312  13 t-inv F
 -0.062500 -0.312500 -0.062500    0.00195312  14 t-inv F
 -0.437500  0.062500  0.312500    0.00195312  14 t-inv F
  0.437500 -0.062500 -0.312500    0.00195312  14 t-inv F
  0.062500 -0.437500  0.062500    0.00195312  14 t-inv F
 -0.062500  0.437500 -0.062500    0.00195312  14 t-inv F
  0.312500  0.062500 -0.437500    0.00195312  14 t-inv F
 -0.312500 -0.062500  0.437500    0.00195312  14 t-inv F
 -0.187500 -0.312500 -0.062500    0.00195312  15 t-inv F
 -0.562500  0.062500  0.312500    0.00195312  15 t-inv F
  0.562500 -0.062500 -0.312500    0.00195312  15 t-inv F
  0.062500 -0.562500  0.187500    0.00195312  15 t-inv F
 -0.062500  0.562500 -0.187500    0.00195312  15 t-inv F
  0.312500  0.187500 -0.562500    0.00195312  15 t-inv F
 -0.312500 -0.187500  0.562500    0.00195312  15 t-inv F
 -0.312500 -0.312500 -0.062500    0.00195312  16 t-inv F
 -0.687500  0.062500  0.312500    0.00195312  16 t-inv F
  0.687500 -0.062500 -0.312500    0.00195312  16 t-inv F
  0.062500 -0.687500  0.312500    0.00195312  16 t-inv F
 -0.062500  0.687500 -0.312500    0.00195312  16 t-inv F
  0.312500  0.312500 -0.687500    0.00195312  16 t-inv F
 -0.312500 -0.312500  0.687500    0.00195312  16 t-inv F
 -0.437500 -0.312500 -0.062500    0.00195312  17 t-inv F
 -0.812500  0.062500  0.312500    0.00195312  17 t-inv F
  0.812500 -0.062500 -0.312500    0.00195312  17 t-inv F
  0.062500 -0.812500  0.437500    0.00195312  17 t-inv F
 -0.062500  0.812500 -0.437500    0.00195312  17 t-inv F
  0.312500  0.437500 -0.812500    0.00195312  17 t-inv F
 -0.312500 -0.437500  0.812500    0.00195312  17 t-inv F
  0.437500 -0.312500 -0.062500    0.00195312  18 t-inv F
  0.062500  0.062500  0.312500    0.00195312  18 t-inv F
 -0.062500 -0.062500 -0.312500    0.00195312  18 t-inv F
  0.062500  0.062500 -0.437500    0.00195312  18 t-inv F
 -0.062500 -0.062500  0.437500    0.00195312  18 t-inv F
  0.312500 -0.437500  0.062500    0.00195312  18 t-inv F
 -0.312500  0.437500 -0.062500    0.00195312  18 t-inv F
  0.312500 -0.312500 -0.062500    0.00195312  19 t-inv F
 -0.062500  0.062500  0.312500    0.00195312  19 t-inv F
  0.062500 -0.062500 -0.312500    0.00195312  19 t-inv F
  0.187500 -0.312500 -0.062500    0.00195312  20 t-inv F
 -0.187500  0.062500  0.312500    0.00195312  20 t-inv F
  0.187500 -0.062500 -0.312500    0.00195312  20 t-inv F
  0.062500 -0.187500 -0.187500    0.00195312  20 t-inv F
 -0.062500  0.187500  0.187500    0.00195312  20 t-inv F
  0.312500 -0.187500 -0.187500    0.00195312  20 t-inv F
 -0.312500  0.187500  0.187500    0.00195312  20 t-inv F
  0.062500 -0.312500 -0.062500    0.00195312  21 t-inv F
 -0.312500  0.062500  0.312500    0.00195312  21 t-inv F
  0.312500 -0.062500 -0.312500    0.00195312  21 t-inv F
 -0.062500 -0.437500 -0.062500    0.00195312  22 t-inv F
 -0.562500  0.062500  0.437500    0.00195312  22 t-inv F
  0.562500 -0.062500 -0.437500    0.00195312  22 t-inv F
 -0.187500 -0.437500 -0.062500    0.00195312  23 t-inv F
 -0.687500  0.062500  0.437500    0.00195312  23 t-inv F
  0.687500 -0.062500 -0.437500    0.00195312  23 t-inv F
  0.062500 -0.687500  0.187500    0.00195312  23 t-inv F
 -0.062500  0.687500 -0.187500    0.00195312  23 t-inv F
  0.437500  0.187500 -0.687500    0.00195312  23 t-inv F
 -0.437500 -0.187500  0.687500    0.00195312  23 t-inv F
 -0.312500 -0.437500 -0.062500    0.00195312  24 t-inv F
 -0.812500  0.062500  0.437500    0.00195312  24 t-inv F
  0.812500 -0.062500 -0.437500    0.00195312  24 t-inv F
  0.062500 -0.812500  0.312500    0.00195312  24 t-inv F
 -0.062500  0.812500 -0.312500    0.00195312  24 t-inv F
  0.437500  0.312500 -0.812500    0.00195312  24 t-inv F
 -0.437500 -0.312500  0.812500    0.00195312  24 t-inv F
 -0.437500 -0.437500 -0.062500    0.00195312  25 t-inv F
 -0.937500  0.062500  0.437500    0.00195312  25 t-inv F
  0.937500 -0.062500 -0.437500    0.00195312  25 t-inv F
  0.437500 -0.437500 -0.062500    0.00195312  26 t-inv F
 -0.062500  0.062500  0.437500    0.00195312  26 t-inv F
  0.062500 -0.062500 -0.437500    0.00195312  26 t-inv F
  0.312500 -0.437500 -0.062500    0.00195312  27 t-inv F
 -0.187500  0.062500  0.437500    0.00195312  27 t-inv F
  0.187500 -0.062500 -0.437500    0.00195312  27 t-inv F
  0.062500 -0.187500 -0.312500    0.00195312  27 t-inv F
 -0.062500  0.187500  0.312500    0.00195312  27 t-inv F
  0.437500 -0.312500 -0.187500    0.00195312  27 t-inv F
 -0.437500  0.312500  0.187500    0.00195312  27 t-inv F
  0.187500 -0.437500 -0.062500    0.00195312  28 t-inv F
 -0.312500  0.062500  0.437500    0.00195312  28 t-inv F
  0.312500 -0.062500 -0.437500    0.00195312  28 t-inv F
  0.062500 -0.312500 -0.187500    0.00195312  28 t-inv F
 -0.062500  0.312500  0.187500    0.00195312  28 t-inv F
  0.437500 -0.187500 -0.312500    0.00195312  28 t-inv F
 -0.437500  0.187500  0.312500    0.00195312  28 t-inv F
  0.062500 -0.437500 -0.062500    0.00195312  29 t-inv F
 -0.437500  0.062500  0.437500    0.00195312  29 t-inv F
  0.437500 -0.062500 -0.437500    0.00195312  29 t-inv F
 -0.187500  0.437500 -0.062500    0.00195312  30 t-inv F
  0.187500  0.062500 -0.437500    0.00195312  30 t-inv F
 -0.187500 -0.062500  0.437500    0.00195312  30 t-inv F
  0.062500  0.187500  0.187500    0.00195312  30 t-inv F
 -0.062500 -0.187500 -0.187500    0.00195312  30 t-inv F
 -0.437500  0.187500  0.187500    0.00195312  30 t-inv F
  0.437500 -0.187500 -0.187500    0.00195312  30 t-inv F
 -0.437500  0.437500 -0.062500    0.00195312  31 t-inv F
 -0.062500  0.062500 -0.437500    0.00195312  31 t-inv F
  0.062500 -0.062500  0.437500    0.00195312  31 t-inv F
  0.437500  0.437500 -0.062500    0.00195312  32 t-inv F
  0.812500  0.062500 -0.437500    0.00195312  32 t-inv F
 -0.812500 -0.062500  0.437500    0.00195312  32 t-inv F
  0.062500  0.812500 -0.437500    0.00195312  32 t-inv F
 -0.062500 -0.812500  0.437500    0.00195312  32 t-inv F
 -0.437500 -0.437500  0.812500    0.00195312  32 t-inv F
  0.437500  0.437500 -0.812500    0.00195312  32 t-inv F
  0.312500  0.437500 -0.062500    0.00195312  33 t-inv F
  0.687500  0.062500 -0.437500    0.00195312  33 t-inv F
 -0.687500 -0.062500  0.437500    0.00195312  33 t-inv F
  0.062500  0.687500 -0.312500    0.00195312  33 t-inv F
 -0.062500 -0.687500  0.312500    0.00195312  33 t-inv F
 -0.437500 -0.312500  0.687500    0.00195312  33 t-inv F
  0.437500  0.312500 -0.687500    0.00195312  33 t-inv F
  0.187500  0.437500 -0.062500    0.00195312  34 t-inv F
  0.562500  0.062500 -0.437500    0.00195312  34 t-inv F
 -0.562500 -0.062500  0.437500    0.00195312  34 t-inv F
  0.062500  0.562500 -0.187500    0.00195312  34 t-inv F
 -0.062500 -0.562500  0.187500    0.00195312  34 t-inv F
 -0.437500 -0.187500  0.562500    0.00195312  34 t-inv F
  0.437500  0.187500 -0.562500    0.00195312  34 t-inv F
  0.062500  0.437500 -0.062500    0.00195312  35 t-inv F
  0.437500  0.062500 -0.437500    0.00195312  35 t-inv F
 -0.437500 -0.062500  0.437500    0.00195312  35 t-inv F
 -0.312500  0.312500 -0.062500    0.00195312  36 t-inv F
 -0.062500  0.062500 -0.312500    0.00195312  36 t-inv F
  0.062500 -0.062500  0.312500    0.00195312  36 t-inv F
 -0.437500  0.312500 -0.062500    0.00195312  37 t-inv F
 -0.187500  0.062500 -0.312500    0.00195312  37 t-inv F
  0.187500 -0.062500  0.312500    0.00195312  37 t-inv F
  0.062500 -0.187500  0.437500    0.00195312  37 t-inv F
 -0.062500  0.187500 -0.437500    0.00195312  37 t-inv F
 -0.312500  0.437500 -0.187500    0.00195312  37 t-inv F
  0.312500 -0.437500  0.187500    0.00195312  37 t-inv F
  0.437500  0.312500 -0.062500    0.00195312  38 t-inv F
  0.687500  0.062500 -0.312500    0.00195312  38 t-inv F
 -0.687500 -0.062500  0.312500    0.00195312  38 t-inv F
  0.062500  0.687500 -0.437500    0.00195312  38 t-inv F
 -0.062500 -0.687500  0.437500    0.00195312  38 t-inv F
 -0.312500 -0.437500  0.687500    0.00195312  38 t-inv F
  0.312500  0.437500 -0.687500    0.00195312  38 t-inv F
  0.312500  0.312500 -0.062500    0.00195312  39 t-inv F
  0.562500  0.062500 -0.312500    0.00195312  39 t-inv F
 -0.562500 -0.062500  0.312500    0.00195312  39 t-inv F
  0.062500  0.562500 -0.312500    0.00195312  39 t-inv F
 -0.062500 -0.562500  0.312500    0.00195312  39 t-inv F
 -0.312500 -0.312500  0.562500    0.00195312  39 t-inv F
  0.312500  0.312500 -0.562500    0.00195312  39 t-inv F
  0.187500  0.312500 -0.062500    0.00195312  40 t-inv F
  0.437500  0.062500 -0.312500    0.00195312  40 t-inv F
 -0.437500 -0.062500  0.312500    0.00195312  40 t-inv F
  0.062500  0.437500 -0.187500    0.00195312  40 t-inv F
 -0.062500 -0.437500  0.187500    0.00195312  40 t-inv F
 -0.312500 -0.187500  0.437500    0.00195312  40 t-inv F
  0.312500  0.187500 -0.437500    0.00195312  40 t-inv F
  0.062500  0.312500 -0.062500    0.00195312  41 t-inv F
  0.312500  0.062500 -0.312500    0.00195312  41 t-inv F
 -0.312500 -0.062500  0.312500    0.00195312  41 t-inv F
 -0.187500  0.187500 -0.062500    0.00195312  42 t-inv F
 -0.062500  0.062500 -0.187500    0.00195312  42 t-inv F
  0.062500 -0.062500  0.187500    0.00195312  42 t-inv F
 -0.312500  0.187500 -0.062500    0.00195312  43 t-inv F
 -0.187500  0.062500 -0.187500    0.00195312  43 t-inv F
  0.187500 -0.062500  0.187500    0.00195312  43 t-inv F
  0.062500 -0.187500  0.312500    0.00195312  43 t-inv F
 -0.062500  0.187500 -0.312500    0.00195312  43 t-inv F
 -0.187500  0.312500 -0.187500    0.00195312  43 t-inv F
  0.187500 -0.312500  0.187500    0.00195312  43 t-inv F
 -0.437500  0.187500 -0.062500    0.00195312  44 t-inv F
 -0.312500  0.062500 -0.187500    0.00195312  44 t-inv F
  0.312500 -0.062500  0.187500    0.00195312  44 t-inv F
  0.062500 -0.312500  0.437500    0.00195312  44 t-inv F
 -0.062500  0.312500 -0.437500    0.00195312  44 t-inv F
 -0.187500  0.437500 -0.312500    0.00195312  44 t-inv F
  0.187500 -0.437500  0.312500    0.00195312  44 t-inv F
  0.437500  0.187500 -0.062500    0.00195312  45 t-inv F
  0.562500  0.062500 -0.187500    0.00195312  45 t-inv F
 -0.562500 -0.062500  0.187500    0.00195312  45 t-inv F
  0.062500  0.562500 -0.437500    0.00195312  45 t-inv F
 -0.062500 -0.562500  0.437500    0.00195312  45 t-inv F
 -0.187500 -0.437500  0.562500    0.00195312  45 t-inv F
  0.187500  0.437500 -0.562500    0.00195312  45 t-inv F
  0.312500  0.187500 -0.062500    0.00195312  46 t-inv F
  0.437500  0.062500 -0.187500    0.00195312  46 t-inv F
 -0.437500 -0.062500  0.187500    0.00195312  46 t-inv F
  0.062500  0.437500 -0.312500    0.00195312  46 t-inv F
 -0.062500 -0.437500  0.312500    0.00195312  46 t-inv F
 -0.187500 -0.312500  0.437500    0.00195312  46 t-inv F
  0.187500  0.312500 -0.437500    0.00195312  46 t-inv F
  0.187500  0.187500 -0.062500    0.00195312  47 t-inv F
  0.312500  0.062500 -0.187500    0.00195312  47 t-inv F
 -0.312500 -0.062500  0.187500    0.00195312  47 t-inv F
  0.062500  0.312500 -0.187500    0.00195312  47 t-inv F
 -0.062500 -0.312500  0.187500    0.00195312  47 t-inv F
 -0.187500 -0.187500  0.312500    0.00195312  47 t-inv F
  0.187500  0.187500 -0.312500    0.00195312  47 t-inv F
  0.062500  0.187500 -0.062500    0.00195312  48 t-inv F
  0.187500  0.062500 -0.187500    0.00195312  48 t-inv F
 -0.187500 -0.062500  0.187500    0.00195312  48 t-inv F
 -0.062500  0.062500 -0.062500    0.00195312  49 t-inv F
 -0.187500  0.062500 -0.062500    0.00195312  50 t-inv F
  0.062500 -0.187500  0.187500    0.00195312  50 t-inv F
 -0.062500  0.187500 -0.187500    0.00195312  50 t-inv F
 -0.312500  0.062500 -0.062500    0.00195312  51 t-inv F
  0.062500 -0.312500  0.312500    0.00195312  51 t-inv F
 -0.062500  0.312500 -0.312500    0.00195312  51 t-inv F
 -0.437500  0.062500 -0.062500    0.00195312  52 t-inv F
  0.062500 -0.437500  0.437500    0.00195312  52 t-inv F
 -0.062500  0.437500 -0.437500    0.00195312  52 t-inv F
  0.437500  0.062500 -0.062500    0.00195312  53 t-inv F
  0.062500  0.437500 -0.437500    0.00195312  53 t-inv F
 -0.062500 -0.437500  0.437500    0.00195312  53 t-inv F
  0.312500  0.062500 -0.062500    0.00195312  54 t-inv F
  0.062500  0.312500 -0.312500    0.00195312  54 t-inv F
 -0.062500 -0.312500  0.312500    0.00195312  54 t-inv F
  0.187500  0.062500 -0.062500    0.00195312  55 t-inv F
  0.062500  0.187500 -0.187500    0.00195312  55 t-inv F
 -0.062500 -0.187500  0.187500    0.00195312  55 t-inv F
  0.062500  0.062500 -0.062500    0.00195312  56 t-inv F
 -0.187500 -0.187500 -0.187500    0.00195312  57 t-inv F
 -0.562500  0.187500  0.187500    0.00195312  57 t-inv F
  0.562500 -0.187500 -0.187500    0.00195312  57 t-inv F
  0.187500 -0.562500  0.187500    0.00195312  57 t-inv F
 -0.187500  0.562500 -0.187500    0.00195312  57 t-inv F
  0.187500  0.187500 -0.562500    0.00195312  57 t-inv F
 -0.187500 -0.187500  0.562500    0.00195312  57 t-inv F
 -0.312500 -0.187500 -0.187500    0.00195312  58 t-inv F
  0.187500 -0.687500  0.312500    0.00195312  58 t-inv F
 -0.187500  0.687500 -0.312500    0.00195312  58 t-inv F
  0.187500 -0.187500 -0.187500    0.00195312  59 t-inv F
 -0.187500 -0.312500 -0.187500    0.00195312  60 t-inv F
 -0.687500  0.187500  0.312500    0.00195312  60 t-inv F
  0.687500 -0.187500 -0.312500    0.00195312  60 t-inv F
 -0.312500 -0.312500 -0.187500    0.00195312  61 t-inv F
 -0.812500  0.187500  0.312500    0.00195312  61 t-inv F
  0.812500 -0.187500 -0.312500    0.00195312  61 t-inv F
  0.312500 -0.312500 -0.187500    0.00195312  62 t-inv F
 -0.187500  0.187500  0.312500    0.00195312  62 t-inv F
  0.187500 -0.187500 -0.312500    0.00195312  62 t-inv F
  0.187500 -0.312500 -0.187500    0.00195312  63 t-inv F
 -0.312500  0.187500  0.312500    0.00195312  63 t-inv F
  0.312500 -0.187500 -0.312500    0.00195312  63 t-inv F
  0.437500 -0.437500 -0.187500    0.00195312  64 t-inv F
 -0.187500  0.187500  0.437500    0.00195312  64 t-inv F
  0.187500 -0.187500 -0.437500    0.00195312  64 t-inv F
  0.312500 -0.437500 -0.187500    0.00195312  65 t-inv F
 -0.312500  0.187500  0.437500    0.00195312  65 t-inv F
  0.312500 -0.187500 -0.437500    0.00195312  65 t-inv F
  0.187500 -0.312500 -0.312500    0.00195312  65 t-inv F
 -0.187500  0.312500  0.312500    0.00195312  65 t-inv F
  0.437500 -0.312500 -0.312500    0.00195312  65 t-inv F
 -0.437500  0.312500  0.312500    0.00195312  65 t-inv F
  0.187500 -0.437500 -0.187500    0.00195312  66 t-inv F
 -0.437500  0.187500  0.437500    0.00195312  66 t-inv F
  0.437500 -0.187500 -0.437500    0.00195312  66 t-inv F
 -0.437500  0.437500 -0.187500    0.00195312  67 t-inv F
 -0.187500  0.187500 -0.437500    0.00195312  67 t-inv F
  0.187500 -0.187500  0.437500    0.00195312  67 t-inv F
  0.437500  0.437500 -0.187500    0.00195312  68 t-inv F
  0.687500  0.187500 -0.437500    0.00195312  68 t-inv F
 -0.687500 -0.187500  0.437500    0.00195312  68 t-inv F
  0.187500  0.687500 -0.437500    0.00195312  68 t-inv F
 -0.187500 -0.687500  0.437500    0.00195312  68 t-inv F
 -0.437500 -0.437500  0.687500    0.00195312  68 t-inv F
  0.437500  0.437500 -0.687500    0.00195312  68 t-inv F
  0.312500  0.437500 -0.187500    0.00195312  69 t-inv F
  0.562500  0.187500 -0.437500    0.00195312  69 t-inv F
 -0.562500 -0.187500  0.437500    0.00195312  69 t-inv F
  0.187500  0.562500 -0.312500    0.00195312  69 t-inv F
 -0.187500 -0.562500  0.312500    0.00195312  69 t-inv F
 -0.437500 -0.312500  0.562500    0.00195312  69 t-inv F
  0.437500  0.312500 -0.562500    0.00195312  69 t-inv F
  0.187500  0.437500 -0.187500    0.00195312  70 t-inv F
  0.437500  0.187500 -0.437500    0.00195312  70 t-inv F
 -0.437500 -0.187500  0.437500    0.00195312  70 t-inv F
 -0.312500  0.312500 -0.187500    0.00195312  71 t-inv F
 -0.187500  0.187500 -0.312500    0.00195312  71 t-inv F
  0.187500 -0.187500  0.312500    0.00195312  71 t-inv F
 -0.437500  0.312500 -0.187500    0.00195312  72 t-inv F
 -0.312500  0.187500 -0.312500    0.00195312  72 t-inv F
  0.312500 -0.187500  0.312500    0.00195312  72 t-inv F
  0.187500 -0.312500  0.437500    0.00195312  72 t-inv F
 -0.187500  0.312500 -0.437500    0.00195312  72 t-inv F
 -0.312500  0.437500 -0.312500    0.00195312  72 t-inv F
  0.312500 -0.437500  0.312500    0.00195312  72 t-inv F
  0.437500  0.312500 -0.187500    0.00195312  73 t-inv F
  0.562500  0.187500 -0.312500    0.00195312  73 t-inv F
 -0.562500 -0.187500  0.312500    0.00195312  73 t-inv F
  0.187500  0.562500 -0.437500    0.00195312  73 t-inv F
 -0.187500 -0.562500  0.437500    0.00195312  73 t-inv F
 -0.312500 -0.437500  0.562500    0.00195312  73 t-inv F
  0.312500  0.437500 -0.562500    0.00195312  73 t-inv F
  0.312500  0.312500 -0.187500    0.00195312  74 t-inv F
  0.437500  0.187500 -0.312500    0.00195312  74 t-inv F
 -0.437500 -0.187500  0.312500    0.00195312  74 t-inv F
  0.187500  0.437500 -0.312500    0.00195312  74 t-inv F
 -0.187500 -0.437500  0.312500    0.00195312  74 t-inv F
 -0.312500 -0.312500  0.437500    0.00195312  74 t-inv F
  0.312500  0.312500 -0.437500    0.00195312  74 t-inv F
  0.187500  0.312500 -0.187500    0.00195312  75 t-inv F
  0.312500  0.187500 -0.312500    0.00195312  75 t-inv F
 -0.312500 -0.187500  0.312500    0.00195312  75 t-inv F
 -0.187500  0.187500 -0.187500    0.00195312  76 t-inv F
 -0.312500  0.187500 -0.187500    0.00195312  77 t-inv F
  0.187500 -0.312500  0.312500    0.00195312  77 t-inv F
 -0.187500  0.312500 -0.312500    0.00195312  77 t-inv F
 -0.437500  0.187500 -0.187500    0.00195312  78 t-inv F
  0.187500 -0.437500  0.437500    0.00195312  78 t-inv F
 -0.187500  0.437500 -0.437500    0.00195312  78 t-inv F
  0.437500  0.187500 -0.187500    0.00195312  79 t-inv F
  0.187500  0.437500 -0.437500    0.00195312  79 t-inv F
 -0.187500 -0.437500  0.437500    0.00195312  79 t-inv F
  0.312500  0.187500 -0.187500    0.00195312  80 t-inv F
  0.187500  0.312500 -0.312500    0.00195312  80 t-inv F
 -0.187500 -0.312500  0.312500    0.00195312  80 t-inv F
  0.187500  0.187500 -0.187500    0.00195312  81 t-inv F
  0.312500 -0.312500 -0.312500    0.00195312  82 t-inv F
  0.437500 -0.437500 -0.312500    0.00195312  83 t-inv F
 -0.312500  0.312500  0.437500    0.00195312  83 t-inv F
  0.312500 -0.312500 -0.437500    0.00195312  83 t-inv F
  0.312500 -0.437500 -0.312500    0.00195312  84 t-inv F
 -0.437500  0.312500  0.437500    0.00195312  84 t-inv F
  0.437500 -0.312500 -0.437500    0.00195312  84 t-inv F
 -0.437500  0.437500 -0.312500    0.00195312  85 t-inv F
 -0.312500  0.312500 -0.437500    0.00195312  85 t-inv F
  0.312500 -0.312500  0.437500    0.00195312  85 t-inv F
  0.437500  0.437500 -0.312500    0.00195312  86 t-inv F
  0.562500  0.312500 -0.437500    0.00195312  86 t-inv F
 -0.562500 -0.312500  0.437500    0.00195312  86 t-inv F
  0.312500  0.562500 -0.437500    0.00195312  86 t-inv F
 -0.312500 -0.562500  0.437500    0.00195312  86 t-inv F
 -0.437500 -0.437500  0.562500    0.00195312  86 t-inv F
  0.437500  0.437500 -0.562500    0.00195312  86 t-inv F
  0.312500  0.437500 -0.312500    0.00195312  87 t-inv F
  0.437500  0.312500 -0.437500    0.00195312  87 t-inv F
 -0.437500 -0.312500  0.437500    0.00195312  87 t-inv F
 -0.312500  0.312500 -0.312500    0.00195312  88 t-inv F
 -0.437500  0.312500 -0.312500    0.00195312  89 t-inv F
  0.312500 -0.437500  0.437500    0.00195312  89 t-inv F
 -0.312500  0.437500 -0.437500    0.00195312  89 t-inv F
  0.437500  0.312500 -0.312500    0.00195312  90 t-inv F
  0.312500  0.437500 -0.437500    0.00195312  90 t-inv F
 -0.312500 -0.437500  0.437500    0.00195312  90 t-inv F
  0.312500  0.312500 -0.312500    0.00195312  91 t-inv F
  0.437500 -0.437500 -0.437500    0.00195312  92 t-inv F
 -0.437500  0.437500 -0.437500    0.00195312  93 t-inv F
  0.437500  0.437500 -0.437500    0.00195312  94 t-inv F


--------------------------------------------------------------------------------------------------------




 Dimension of arrays:
   k-points           NKPTS =     94   k-points in BZ     NKDIM =    512   number of bands    NBANDS=     56
   number of dos      NEDOS =    301   number of ions     NIONS =      6
   non local maximal  LDIM  =      6   non local SUM 2l+1 LMDIM =     18
   total plane-waves  NPLWV =  21952
   max r-space proj   IRMAX =      1   max aug-charges    IRDMAX=  14006
   dimension x,y,z NGX =    28 NGY =   28 NGZ =   28
   dimension x,y,z NGXF=    56 NGYF=   56 NGZF=   56
   support grid    NGXF=    56 NGYF=   56 NGZF=   56
   ions per type =               2   4
   NGX,Y,Z   is equivalent  to a cutoff of   8.12,  8.12,  8.12 a.u.
   NGXF,Y,Z  is equivalent  to a cutoff of  16.23, 16.23, 16.23 a.u.

 SYSTEM =  unknown system                          
 POSCAR =  Nd2 Zn4                                 

 Startparameter for this run:
   NWRITE =      2    write-flag & timer
   PREC   = normal    normal or accurate (medium, high low for compatibility)
   ISTART =      0    job   : 0-new  1-cont  2-samecut
   ICHARG =      2    charge: 1-file 2-atom 10-const
   ISPIN  =      1    spin polarized calculation?
   LNONCOLLINEAR =      F non collinear calculations
   LSORBIT =      F    spin-orbit coupling
   INIWAV =      1    electr: 0-lowe 1-rand  2-diag
   LASPH  =      T    aspherical Exc in radial PAW
 Electronic Relaxation 1
   ENCUT  =  400.0 eV  29.40 Ry    5.42 a.u.   9.35  9.35  9.35*2*pi/ulx,y,z
   ENINI  =  400.0     initial cutoff
   ENAUG  =  575.9 eV  augmentation charge cutoff
   NELM   =    100;   NELMIN=  2; NELMDL= -5     # of ELM steps 
   EDIFF  = 0.1E-06   stopping-criterion for ELM
   LREAL  =      F    real-space projection
   NLSPLINE    = F    spline interpolate recip. space projectors
   LCOMPAT=      F    compatible to vasp.4.4
   GGA_COMPAT  = T    GGA compatible to vasp.4.4-vasp.4.6
   LMAXPAW     = -100 max onsite density
   LMAXMIX     =    2 max onsite mixed and CHGCAR
   VOSKOWN=      0    Vosko Wilk Nusair interpolation
   ROPT   =    0.00000   0.00000
 Ionic relaxation
   EDIFFG = -.5E-02   stopping-criterion for IOM
   NSW    =    300    number of steps for IOM
   NBLOCK =      1;   KBLOCK =    300    inner block; outer block 
   IBRION =      2    ionic relax: 0-MD 1-quasi-New 2-CG
   NFREE  =      1    steps in history (QN), initial steepest desc. (CG)
   ISIF   =      3    stress and relaxation
   IWAVPR =     11    prediction:  0-non 1-charg 2-wave 3-comb
   ISYM   =      3    0-nonsym 1-usesym 2-fastsym
   LCORR  =      T    Harris-Foulkes like correction to forces

   POTIM  = 0.5000    time-step for ionic-motion
   TEIN   =    0.0    initial temperature
   TEBEG  =    0.0;   TEEND  =   0.0 temperature during run
   SMASS  =  -3.00    Nose mass-parameter (am)
   estimated Nose-frequenzy (Omega)   =  0.10E-29 period in steps = 0.13E+47 mass=  -0.752E-27a.u.
   SCALEE = 1.0000    scale energy and forces
   NPACO  =    256;   APACO  = 10.0  distance and # of slots for P.C.
   PSTRESS=    0.0 pullay stress

  Mass of Ions in am
   POMASS = 144.24 65.39
  Ionic Valenz
   ZVAL   =  11.00 12.00
  Atomic Wigner-Seitz radii
   RWIGS  =  -1.00 -1.00
  virtual crystal weights 
   VCA    =   1.00  1.00
   NELECT =      70.0000    total number of electrons
   NUPDOWN=      -1.0000    fix difference up-down

 DOS related values:
   EMIN   =  10.00;   EMAX   =-10.00  energy-range for DOS
   EFERMI =   0.00;   METHOD = LEGACY      
   ISMEAR =     0;   SIGMA  =   0.10  broadening in eV -4-tet -1-fermi 0-gaus
   EFERMI_NEDOS =   21; number of points for ismear=-14 and -15

 Electronic relaxation 2 (details)
   IALGO  =     53    algorithm
   LDIAG  =      T    sub-space diagonalisation (order eigenvalues)
   LSUBROT=      F    optimize rotation matrix (better conditioning)
   LROBUST=      F    robust break criterion during scf (extrapolated energy error)
   ISEARCH=      0    line search for conjugate gradient (0, 1=use gradient)
   TURBO    =      0    0=normal 1=particle mesh
   IRESTART =      0    0=no restart 2=restart with 2 vectors
   NREBOOT  =      0    no. of reboots
   NMIN     =      0    reboot dimension
   EREF     =   0.00    reference energy to select bands
   IMIX   =      4    mixing-type and parameters
     AMIX     =   0.40;   BMIX     =  1.00
     AMIX_MAG =   1.60;   BMIX_MAG =  1.00
     AMIN     =   0.10
     WC   =   100.;   INIMIX=   1;  MIXPRE=   1;  MAXMIX= -45

 Intra band minimization:
   WEIMIN = 0.0010     energy-eigenvalue tresh-hold
   EBREAK =  0.45E-09  absolut break condition
   DEPER  =   0.30     relativ break condition  

   TIME   =   0.40     timestep for ELM

  volume/ion in A,a.u.               =      21.11       142.45
  Fermi-wavevector in a.u.,A,eV,Ry     =   1.343503  2.538852 24.558510  1.805000
  Thomas-Fermi vector in A             =   2.471571
 
 Write flags
   LWAVE        =      T    write WAVECAR
   LDOWNSAMPLE  =      F    k-point downsampling of WAVECAR
   LCHARG       =      F    write CHGCAR
   LVTOT        =      F    write LOCPOT, total local potential
   LVHAR        =      F    write LOCPOT, Hartree potential only
   WRT_POTENTIAL= false  ! write potential to hdf5 file
   LELF         =      F    write electronic localiz. function (ELF)
   LORBIT       =     10    0 simple, 1 ext, 2 COOP (PROOUT), +10 PAW based schemes


 Python interface
   PLUGINS active      =      F    recompile with -DPLUGINS to activate
 
 Dipole corrections
   LMONO      =      F    monopole corrections only (constant potential shift)
   LDIPOL     =      F    correct potential (dipole corrections)
   IDIPOL     =      0    1-x, 2-y, 3-z, 4-all directions 
   EPSILON    =  1.0000000 bulk dielectric constant
   LVACPOTAV  =      F  vacuum potentials using an averaging scheme for the charge density
   VACPOTFLAT =  0.1000000 required flatness to determine vacuum potential
 
Coulomb truncation method
  LTRUNCATE          =      F  Coulomb kernel truncation to be used

 
 Exchange correlation treatment:
   GGA     = PE    functional components
   XC_C    = 1    coefficients multiplying the functional components
   LIBXC   =     F    Libxc                    
   VOSKOWN =     0    Vosko Wilk Nusair interpolation
   EXXOEP  =     0    0=HF, 1=EXX-LHF (local Hartree Fock) 2=EXX OEP
   LHFCALC =     T    Hartree Fock is set to
   LSYMGRAD=     F    symmetrize gradient (conserves proper symmetry)
   PRECFOCK=fast      Normal, Fast or Accurate (Low or Medium for compatibility)
   LRHFCALC=     F    long range Hartree Fock
   LRSCOR  =     F    long range correlation only (use DFT for short range part)
   LTHOMAS =     F    Thomas Fermi screening in HF
   LMODELHF=     F    short range full HF, long range fraction AEXX
   FOCKCORR=     1    mode to apply convergence corrections
   LFOCKACE=     T    use Adeptively-Compressed-Exchange operator
   ENCUT4O =  -1.0   cutoff for four orbital integrals eV
   LMAXFOCK=     4    L truncation for augmentation on plane wave grid
   LMAXFOCKAE=  -1    L truncation for all-electron charge restoration on plane wave grid
   NMAXFOCKAE=   1    number of basis functions for all-electron charge restoration
   LFOCKAEDFT=     F  apply the AE augmentation even for DFT
   NKREDX  =     1    reduce k-point grid by
   NKREDY  =     1    reduce k-point grid by
   NKREDZ  =     1    reduce k-point grid by
   SHIFTRED=     F    shift reduced grid of Gamma
   HFKIDENT=     F    idential grid for each k-point
   ODDONLY =     F    use only odd q-grid points
   EVENONLY=     F    use only even q-grid points
   HFALPHA =   -1.0000 decay constant for conv. correction
   MCALPHA =    0.0000 extent of test-charge in conv. correction in multipole expansion
   AEXX    =    0.3600 exact exchange contribution
   HFSCREEN=    0.2000 screening length (either q_TF or 0.3 A-1)
   HFSCREENC=   0.2000 screening length for correlation (either q_TF or 0.3 A-1)
   HFRCUT  =    0.0000 spherical cutoff for potential kernel
   ALDAX   =    0.6400 LDA exchange part
   AGGAX   =    0.6400 GGA exchange part
   AMGGAX  =    0.6400 meta-GGA exchange part
   ALDAC   =    1.0000 LDA correlation
   AGGAC   =    1.0000 GGA correlation
   AMGGAC  =    1.0000 meta-GGA correlation
   ENCUTFOCK=  -1.0 apply spherical cutoff to Coloumb kernel
   NBANDSGWLOW=     1    first orbital included in HF term
   NBLOCK_FOCK=    64    blocking factor in FOCK_ACC

 Parameters of functionals:
   PE:
     No parameter
 
 Van der Waals corrections
   IVDW    =     0    specifies the selected vdW correction

 Linear response parameters
   LEPSILON=     F    determine dielectric tensor
   LRPA    =     F    only Hartree local field effects (RPA)
   LNABLA  =     F    use nabla operator in PAW spheres
   LVEL    =     F    velocity operator in full k-point grid
   CSHIFT  =0.1000    complex shift for real part using Kramers Kronig
   OMEGAMAX=  -1.0    maximum frequency
   DEG_THRESHOLD= 0.2000000E-02 threshold for treating states as degnerate
   RTIME   =   -0.100 relaxation time in fs
  (WPLASMAI=    0.000 imaginary part of plasma frequency in eV, 0.658/RTIME)
   DFIELD  = 0.0000000 0.0000000 0.0000000 field for delta impulse in time
 
  Optional k-point grid parameters
   LKPOINTS_OPT  =     F    use optional k-point grid
   KPOINTS_OPT_MODE=     1    mode for optional k-point grid
 
 Orbital magnetization related:
   ORBITALMAG=     F  switch on orbital magnetization
   LCHIMAG   =     F  perturbation theory with respect to B field
   DQ        =  0.001000  dq finite difference perturbation B field
   LLRAUG    =     F  two centre corrections for induced B field
   LBONE     =     F  B-component reconstruction in AE one-centre
   LVGVCALC  =     T  calculate vGv susceptibility
   LVGVAPPL  =     F  apply vGv susceptibility instead of pGv for G=0

 Random number generation:
   RANDOM_GENERATOR = DEFAULT
   PCG_SEED         = not used


--------------------------------------------------------------------------------------------------------


 conjugate gradient relaxation of ions
 charge density and potential will be updated during run
 non-spin polarized calculation
 Conjugate gradient for all bands (Freysoldt, et al. PRB 79, 241103 (2009))
 perform sub-space diagonalisation
    before iterative eigenvector-optimisation
 modified Broyden-mixing scheme, WC =      100.0
 initial mixing is a Kerker type mixing with AMIX =  0.4000 and BMIX =      1.0000
 Hartree-type preconditioning will be used
 using additional bands           21
 reciprocal scheme for non local part
 use partial core corrections
 no Harris-corrections to forces 
 use gradient corrections 
 use of overlap-Matrix (Vanderbilt PP)
 Gauss-broadening in eV      SIGMA  =   0.10


--------------------------------------------------------------------------------------------------------


  energy-cutoff  :      400.00
  volume of cell :      126.65
      direct lattice vectors                 reciprocal lattice vectors
    -2.290109634  3.723631157  3.712991458    -0.000000000  0.134277532  0.134662308
     2.290109634 -3.723631157  3.712991458     0.218330159 -0.000000000  0.134662308
     2.290109634  3.723631157 -3.712991458     0.218330159  0.134277532  0.000000000

  length of vectors
     5.735532817  5.735532817  5.735532817     0.190169379  0.256518996  0.256317213


 
 k-points in units of 2pi/SCALE and weight: Num irrep kpoints: 94                   
   0.02729127  0.01678469  0.01683279       0.016
   0.02729127  0.03356938  0.03366558       0.016
   0.02729127  0.05035407  0.05049837       0.016
   0.02729127  0.06713877  0.06733115       0.008
   0.02729127 -0.00000000 -0.00000000       0.004
   0.05458254  0.01678469  0.03366558       0.016
   0.05458254  0.03356938  0.05049837       0.016
   0.05458254  0.05035407  0.06733115       0.016
   0.05458254  0.06713877  0.08416394       0.016
   0.05458254 -0.05035407 -0.03366558       0.016
   0.05458254 -0.03356938 -0.01683279       0.016
   0.05458254 -0.01678469  0.00000000       0.008
   0.05458254  0.00000000  0.01683279       0.008
   0.08187381  0.01678469  0.05049837       0.016
   0.08187381  0.03356938  0.06733115       0.016
   0.08187381  0.05035407  0.08416394       0.016
   0.08187381  0.06713877  0.10099673       0.016
   0.08187381 -0.05035407 -0.01683279       0.016
   0.08187381 -0.03356938 -0.00000000       0.008
   0.08187381 -0.01678469  0.01683279       0.016
   0.08187381  0.00000000  0.03366558       0.008
   0.10916508  0.01678469  0.06733115       0.008
   0.10916508  0.03356938  0.08416394       0.016
   0.10916508  0.05035407  0.10099673       0.016
   0.10916508  0.06713877  0.11782952       0.008
   0.10916508 -0.05035407 -0.00000000       0.008
   0.10916508 -0.03356938  0.01683279       0.016
   0.10916508 -0.01678469  0.03366558       0.016
   0.10916508  0.00000000  0.05049837       0.008
  -0.08187381  0.03356938 -0.03366558       0.016
  -0.08187381  0.06713877  0.00000000       0.008
  -0.08187381 -0.05035407 -0.11782952       0.016
  -0.08187381 -0.03356938 -0.10099673       0.016
  -0.08187381 -0.01678469 -0.08416394       0.016
  -0.08187381 -0.00000000 -0.06733115       0.008
  -0.05458254  0.05035407  0.00000000       0.008
  -0.05458254  0.06713877  0.01683279       0.016
  -0.05458254 -0.05035407 -0.10099673       0.016
  -0.05458254 -0.03356938 -0.08416394       0.016
  -0.05458254 -0.01678469 -0.06733115       0.016
  -0.05458254 -0.00000000 -0.05049837       0.008
  -0.02729127  0.03356938  0.00000000       0.008
  -0.02729127  0.05035407  0.01683279       0.016
  -0.02729127  0.06713877  0.03366558       0.016
  -0.02729127 -0.05035407 -0.08416394       0.016
  -0.02729127 -0.03356938 -0.06733115       0.016
  -0.02729127 -0.01678469 -0.05049837       0.016
  -0.02729127 -0.00000000 -0.03366558       0.008
   0.00000000  0.01678469  0.00000000       0.004
   0.00000000  0.03356938  0.01683279       0.008
   0.00000000  0.05035407  0.03366558       0.008
   0.00000000  0.06713877  0.05049837       0.008
  -0.00000000 -0.05035407 -0.06733115       0.008
  -0.00000000 -0.03356938 -0.05049837       0.008
  -0.00000000 -0.01678469 -0.03366558       0.008
  -0.00000000 -0.00000000 -0.01683279       0.004
   0.08187381  0.05035407  0.05049837       0.016
   0.08187381  0.06713877  0.06733115       0.008
   0.08187381 -0.00000000  0.00000000       0.004
   0.10916508  0.05035407  0.06733115       0.008
   0.10916508  0.06713877  0.08416394       0.008
   0.10916508 -0.01678469 -0.00000000       0.008
   0.10916508  0.00000000  0.01683279       0.008
   0.13645635 -0.03356938  0.00000000       0.008
   0.13645635 -0.01678469  0.01683279       0.016
   0.13645635  0.00000000  0.03366558       0.008
  -0.05458254  0.08392346  0.00000000       0.008
  -0.05458254 -0.03356938 -0.11782952       0.016
  -0.05458254 -0.01678469 -0.10099673       0.016
  -0.05458254 -0.00000000 -0.08416394       0.008
  -0.02729127  0.06713877  0.00000000       0.008
  -0.02729127  0.08392346  0.01683279       0.016
  -0.02729127 -0.03356938 -0.10099673       0.016
  -0.02729127 -0.01678469 -0.08416394       0.016
  -0.02729127 -0.00000000 -0.06733115       0.008
   0.00000000  0.05035407  0.00000000       0.004
   0.00000000  0.06713877  0.01683279       0.008
   0.00000000  0.08392346  0.03366558       0.008
  -0.00000000 -0.03356938 -0.08416394       0.008
  -0.00000000 -0.01678469 -0.06733115       0.008
  -0.00000000 -0.00000000 -0.05049837       0.004
   0.13645635 -0.00000000 -0.00000000       0.004
   0.16374762 -0.01678469 -0.00000000       0.008
   0.16374762  0.00000000  0.01683279       0.008
  -0.02729127  0.10070815  0.00000000       0.008
  -0.02729127 -0.01678469 -0.11782952       0.016
  -0.02729127 -0.00000000 -0.10099673       0.008
   0.00000000  0.08392346  0.00000000       0.004
   0.00000000  0.10070815  0.01683279       0.008
  -0.00000000 -0.01678469 -0.10099673       0.008
  -0.00000000 -0.00000000 -0.08416394       0.004
   0.19103889 -0.00000000 -0.00000000       0.004
   0.00000000  0.11749284  0.00000000       0.004
  -0.00000000 -0.00000000 -0.11782952       0.004
 
 k-points in reciprocal lattice and weights: Num irrep kpoints: 94                   
   0.06250000  0.06250000  0.06250000       0.016
   0.18750000  0.06250000  0.06250000       0.016
   0.31250000  0.06250000  0.06250000       0.016
   0.43750000  0.06250000  0.06250000       0.008
  -0.06250000  0.06250000  0.06250000       0.004
   0.06250000  0.18750000  0.06250000       0.016
   0.18750000  0.18750000  0.06250000       0.016
   0.31250000  0.18750000  0.06250000       0.016
   0.43750000  0.18750000  0.06250000       0.016
  -0.43750000  0.18750000  0.06250000       0.016
  -0.31250000  0.18750000  0.06250000       0.016
  -0.18750000  0.18750000  0.06250000       0.008
  -0.06250000  0.18750000  0.06250000       0.008
   0.06250000  0.31250000  0.06250000       0.016
   0.18750000  0.31250000  0.06250000       0.016
   0.31250000  0.31250000  0.06250000       0.016
   0.43750000  0.31250000  0.06250000       0.016
  -0.43750000  0.31250000  0.06250000       0.016
  -0.31250000  0.31250000  0.06250000       0.008
  -0.18750000  0.31250000  0.06250000       0.016
  -0.06250000  0.31250000  0.06250000       0.008
   0.06250000  0.43750000  0.06250000       0.008
   0.18750000  0.43750000  0.06250000       0.016
   0.31250000  0.43750000  0.06250000       0.016
   0.43750000  0.43750000  0.06250000       0.008
  -0.43750000  0.43750000  0.06250000       0.008
  -0.31250000  0.43750000  0.06250000       0.016
  -0.18750000  0.43750000  0.06250000       0.016
  -0.06250000  0.43750000  0.06250000       0.008
   0.18750000 -0.43750000  0.06250000       0.016
   0.43750000 -0.43750000  0.06250000       0.008
  -0.43750000 -0.43750000  0.06250000       0.016
  -0.31250000 -0.43750000  0.06250000       0.016
  -0.18750000 -0.43750000  0.06250000       0.016
  -0.06250000 -0.43750000  0.06250000       0.008
   0.31250000 -0.31250000  0.06250000       0.008
   0.43750000 -0.31250000  0.06250000       0.016
  -0.43750000 -0.31250000  0.06250000       0.016
  -0.31250000 -0.31250000  0.06250000       0.016
  -0.18750000 -0.31250000  0.06250000       0.016
  -0.06250000 -0.31250000  0.06250000       0.008
   0.18750000 -0.18750000  0.06250000       0.008
   0.31250000 -0.18750000  0.06250000       0.016
   0.43750000 -0.18750000  0.06250000       0.016
  -0.43750000 -0.18750000  0.06250000       0.016
  -0.31250000 -0.18750000  0.06250000       0.016
  -0.18750000 -0.18750000  0.06250000       0.016
  -0.06250000 -0.18750000  0.06250000       0.008
   0.06250000 -0.06250000  0.06250000       0.004
   0.18750000 -0.06250000  0.06250000       0.008
   0.31250000 -0.06250000  0.06250000       0.008
   0.43750000 -0.06250000  0.06250000       0.008
  -0.43750000 -0.06250000  0.06250000       0.008
  -0.31250000 -0.06250000  0.06250000       0.008
  -0.18750000 -0.06250000  0.06250000       0.008
  -0.06250000 -0.06250000  0.06250000       0.004
   0.18750000  0.18750000  0.18750000       0.016
   0.31250000  0.18750000  0.18750000       0.008
  -0.18750000  0.18750000  0.18750000       0.004
   0.18750000  0.31250000  0.18750000       0.008
   0.31250000  0.31250000  0.18750000       0.008
  -0.31250000  0.31250000  0.18750000       0.008
  -0.18750000  0.31250000  0.18750000       0.008
  -0.43750000  0.43750000  0.18750000       0.008
  -0.31250000  0.43750000  0.18750000       0.016
  -0.18750000  0.43750000  0.18750000       0.008
   0.43750000 -0.43750000  0.18750000       0.008
  -0.43750000 -0.43750000  0.18750000       0.016
  -0.31250000 -0.43750000  0.18750000       0.016
  -0.18750000 -0.43750000  0.18750000       0.008
   0.31250000 -0.31250000  0.18750000       0.008
   0.43750000 -0.31250000  0.18750000       0.016
  -0.43750000 -0.31250000  0.18750000       0.016
  -0.31250000 -0.31250000  0.18750000       0.016
  -0.18750000 -0.31250000  0.18750000       0.008
   0.18750000 -0.18750000  0.18750000       0.004
   0.31250000 -0.18750000  0.18750000       0.008
   0.43750000 -0.18750000  0.18750000       0.008
  -0.43750000 -0.18750000  0.18750000       0.008
  -0.31250000 -0.18750000  0.18750000       0.008
  -0.18750000 -0.18750000  0.18750000       0.004
  -0.31250000  0.31250000  0.31250000       0.004
  -0.43750000  0.43750000  0.31250000       0.008
  -0.31250000  0.43750000  0.31250000       0.008
   0.43750000 -0.43750000  0.31250000       0.008
  -0.43750000 -0.43750000  0.31250000       0.016
  -0.31250000 -0.43750000  0.31250000       0.008
   0.31250000 -0.31250000  0.31250000       0.004
   0.43750000 -0.31250000  0.31250000       0.008
  -0.43750000 -0.31250000  0.31250000       0.008
  -0.31250000 -0.31250000  0.31250000       0.004
  -0.43750000  0.43750000  0.43750000       0.004
   0.43750000 -0.43750000  0.43750000       0.004
  -0.43750000 -0.43750000  0.43750000       0.004
 
 position of ions in fractional coordinates (direct lattice) 
   0.70942515  0.45942515  0.25000000
   0.29057485  0.54057485  0.75000000
   0.72280630  0.16484867  0.55795764
   0.27719370  0.83515133  0.44204236
   0.10689103  0.16484867  0.94204236
   0.89310897  0.83515133  0.05795764
 
 position of ions in cartesian coordinates  (Angst):
   0.00000000  1.86181558  3.41168331
   2.29010963  1.86181558  0.30130814
  -0.00000000  4.15525687  1.22416337
   2.29010963 -0.43162571  2.48882809
   2.29010963  3.29200545 -2.48882809
   0.00000000  0.43162571  6.20181955
 


--------------------------------------------------------------------------------------------------------


 k-point     1 :   0.0625 0.0625 0.0625  plane waves:    2306
 k-point     2 :   0.1875 0.0625 0.0625  plane waves:    2300
 k-point     3 :   0.3125 0.0625 0.0625  plane waves:    2302
 k-point     4 :   0.4375 0.0625 0.0625  plane waves:    2304
 k-point     5 :  -0.0625 0.0625 0.0625  plane waves:    2301
 k-point     6 :   0.0625 0.1875 0.0625  plane waves:    2306
 k-point     7 :   0.1875 0.1875 0.0625  plane waves:    2303
 k-point     8 :   0.3125 0.1875 0.0625  plane waves:    2302
 k-point     9 :   0.4375 0.1875 0.0625  plane waves:    2303
 k-point    10 :  -0.4375 0.1875 0.0625  plane waves:    2305
[...]
  -V(xc)+E(xc)   XCENC  =       183.29572952
  PAW double counting   =      8274.21239172    -8873.08353442
  entropy T*S    EENTRO =        -0.01658408
  eigenvalues    EBANDS =      -674.88396912
  atomic energy  EATOM  =      8864.16016568
  ---------------------------------------------------
  free energy    TOTEN  =       -18.44019273 eV

  energy without entropy =      -18.42360865  energy(sigma->0) =      -18.43190069
  exchange ACFDT corr.  =        -0.00832044  see jH, gK, PRB 81, 115126


--------------------------------------------------------------------------------------------------------




--------------------------------------- Iteration      1(  13)  ---------------------------------------


    POTLOK:  cpu time      0.0294: real time      0.0339
    SETDIJ:  cpu time      0.1849: real time      0.1862
    TRIAL :  cpu time    750.8800: real time    754.2935
    CORREC:  cpu time      0.0032: real time      0.0045
    CHARGE:  cpu time      0.0499: real time      0.0573
    --------------------------------------------
      LOOP:  cpu time    751.1570: real time    754.5870

 eigenvalue-minimisations  :     0
 total energy-change (2. order) :-0.3111934E-02  (-0.2690122E-02)
 number of electron      69.9999931 magnetization 
 augmentation part       33.7351266 magnetization 

 Free energy of the ion-electron system (eV)
  ---------------------------------------------------
  alpha Z        PSCENC =       560.36586039
  Ewald energy   TEWEN  =     -6005.94368160
  -Hartree energ DENC   =     -2609.37470678
  -exchange      EXHF   =       261.24098751
  -V(xc)+E(xc)   XCENC  =       183.34525373
  PAW double counting   =      8274.26646741    -8873.86235057
  entropy T*S    EENTRO =        -0.01660015
  eigenvalues    EBANDS =      -672.62470027
  atomic energy  EATOM  =      8864.16016568
  ---------------------------------------------------
  free energy    TOTEN  =       -18.44330467 eV

  energy without entropy =      -18.42670451  energy(sigma->0) =      -18.43500459
  exchange ACFDT corr.  =        -0.00854667  see jH, gK, PRB 81, 115126


--------------------------------------------------------------------------------------------------------




--------------------------------------- Iteration      1(  14)  ---------------------------------------


    POTLOK:  cpu time      0.0300: real time      0.0341
    SETDIJ:  cpu time      0.1845: real time      0.1857
    TRIAL :  cpu time    751.4504: real time    754.7475
    CORREC:  cpu time      0.0031: real time      0.0037
    CHARGE:  cpu time      0.0498: real time      0.0508
    --------------------------------------------
      LOOP:  cpu time    751.7286: real time    755.0339

 eigenvalue-minimisations  :     0
 total energy-change (2. order) :-0.1978579E-02  (-0.1043079E-02)
 number of electron      69.9999931 magnetization 
 augmentation part       33.7257125 magnetization 

 Free energy of the ion-electron system (eV)
  ---------------------------------------------------
  alpha Z        PSCENC =       560.36586039
  Ewald energy   TEWEN  =     -6005.94368160
  -Hartree energ DENC   =     -2608.75484160
  -exchange      EXHF   =       261.22890263
  -V(xc)+E(xc)   XCENC  =       183.33171948
  PAW double counting   =      8273.36524458    -8872.41077377
  entropy T*S    EENTRO =        -0.01661811
  eigenvalues    EBANDS =      -673.77126092
  atomic energy  EATOM  =      8864.16016568
  ---------------------------------------------------
  free energy    TOTEN  =       -18.44528325 eV

  energy without entropy =      -18.42866514  energy(sigma->0) =      -18.43697419
  exchange ACFDT corr.  =        -0.00848233  see jH, gK, PRB 81, 115126


--------------------------------------------------------------------------------------------------------




--------------------------------------- Iteration      1(  15)  ---------------------------------------


    POTLOK:  cpu time      0.0290: real time      0.0309
    SETDIJ:  cpu time      0.1848: real time      0.1859
    TRIAL :  cpu time    750.2938: real time    753.6382
    CORREC:  cpu time      0.0040: real time      0.0048
    CHARGE:  cpu time      0.0519: real time      0.1112
    --------------------------------------------
      LOOP:  cpu time    750.5768: real time    753.9862

 eigenvalue-minimisations  :     0
 total energy-change (2. order) :-0.7081560E-03  (-0.5602098E-03)
 number of electron      69.9999931 magnetization 
 augmentation part       33.7241125 magnetization 

 Free energy of the ion-electron system (eV)
  ---------------------------------------------------
  alpha Z        PSCENC =       560.36586039
  Ewald energy   TEWEN  =     -6005.94368160
  -Hartree energ DENC   =     -2608.19481876
  -exchange      EXHF   =       261.21245666
  -V(xc)+E(xc)   XCENC  =       183.31732922
  PAW double counting   =      8272.97419634    -8871.60446647
  entropy T*S    EENTRO =        -0.01663012
  eigenvalues    EBANDS =      -674.71640273
  atomic energy  EATOM  =      8864.16016568
  ---------------------------------------------------
  free energy    TOTEN  =       -18.44599140 eV

  energy without entropy =      -18.42936128  energy(sigma->0) =      -18.43767634
  exchange ACFDT corr.  =        -0.00853285  see jH, gK, PRB 81, 115126


--------------------------------------------------------------------------------------------------------




--------------------------------------- Iteration      1(  16)  ---------------------------------------


    POTLOK:  cpu time      0.0307: real time      0.0392
    SETDIJ:  cpu time      0.1817: real time      0.1825
    TRIAL :  cpu time    751.1778: real time    754.5479
    CORREC:  cpu time      0.0034: real time      0.0041
    CHARGE:  cpu time      0.0501: real time      0.0571
    --------------------------------------------
      LOOP:  cpu time    751.4549: real time    754.8441

 eigenvalue-minimisations  :     0
 total energy-change (2. order) :-0.4302958E-03  (-0.2341551E-03)
 number of electron      69.9999931 magnetization 
 augmentation part       33.7227524 magnetization 

 Free energy of the ion-electron system (eV)
  ---------------------------------------------------
  alpha Z        PSCENC =       560.36586039
  Ewald energy   TEWEN  =     -6005.94368160
  -Hartree energ DENC   =     -2608.54584554
  -exchange      EXHF   =       261.22261924
  -V(xc)+E(xc)   XCENC  =       183.32686586
  PAW double counting   =      8273.52082216    -8872.30391908
  entropy T*S    EENTRO =        -0.01663685
  eigenvalues    EBANDS =      -674.23267196
  atomic energy  EATOM  =      8864.16016568
  ---------------------------------------------------
  free energy    TOTEN  =       -18.44642170 eV

  energy without entropy =      -18.42978485  energy(sigma->0) =      -18.43810328
  exchange ACFDT corr.  =        -0.00860749  see jH, gK, PRB 81, 115126


--------------------------------------------------------------------------------------------------------




--------------------------------------- Iteration      1(  17)  ---------------------------------------


    POTLOK:  cpu time      0.0290: real time      0.0324
    SETDIJ:  cpu time      0.1867: real time      0.1875
    TRIAL :  cpu time    751.7624: real time    755.5351
    CORREC:  cpu time      0.0034: real time      0.0046
    CHARGE:  cpu time      0.0518: real time      0.0590
    --------------------------------------------
      LOOP:  cpu time    752.0453: real time    755.8335

 eigenvalue-minimisations  :     0
 total energy-change (2. order) :-0.1777089E-03  (-0.1320594E-03)
 number of electron      69.9999931 magnetization 
 augmentation part       33.7200072 magnetization 

 Free energy of the ion-electron system (eV)
  ---------------------------------------------------
  alpha Z        PSCENC =       560.36586039
  Ewald energy   TEWEN  =     -6005.94368160
  -Hartree energ DENC   =     -2608.78176119
  -exchange      EXHF   =       261.22951402
  -V(xc)+E(xc)   XCENC  =       183.33303377
  PAW double counting   =      8274.11907174    -8872.99002886
  entropy T*S    EENTRO =        -0.01664157
  eigenvalues    EBANDS =      -673.92213179
  atomic energy  EATOM  =      8864.16016568
  ---------------------------------------------------
  free energy    TOTEN  =       -18.44659941 eV

  energy without entropy =      -18.42995784  energy(sigma->0) =      -18.43827862
  exchange ACFDT corr.  =        -0.00863882  see jH, gK, PRB 81, 115126


--------------------------------------------------------------------------------------------------------




--------------------------------------- Iteration      1(  18)  ---------------------------------------


    POTLOK:  cpu time      0.0303: real time      0.0335
    SETDIJ:  cpu time      0.1842: real time      0.1860
    TRIAL :  cpu time    750.5405: real time    754.1017
    CORREC:  cpu time      0.0037: real time      0.0044
    CHARGE:  cpu time      0.0507: real time      0.0585
    --------------------------------------------
      LOOP:  cpu time    750.8227: real time    754.3984

 eigenvalue-minimisations  :     0
 total energy-change (2. order) :-0.1063928E-03  (-0.6289196E-04)
 number of electron      69.9999931 magnetization 
 augmentation part       33.7183052 magnetization 

 Free energy of the ion-electron system (eV)
  ---------------------------------------------------
  alpha Z        PSCENC =       560.36586039
  Ewald energy   TEWEN  =     -6005.94368160
  -Hartree energ DENC   =     -2608.69584793
  -exchange      EXHF   =       261.22725259
  -V(xc)+E(xc)   XCENC  =       183.33057975
  PAW double counting   =      8274.50196267    -8873.27020502
  entropy T*S    EENTRO =        -0.01664579
  eigenvalues    EBANDS =      -674.10614654
  atomic energy  EATOM  =      8864.16016568
  ---------------------------------------------------
  free energy    TOTEN  =       -18.44670580 eV

  energy without entropy =      -18.43006001  energy(sigma->0) =      -18.43838291
  exchange ACFDT corr.  =        -0.00865601  see jH, gK, PRB 81, 115126


--------------------------------------------------------------------------------------------------------




--------------------------------------- Iteration      1(  19)  ---------------------------------------


    POTLOK:  cpu time      0.0281: real time      0.0310
    SETDIJ:  cpu time      0.1858: real time      0.1869
    TRIAL :  cpu time    752.3754: real time    756.0197
    CORREC:  cpu time      0.0047: real time      0.0059
    CHARGE:  cpu time      0.0606: real time      0.0671
    --------------------------------------------
      LOOP:  cpu time    752.6660: real time    756.3242

 eigenvalue-minimisations  :     0
 total energy-change (2. order) :-0.5105933E-04  (-0.3521137E-04)
 number of electron      69.9999931 magnetization 
 augmentation part       33.7178853 magnetization 

 Free energy of the ion-electron system (eV)
  ---------------------------------------------------
  alpha Z        PSCENC =       560.36586039
  Ewald energy   TEWEN  =     -6005.94368160
  -Hartree energ DENC   =     -2608.65773114
  -exchange      EXHF   =       261.22685418
  -V(xc)+E(xc)   XCENC  =       183.32959427
  PAW double counting   =      8274.82492659    -8873.52625142
  entropy T*S    EENTRO =        -0.01664934
  eigenvalues    EBANDS =      -674.20984446
  atomic energy  EATOM  =      8864.16016568
  ---------------------------------------------------
  free energy    TOTEN  =       -18.44675686 eV

  energy without entropy =      -18.43010752  energy(sigma->0) =      -18.43843219
  exchange ACFDT corr.  =        -0.00867801  see jH, gK, PRB 81, 115126


--------------------------------------------------------------------------------------------------------




--------------------------------------- Iteration      1(  20)  ---------------------------------------


    POTLOK:  cpu time      0.0310: real time      0.0343
    SETDIJ:  cpu time      0.1834: real time      0.1842
    TRIAL :  cpu time    752.3954: real time    756.1077
    CORREC:  cpu time      0.0031: real time      0.0036
    CHARGE:  cpu time      0.0507: real time      0.0609
    --------------------------------------------
      LOOP:  cpu time    752.6748: real time    756.4035

 eigenvalue-minimisations  :     0
 total energy-change (2. order) :-0.2986405E-04  (-0.1867781E-04)
 number of electron      69.9999931 magnetization 
 augmentation part       33.7174554 magnetization 

 Free energy of the ion-electron system (eV)
  ---------------------------------------------------
  alpha Z        PSCENC =       560.36586039
  Ewald energy   TEWEN  =     -6005.94368160
  -Hartree energ DENC   =     -2608.73538325
  -exchange      EXHF   =       261.22985558
  -V(xc)+E(xc)   XCENC  =       183.33179811
  PAW double counting   =      8275.11738287    -8873.83493561
  entropy T*S    EENTRO =        -0.01665208
  eigenvalues    EBANDS =      -674.12119681
  atomic energy  EATOM  =      8864.16016568
  ---------------------------------------------------
  free energy    TOTEN  =       -18.44678672 eV

  energy without entropy =      -18.43013465  energy(sigma->0) =      -18.43846069
  exchange ACFDT corr.  =        -0.00868818  see jH, gK, PRB 81, 115126


--------------------------------------------------------------------------------------------------------




--------------------------------------- Iteration      1(  21)  ---------------------------------------


    POTLOK:  cpu time      0.0293: real time      0.0320
    SETDIJ:  cpu time      0.1837: real time      0.1843
    TRIAL :  cpu time    751.1873: real time    754.8740
    CORREC:  cpu time      0.0036: real time      0.0044
    CHARGE:  cpu time      0.0569: real time      0.0928
    --------------------------------------------
      LOOP:  cpu time    751.4705: real time    755.1978

 eigenvalue-minimisations  :     0
 total energy-change (2. order) :-0.1637793E-04  (-0.1155908E-04)
 number of electron      69.9999931 magnetization 
 augmentation part       33.7168328 magnetization 

 Free energy of the ion-electron system (eV)
  ---------------------------------------------------
  alpha Z        PSCENC =       560.36586039
  Ewald energy   TEWEN  =     -6005.94368160
  -Hartree energ DENC   =     -2608.77483696
  -exchange      EXHF   =       261.23122972
  -V(xc)+E(xc)   XCENC  =       183.33287522
  PAW double counting   =      8275.29912187    -8874.02435123
  entropy T*S    EENTRO =        -0.01665417
  eigenvalues    EBANDS =      -674.07653202
  atomic energy  EATOM  =      8864.16016568
  ---------------------------------------------------
  free energy    TOTEN  =       -18.44680310 eV

  energy without entropy =      -18.43014893  energy(sigma->0) =      -18.43847602
  exchange ACFDT corr.  =        -0.00871552  see jH, gK, PRB 81, 115126


--------------------------------------------------------------------------------------------------------




--------------------------------------- Iteration      1(  22)  ---------------------------------------


    POTLOK:  cpu time      0.0433: real time      0.0876
    SETDIJ:  cpu time      0.1840: real time      0.1850
    TRIAL :  cpu time    750.2738: real time    753.6620
    CORREC:  cpu time      0.0042: real time      0.0049
    CHARGE:  cpu time      0.0525: real time      0.1258
    --------------------------------------------
      LOOP:  cpu time    750.5688: real time    754.0778

 eigenvalue-minimisations  :     0
 total energy-change (2. order) :-0.1042887E-04  (-0.7097239E-05)
 number of electron      69.9999931 magnetization 
 augmentation part       33.7164190 magnetization 

 Free energy of the ion-electron system (eV)
  ---------------------------------------------------
  alpha Z        PSCENC =       560.36586039
  Ewald energy   TEWEN  =     -6005.94368160
  -Hartree energ DENC   =     -2608.76035993
  -exchange      EXHF   =       261.23073232
  -V(xc)+E(xc)   XCENC  =       183.33244867
  PAW double counting   =      8275.38778449    -8874.09637612
  entropy T*S    EENTRO =        -0.01665579
  eigenvalues    EBANDS =      -674.10673164
  atomic energy  EATOM  =      8864.16016568
  ---------------------------------------------------
  free energy    TOTEN  =       -18.44681353 eV

  energy without entropy =      -18.43015775  energy(sigma->0) =      -18.43848564
  exchange ACFDT corr.  =        -0.00872139  see jH, gK, PRB 81, 115126


--------------------------------------------------------------------------------------------------------




--------------------------------------- Iteration      1(  23)  ---------------------------------------


    POTLOK:  cpu time      0.0300: real time      0.0317
    SETDIJ:  cpu time      0.1823: real time      0.1833
    TRIAL :  cpu time    751.0320: real time    754.6730
    CORREC:  cpu time      0.0027: real time      0.0039
    CHARGE:  cpu time      0.0490: real time      0.0760
    --------------------------------------------
      LOOP:  cpu time    751.3062: real time    754.9801

 eigenvalue-minimisations  :     0
 total energy-change (2. order) :-0.6577243E-05  (-0.4728172E-05)
 number of electron      69.9999931 magnetization 
 augmentation part       33.7162395 magnetization 

 Free energy of the ion-electron system (eV)
  ---------------------------------------------------
  alpha Z        PSCENC =       560.36586039
  Ewald energy   TEWEN  =     -6005.94368160
  -Hartree energ DENC   =     -2608.75336778
  -exchange      EXHF   =       261.23051658
  -V(xc)+E(xc)   XCENC  =       183.33225839
  PAW double counting   =      8275.44994294    -8874.14842165
  entropy T*S    EENTRO =        -0.01665698
  eigenvalues    EBANDS =      -674.12343608
  atomic energy  EATOM  =      8864.16016568
  ---------------------------------------------------
  free energy    TOTEN  =       -18.44682011 eV

  energy without entropy =      -18.43016313  energy(sigma->0) =      -18.43849162
  exchange ACFDT corr.  =        -0.00872557  see jH, gK, PRB 81, 115126


--------------------------------------------------------------------------------------------------------




--------------------------------------- Iteration      1(  24)  ---------------------------------------


    POTLOK:  cpu time      0.0308: real time      0.0414
    SETDIJ:  cpu time      0.1845: real time      0.1854
    TRIAL :  cpu time    751.2111: real time    755.1551
    CORREC:  cpu time      0.0022: real time      0.0038
    CHARGE:  cpu time      0.0529: real time      0.0979
    --------------------------------------------
      LOOP:  cpu time    751.4943: real time    755.4984

 eigenvalue-minimisations  :     0
 total energy-change (2. order) :-0.4488585E-05  (-0.3244958E-05)
 number of electron      69.9999931 magnetization 
 augmentation part       33.7160847 magnetization 

 Free energy of the ion-electron system (eV)
  ---------------------------------------------------
  alpha Z        PSCENC =       560.36586039
  Ewald energy   TEWEN  =     -6005.94368160
  -Hartree energ DENC   =     -2608.76449990
  -exchange      EXHF   =       261.23092517
  -V(xc)+E(xc)   XCENC  =       183.33258677
  PAW double counting   =      8275.50813944    -8874.20779351
  entropy T*S    EENTRO =        -0.01665781
  eigenvalues    EBANDS =      -674.11186922
  atomic energy  EATOM  =      8864.16016568
  ---------------------------------------------------
  free energy    TOTEN  =       -18.44682460 eV

  energy without entropy =      -18.43016679  energy(sigma->0) =      -18.43849569
  exchange ACFDT corr.  =        -0.00872851  see jH, gK, PRB 81, 115126


--------------------------------------------------------------------------------------------------------




--------------------------------------- Iteration      1(  25)  ---------------------------------------


    POTLOK:  cpu time      0.0305: real time      0.0327
    SETDIJ:  cpu time      0.1853: real time      0.1868
