 running  112 mpi-ranks, on    1 nodes
 distrk:  each k-point on   28 cores,    4 groups
 distr:  one band on    1 cores,   28 groups
 vasp.6.5.1 10Mar25 (build May 05 2025 13:45:00) complex                        
  
 POSCAR found type information on POSCAR NdZn
 POSCAR found :  2 types and       6 ions
 scaLAPACK will be used
 -----------------------------------------------------------------------------
|                                                                             |
|           W    W    AA    RRRRR   N    N  II  N    N   GGGG   !!!           |
|           W    W   A  A   R    R  NN   N  II  NN   N  G    G  !!!           |
|           W    W  A    A  R    R  N N  N  II  N N  N  G       !!!           |
|           W WW W  AAAAAA  RRRRR   N  N N  II  N  N N  G  GGG   !            |
|           WW  WW  A    A  R   R   N   NN  II  N   NN  G    G                |
|           W    W  A    A  R    R  N    N  II  N    N   GGGG   !!!           |
|                                                                             |
|     For optimal performance we recommend to set                             |
|       NCORE = 2 up to number-of-cores-per-socket                            |
|     NCORE specifies how many cores store one orbital (NPAR=cpu/NCORE).      |
|     This setting can greatly improve the performance of VASP for DFT.       |
|     The default, NCORE=1 might be grossly inefficient on modern             |
|     multi-core architectures or massively parallel machines. Do your        |
|     own testing! More info at https://www.vasp.at/wiki/index.php/NCORE      |
|     Unfortunately you need to use the default for GW and RPA                |
|     calculations (for HF NCORE is supported but not extensively tested      |
|     yet).                                                                   |
|                                                                             |
 -----------------------------------------------------------------------------

 LDA part: xc-table for (Slater+PW92), standard interpolation
 POSCAR, INCAR and KPOINTS ok, starting setup
 FFT: planning ... GRIDC
 FFT: planning ... GRID_SOFT
 FFT: planning ... GRID
 WAVECAR not read
 entering main loop
       N       E                     dE             d eps       ncg     rms           ort
DAV:   1    -0.604468978916E+04   -0.60447E+04   -0.31537E+04  5264   0.161E+03  
DAV:   2    -0.651783612624E+04   -0.47315E+03   -0.46385E+03  5264   0.374E+02  
DAV:   3    -0.660532729037E+04   -0.87491E+02   -0.86122E+02  5264   0.137E+02  
DAV:   4    -0.661930702639E+04   -0.13980E+02   -0.13925E+02  5264   0.517E+01  
DAV:   5    -0.175611143537E+02    0.66017E+04   -0.49469E+01  5264   0.487E+01  
SDA:   6    -0.172340371579E+02    0.32708E+00   -0.17553E+01  5264   0.439E+01   0.000E+00
DMP:   7    -0.180440865950E+02   -0.81005E+00   -0.41137E+00  5264   0.117E+01  -0.369E+00
DMP:   8    -0.183039965770E+02   -0.25991E+00   -0.18641E+00  5264   0.361E+00   0.275E+00
DMP:   9    -0.183800893715E+02   -0.76093E-01   -0.50298E-01  5264   0.158E+00  -0.852E-01
DMP:  10    -0.184134776175E+02   -0.33388E-01   -0.33594E-01  5264   0.685E-01   0.406E-01
DMP:  11    -0.184306753134E+02   -0.17198E-01   -0.14377E-01  5264   0.352E-01   0.194E-02
DMP:  12    -0.184401927343E+02   -0.95174E-02   -0.50946E-02  5264   0.831E-02   0.116E-01
DMP:  13    -0.184433046683E+02   -0.31119E-02   -0.26901E-02  5264   0.570E-02   0.267E-02
DMP:  14    -0.184452832476E+02   -0.19786E-02   -0.10431E-02  5264   0.145E-02   0.303E-02
DMP:  15    -0.184459914036E+02   -0.70816E-03   -0.56021E-03  5264   0.107E-02   0.857E-03
DMP:  16    -0.184464216994E+02   -0.43030E-03   -0.23416E-03  5264   0.310E-03   0.720E-03
DMP:  17    -0.184465994083E+02   -0.17771E-03   -0.13206E-03  5264   0.217E-03   0.295E-03
DMP:  18    -0.184467058011E+02   -0.10639E-03   -0.62892E-04  5264   0.803E-04   0.202E-03
DMP:  19    -0.184467568605E+02   -0.51059E-04   -0.35211E-04  5264   0.504E-04   0.986E-04
DMP:  20    -0.184467867245E+02   -0.29864E-04   -0.18678E-04  5264   0.233E-04   0.612E-04
DMP:  21    -0.184468031025E+02   -0.16378E-04   -0.11559E-04  5264   0.155E-04   0.350E-04
DMP:  22    -0.184468135313E+02   -0.10429E-04   -0.70972E-05  5264   0.904E-05   0.228E-04
DMP:  23    -0.184468201086E+02   -0.65772E-05   -0.47282E-05  5264   0.625E-05   0.146E-04
DMP:  24    -0.184468245972E+02   -0.44886E-05   -0.32450E-05  5264   0.426E-05   0.101E-04
