       N       E                     dE             d eps       ncg     rms          rms(c)
DAV:   1     0.194552696108E+03    0.19455E+03   -0.10933E+04 18888   0.809E+02
DAV:   2     0.391832788373E+01   -0.19063E+03   -0.17884E+03 19622   0.224E+02
DAV:   3    -0.155808422026E+02   -0.19499E+02   -0.19210E+02 22258   0.734E+01
DAV:   4    -0.159474307520E+02   -0.36659E+00   -0.36608E+00 21684   0.106E+01
DAV:   5    -0.159505294980E+02   -0.30987E-02   -0.30983E-02 22588   0.941E-01    0.999E+00
DAV:   6    -0.151731839267E+02    0.77735E+00   -0.11734E+00 27356   0.284E+01    0.755E+00
DAV:   7    -0.151427205651E+02    0.30463E-01   -0.68533E-01 21736   0.444E+00    0.329E+00
DAV:   8    -0.151367131173E+02    0.60074E-02   -0.13164E-02 21218   0.806E-01    0.663E-01
DAV:   9    -0.151360650690E+02    0.64805E-03   -0.27297E-03 21718   0.238E-01    0.169E-01
DAV:  10    -0.151361453017E+02   -0.80233E-04   -0.17913E-04 22052   0.649E-02    0.105E-01
DAV:  11    -0.151362481924E+02   -0.10289E-03   -0.58924E-05 20106   0.536E-02    0.242E-02
DAV:  12    -0.151362538162E+02   -0.56239E-05   -0.15792E-05 20348   0.359E-02
   1 F= -.15136254E+02 E0= -.15136254E+02  d E =-.151363E+02
