 vasp.6.5.1 10Mar25 (build May 13 2025 11:33:44) complex                         
 executed on              LinuxNV date 2026.05.15  18:30:14
 running    2 mpi-ranks, on    1 nodes
 distrk:  each k-point on    1 cores,    2 groups
 distr:  one band on NCORE=   1 cores,    1 groups
 Offloading initialized ...    2 GPUs detected


--------------------------------------------------------------------------------------------------------


 INCAR:
   ALGO = Normal
   PREC = Normal
   LREAL = False
   EDIFF = 1e-05
   ENCUT = 276.723
   LASPH = True
   NELM = 100
   ISIF = 0
   IBRION = 2
   NSW = 1
   ISMEAR = 0
   SIGMA = 0.1
   LWAVE = False
   LCHARG = False
   NBANDS = 34
   LORBIT = 10
   GGA = Ps
   KPAR = 4

 POTCAR:    PAW_PBE Zn 06Sep2000                  
 POTCAR:    PAW_PBE S 06Sep2000                   
 POTCAR:    PAW_PBE Zn 06Sep2000                  
   SHA256 =  501fddbd8274dd8e9725d4f3de27861d7f1e553a7e18441bc79fed8f346e7f23 Zn/POTCAR             
   COPYR  = (c) Copyright 06Sep2000 Georg Kresse                                                    
   COPYR  = This file is part of the software VASP. Any use, copying, and all other rights are regul
   COPYR  = If you do not have a valid VASP license, you may not use, copy or distribute this file. 
   VRHFIN =Zn: d10 p2                                                                               
   LEXCH  = PE                                                                                      
   EATOM  =  1748.8345 eV,  128.5357 Ry                                                             
                                                                                                    
   TITEL  = PAW_PBE Zn 06Sep2000                                                                    
   LULTRA =        F    use ultrasoft PP ?                                                          
   IUNSCR =        1    unscreen: 0-lin 1-nonlin 2-no                                               
   RPACOR =    2.000    partial core radius                                                         
   POMASS =   65.390; ZVAL   =   12.000    mass and valenz                                          
   RCORE  =    2.300    outmost cutoff radius                                                       
   RWIGS  =    2.400; RWIGS  =    1.270    wigner-seitz radius (au A)                               
   ENMAX  =  276.723; ENMIN  =  207.542 eV                                                          
   RCLOC  =    1.828    cutoff for local pot                                                        
   LCOR   =        T    correct aug charges                                                         
   LPAW   =        T    paw PP                                                                      
   EAUG   =  575.892                                                                                
   DEXC   =    0.000                                                                                
   RMAX   =    2.347    core radius for proj-oper                                                   
   RAUG   =    1.300    factor for augmentation sphere                                              
   RDEP   =    2.324    radius for radial grids                                                     
   RDEPT  =    1.788    core radius for aug-charge                                                  
                                                                                                    
   Atomic configuration                                                                             
    9 entries                                                                                       
     n  l   j            E        occ.                                                              
     1  0  0.50     -9524.6913   2.0000                                                             
     2  0  0.50     -1158.1882   2.0000                                                             
     2  1  1.50     -1003.8506   6.0000                                                             
     3  0  0.50      -129.2194   2.0000                                                             
     3  1  1.50       -83.3890   6.0000                                                             
     3  2  2.50       -10.1410  10.0000                                                             
     4  0  0.50        -5.9785   2.0000                                                             
     4  1  0.50        -4.0817   0.0000                                                             
     4  3  2.50        -1.3606   0.0000                                                             
   Description                                                                                      
     l       E           TYP  RCUT    TYP  RCUT                                                     
     2    -10.1410010     23  2.300                                                                 
     2    -11.5015836     23  2.300                                                                 
     0     -5.9785163     23  2.300                                                                 
     0      1.1858015     23  2.300                                                                 
     1     -2.7211652     23  2.300                                                                 
     1     13.2444212     23  2.300                                                                 
  local pseudopotential read in
  partial core-charges read in
  partial kinetic energy density read in
  atomic valenz-charges read in
  non local Contribution for L=            2  read in
    real space projection operators read in
  non local Contribution for L=            2  read in
    real space projection operators read in
  non local Contribution for L=            0  read in
    real space projection operators read in
  non local Contribution for L=            0  read in
    real space projection operators read in
  non local Contribution for L=            1  read in
    real space projection operators read in
  non local Contribution for L=            1  read in
    real space projection operators read in
    PAW grid and wavefunctions read in
 
   number of l-projection  operators is LMAX  =            6
   number of lm-projection operators is LMMAX =           18
 
 POTCAR:    PAW_PBE S 06Sep2000                   
   SHA256 =  0fc7481fb0695f01bdc6462160264c5c84044ae9ec85a907d398b887a2bc3132 S/POTCAR              
   COPYR  = (c) Copyright 06Sep2000 Georg Kresse                                                    
   COPYR  = This file is part of the software VASP. Any use, copying, and all other rights are regul
   COPYR  = If you do not have a valid VASP license, you may not use, copy or distribute this file. 
   VRHFIN =S : s2p4                                                                                 
   LEXCH  = PE                                                                                      
   EATOM  =   276.8230 eV,   20.3459 Ry                                                             
                                                                                                    
   TITEL  = PAW_PBE S 06Sep2000                                                                     
   LULTRA =        F    use ultrasoft PP ?                                                          
   IUNSCR =        1    unscreen: 0-lin 1-nonlin 2-no                                               
   RPACOR =    1.500    partial core radius                                                         
   POMASS =   32.066; ZVAL   =    6.000    mass and valenz                                          
   RCORE  =    1.900    outmost cutoff radius                                                       
   RWIGS  =    2.200; RWIGS  =    1.164    wigner-seitz radius (au A)                               
   ENMAX  =  258.689; ENMIN  =  194.016 eV                                                          
   ICORE  =        2    local potential                                                             
   LCOR   =        T    correct aug charges                                                         
   LPAW   =        T    paw PP                                                                      
   EAUG   =  335.092                                                                                
   DEXC   =    0.000                                                                                
   RMAX   =    1.942    core radius for proj-oper                                                   
   RAUG   =    1.300    factor for augmentation sphere                                              
   RDEP   =    1.954    radius for radial grids                                                     
   RDEPT  =    1.744    core radius for aug-charge                                                  
                                                                                                    
   Atomic configuration                                                                             
    6 entries                                                                                       
     n  l   j            E        occ.                                                              
     1  0  0.50     -2405.8406   2.0000                                                             
     2  0  0.50      -211.7007   2.0000                                                             
     2  1  1.50      -156.4958   6.0000                                                             
     3  0  0.50       -17.2562   2.0000                                                             
     3  1  0.50        -7.0085   4.0000                                                             
     3  2  1.50        -6.8029   0.0000                                                             
   Description                                                                                      
     l       E           TYP  RCUT    TYP  RCUT                                                     
     0    -17.2561641     23  1.900                                                                 
     0    -15.8743224     23  1.900                                                                 
     1     -7.0085400     23  1.900                                                                 
     1     -2.7779785     23  1.900                                                                 
     2     -6.8029130     23  1.900                                                                 
  local pseudopotential read in
  partial core-charges read in
  partial kinetic energy density read in
  atomic valenz-charges read in
  non local Contribution for L=            0  read in
    real space projection operators read in
  non local Contribution for L=            0  read in
    real space projection operators read in
  non local Contribution for L=            1  read in
    real space projection operators read in
  non local Contribution for L=            1  read in
    real space projection operators read in
    PAW grid and wavefunctions read in
 
   number of l-projection  operators is LMAX  =            4
   number of lm-projection operators is LMMAX =            8
 
 -----------------------------------------------------------------------------
|                                                                             |
|               ----> ADVICE to this user running VASP <----                  |
|                                                                             |
|     You enforced a specific xc type in the INCAR file but a different       |
|     type was found in the POTCAR file.                                      |
|     I HOPE YOU KNOW WHAT YOU ARE DOING!                                     |
|                                                                             |
 -----------------------------------------------------------------------------

  PAW_PBE Zn 06Sep2000                  :
 energy of atom  1       EATOM=-1748.8345
 kinetic energy error for atom=    0.0338 (will be added to EATOM!!)
  PAW_PBE S 06Sep2000                   :
 energy of atom  2       EATOM= -276.8230
 kinetic energy error for atom=    0.0137 (will be added to EATOM!!)
 
 
 POSCAR: Zn2 S2
  positions in direct lattice
  No initial velocities read in


 exchange-correlation table for PS
   RHO(1)=    0.500       N(1)  =     2000
   RHO(2)=  100.500       N(2)  =     4000
 


--------------------------------------------------------------------------------------------------------


 ion  position               nearest neighbor table
   1  0.667  0.333  0.500-   4 2.32   4 2.32   4 2.32   3 2.32
   2  0.333  0.667  0.000-   3 2.32   3 2.32   3 2.32   4 2.32
   3  0.667  0.333  0.875-   2 2.32   2 2.32   2 2.32   1 2.32
   4  0.333  0.667  0.375-   1 2.32   1 2.32   1 2.32   2 2.32
 
  LATTYP: Found a hexagonal cell.
 ALAT       =     3.7815838737
 C/A-ratio  =     1.6407850361
  
  Lattice vectors:
  
 A1 = (   3.7815838737,   0.0000000000,   0.0000000000)
 A2 = (  -1.8907919369,   3.2749477012,   0.0000000000)
 A3 = (   0.0000000000,   0.0000000000,   6.2047662326)


Analysis of symmetry for initial positions (statically):
=====================================================================
 Subroutine PRICEL returns:
 Original cell was already a primitive cell.
 

 Routine SETGRP: Setting up the symmetry group for a 
 hexagonal supercell.


 Subroutine GETGRP returns: Found 12 space group operations
 (whereof  6 operations were pure point group operations)
 out of a pool of 24 trial point group operations.


The static configuration has the point symmetry C_3v.
 The point group associated with its full space group is C_6v.


Analysis of symmetry for dynamics (positions and initial velocities):
=====================================================================
 Subroutine PRICEL returns:
 Original cell was already a primitive cell.
 

 Routine SETGRP: Setting up the symmetry group for a 
 hexagonal supercell.


 Subroutine GETGRP returns: Found 12 space group operations
 (whereof  6 operations were pure point group operations)
 out of a pool of 24 trial point group operations.


The dynamic configuration has the point symmetry C_3v.
 The point group associated with its full space group is C_6v.


 Subroutine INISYM returns: Found 12 space group operations
 (whereof  6 operations are pure point group operations),
 and found     1 'primitive' translations


----------------------------------------------------------------------------------------

                                     Primitive cell                                     

  volume of cell :      76.8429

  direct lattice vectors                    reciprocal lattice vectors
     3.781583874  0.000000000  0.000000000     0.264439461  0.152674194 -0.000000000
    -1.890791937  3.274947701  0.000000000     0.000000000  0.305348388  0.000000000
     0.000000000  0.000000000  6.204766233     0.000000000 -0.000000000  0.161166426

  length of vectors
     3.781583874  3.781583874  6.204766233     0.305348388  0.305348388  0.161166426

  position of ions in fractional coordinates (direct lattice)
     0.666666667  0.333333333  0.500400868
     0.333333333  0.666666667  0.000400868
     0.666666667  0.333333333  0.874599132
     0.333333333  0.666666667  0.374599132

  ion indices of the primitive-cell ions
   primitive index   ion index
                 1           1
                 2           2
                 3           3
                 4           4

----------------------------------------------------------------------------------------

 
 
 KPOINTS: k-path added by seekpath. Formula: ZnS S

Read explicit list of k-points.

 Found    276 k-points:

 Following reciprocal coordinates:
            Coordinates               Weight
  0.000000  0.000000  0.125000      0.013889
  0.166667  0.000000  0.125000      0.083333
  0.333333  0.000000  0.125000      0.083333
  0.500000  0.000000  0.125000      0.041667
  0.166667  0.166667  0.125000      0.083333
  0.333333  0.166667  0.125000      0.166667
  0.333333  0.333333  0.125000      0.027778
  0.000000  0.000000  0.375000      0.013889
  0.166667  0.000000  0.375000      0.083333
  0.333333  0.000000  0.375000      0.083333
  0.500000  0.000000  0.375000      0.041667
  0.166667  0.166667  0.375000      0.083333
  0.333333  0.166667  0.375000      0.166667
  0.333333  0.333333  0.375000      0.027778
  0.000000  0.000000  0.000000      0.000000
  0.013514  0.000000  0.000000      0.000000
  0.027027  0.000000  0.000000      0.000000
  0.040541  0.000000  0.000000      0.000000
  0.054054  0.000000  0.000000      0.000000
  0.067568  0.000000  0.000000      0.000000
  0.081081  0.000000  0.000000      0.000000
  0.094595  0.000000  0.000000      0.000000
  0.108108  0.000000  0.000000      0.000000
  0.121622  0.000000  0.000000      0.000000
  0.135135  0.000000  0.000000      0.000000
  0.148649  0.000000  0.000000      0.000000
  0.162162  0.000000  0.000000      0.000000
  0.175676  0.000000  0.000000      0.000000
  0.189189  0.000000  0.000000      0.000000
  0.202703  0.000000  0.000000      0.000000
  0.216216  0.000000  0.000000      0.000000
  0.229730  0.000000  0.000000      0.000000
  0.243243  0.000000  0.000000      0.000000
  0.256757  0.000000  0.000000      0.000000
  0.270270  0.000000  0.000000      0.000000
  0.283784  0.000000  0.000000      0.000000
  0.297297  0.000000  0.000000      0.000000
  0.310811  0.000000  0.000000      0.000000
  0.324324  0.000000  0.000000      0.000000
  0.337838  0.000000  0.000000      0.000000
  0.351351  0.000000  0.000000      0.000000
  0.364865  0.000000  0.000000      0.000000
  0.378378  0.000000  0.000000      0.000000
  0.391892  0.000000  0.000000      0.000000
  0.405405  0.000000  0.000000      0.000000
  0.418919  0.000000  0.000000      0.000000
  0.432432  0.000000  0.000000      0.000000
  0.445946  0.000000  0.000000      0.000000
  0.459459  0.000000  0.000000      0.000000
  0.472973  0.000000  0.000000      0.000000
  0.486486  0.000000  0.000000      0.000000
  0.500000  0.000000  0.000000      0.000000
  0.492063  0.015873  0.000000      0.000000
  0.484127  0.031746  0.000000      0.000000
  0.476190  0.047619  0.000000      0.000000
  0.468254  0.063492  0.000000      0.000000
  0.460317  0.079365  0.000000      0.000000
  0.452381  0.095238  0.000000      0.000000
  0.444444  0.111111  0.000000      0.000000
  0.436508  0.126984  0.000000      0.000000
  0.428571  0.142857  0.000000      0.000000
  0.420635  0.158730  0.000000      0.000000
  0.412698  0.174603  0.000000      0.000000
  0.404762  0.190476  0.000000      0.000000
  0.396825  0.206349  0.000000      0.000000
  0.388889  0.222222  0.000000      0.000000
  0.380952  0.238095  0.000000      0.000000
  0.373016  0.253968  0.000000      0.000000
  0.365079  0.269841  0.000000      0.000000
  0.357143  0.285714  0.000000      0.000000
  0.349206  0.301587  0.000000      0.000000
  0.341270  0.317460  0.000000      0.000000
  0.333333  0.333333  0.000000      0.000000
  0.325581  0.325581  0.000000      0.000000
  0.317829  0.317829  0.000000      0.000000
  0.310078  0.310078  0.000000      0.000000
  0.302326  0.302326  0.000000      0.000000
  0.294574  0.294574  0.000000      0.000000
  0.286822  0.286822  0.000000      0.000000
  0.279070  0.279070  0.000000      0.000000
  0.271318  0.271318  0.000000      0.000000
  0.263566  0.263566  0.000000      0.000000
  0.255814  0.255814  0.000000      0.000000
  0.248062  0.248062  0.000000      0.000000
  0.240310  0.240310  0.000000      0.000000
  0.232558  0.232558  0.000000      0.000000
  0.224806  0.224806  0.000000      0.000000
  0.217054  0.217054  0.000000      0.000000
  0.209302  0.209302  0.000000      0.000000
  0.201550  0.201550  0.000000      0.000000
  0.193798  0.193798  0.000000      0.000000
  0.186047  0.186047  0.000000      0.000000
  0.178295  0.178295  0.000000      0.000000
  0.170543  0.170543  0.000000      0.000000
  0.162791  0.162791  0.000000      0.000000
  0.155039  0.155039  0.000000      0.000000
  0.147287  0.147287  0.000000      0.000000
  0.139535  0.139535  0.000000      0.000000
  0.131783  0.131783  0.000000      0.000000
  0.124031  0.124031  0.000000      0.000000
  0.116279  0.116279  0.000000      0.000000
  0.108527  0.108527  0.000000      0.000000
  0.100775  0.100775  0.000000      0.000000
  0.093023  0.093023  0.000000      0.000000
  0.085271  0.085271  0.000000      0.000000
  0.077519  0.077519  0.000000      0.000000
  0.069767  0.069767  0.000000      0.000000
  0.062016  0.062016  0.000000      0.000000
  0.054264  0.054264  0.000000      0.000000
  0.046512  0.046512  0.000000      0.000000
  0.038760  0.038760  0.000000      0.000000
  0.031008  0.031008  0.000000      0.000000
  0.023256  0.023256  0.000000      0.000000
  0.015504  0.015504  0.000000      0.000000
  0.007752  0.007752  0.000000      0.000000
  0.000000  0.000000  0.000000      0.000000
  0.000000  0.000000  0.026316      0.000000
  0.000000  0.000000  0.052632      0.000000
  0.000000  0.000000  0.078947      0.000000
  0.000000  0.000000  0.105263      0.000000
  0.000000  0.000000  0.131579      0.000000
  0.000000  0.000000  0.157895      0.000000
  0.000000  0.000000  0.184211      0.000000
  0.000000  0.000000  0.210526      0.000000
  0.000000  0.000000  0.236842      0.000000
  0.000000  0.000000  0.263158      0.000000
  0.000000  0.000000  0.289474      0.000000
  0.000000  0.000000  0.315789      0.000000
  0.000000  0.000000  0.342105      0.000000
  0.000000  0.000000  0.368421      0.000000
  0.000000  0.000000  0.394737      0.000000
  0.000000  0.000000  0.421053      0.000000
  0.000000  0.000000  0.447368      0.000000
  0.000000  0.000000  0.473684      0.000000
  0.000000  0.000000  0.500000      0.000000
  0.013514  0.000000  0.500000      0.000000
  0.027027  0.000000  0.500000      0.000000
  0.040541  0.000000  0.500000      0.000000
  0.054054  0.000000  0.500000      0.000000
  0.067568  0.000000  0.500000      0.000000
  0.081081  0.000000  0.500000      0.000000
  0.094595  0.000000  0.500000      0.000000
  0.108108  0.000000  0.500000      0.000000
  0.121622  0.000000  0.500000      0.000000
  0.135135  0.000000  0.500000      0.000000
  0.148649  0.000000  0.500000      0.000000
  0.162162  0.000000  0.500000      0.000000
  0.175676  0.000000  0.500000      0.000000
  0.189189  0.000000  0.500000      0.000000
  0.202703  0.000000  0.500000      0.000000
  0.216216  0.000000  0.500000      0.000000
  0.229730  0.000000  0.500000      0.000000
  0.243243  0.000000  0.500000      0.000000
  0.256757  0.000000  0.500000      0.000000
  0.270270  0.000000  0.500000      0.000000
  0.283784  0.000000  0.500000      0.000000
  0.297297  0.000000  0.500000      0.000000
  0.310811  0.000000  0.500000      0.000000
  0.324324  0.000000  0.500000      0.000000
  0.337838  0.000000  0.500000      0.000000
  0.351351  0.000000  0.500000      0.000000
  0.364865  0.000000  0.500000      0.000000
  0.378378  0.000000  0.500000      0.000000
  0.391892  0.000000  0.500000      0.000000
  0.405405  0.000000  0.500000      0.000000
  0.418919  0.000000  0.500000      0.000000
  0.432432  0.000000  0.500000      0.000000
  0.445946  0.000000  0.500000      0.000000
  0.459459  0.000000  0.500000      0.000000
  0.472973  0.000000  0.500000      0.000000
  0.486486  0.000000  0.500000      0.000000
  0.500000  0.000000  0.500000      0.000000
  0.492063  0.015873  0.500000      0.000000
  0.484127  0.031746  0.500000      0.000000
  0.476190  0.047619  0.500000      0.000000
  0.468254  0.063492  0.500000      0.000000
  0.460317  0.079365  0.500000      0.000000
  0.452381  0.095238  0.500000      0.000000
  0.444444  0.111111  0.500000      0.000000
  0.436508  0.126984  0.500000      0.000000
  0.428571  0.142857  0.500000      0.000000
  0.420635  0.158730  0.500000      0.000000
  0.412698  0.174603  0.500000      0.000000
  0.404762  0.190476  0.500000      0.000000
  0.396825  0.206349  0.500000      0.000000
  0.388889  0.222222  0.500000      0.000000
  0.380952  0.238095  0.500000      0.000000
  0.373016  0.253968  0.500000      0.000000
  0.365079  0.269841  0.500000      0.000000
  0.357143  0.285714  0.500000      0.000000
  0.349206  0.301587  0.500000      0.000000
  0.341270  0.317460  0.500000      0.000000
  0.333333  0.333333  0.500000      0.000000
  0.325581  0.325581  0.500000      0.000000
  0.317829  0.317829  0.500000      0.000000
  0.310078  0.310078  0.500000      0.000000
  0.302326  0.302326  0.500000      0.000000
  0.294574  0.294574  0.500000      0.000000
  0.286822  0.286822  0.500000      0.000000
  0.279070  0.279070  0.500000      0.000000
  0.271318  0.271318  0.500000      0.000000
  0.263566  0.263566  0.500000      0.000000
  0.255814  0.255814  0.500000      0.000000
  0.248062  0.248062  0.500000      0.000000
  0.240310  0.240310  0.500000      0.000000
  0.232558  0.232558  0.500000      0.000000
  0.224806  0.224806  0.500000      0.000000
  0.217054  0.217054  0.500000      0.000000
  0.209302  0.209302  0.500000      0.000000
  0.201550  0.201550  0.500000      0.000000
  0.193798  0.193798  0.500000      0.000000
  0.186047  0.186047  0.500000      0.000000
  0.178295  0.178295  0.500000      0.000000
  0.170543  0.170543  0.500000      0.000000
  0.162791  0.162791  0.500000      0.000000
  0.155039  0.155039  0.500000      0.000000
  0.147287  0.147287  0.500000      0.000000
  0.139535  0.139535  0.500000      0.000000
  0.131783  0.131783  0.500000      0.000000
  0.124031  0.124031  0.500000      0.000000
  0.116279  0.116279  0.500000      0.000000
  0.108527  0.108527  0.500000      0.000000
  0.100775  0.100775  0.500000      0.000000
  0.093023  0.093023  0.500000      0.000000
  0.085271  0.085271  0.500000      0.000000
  0.077519  0.077519  0.500000      0.000000
  0.069767  0.069767  0.500000      0.000000
  0.062016  0.062016  0.500000      0.000000
  0.054264  0.054264  0.500000      0.000000
  0.046512  0.046512  0.500000      0.000000
  0.038760  0.038760  0.500000      0.000000
  0.031008  0.031008  0.500000      0.000000
  0.023256  0.023256  0.500000      0.000000
  0.015504  0.015504  0.500000      0.000000
  0.007752  0.007752  0.500000      0.000000
  0.000000  0.000000  0.500000      0.000000
  0.500000  0.000000  0.500000      0.000000
  0.500000  0.000000  0.473684      0.000000
  0.500000  0.000000  0.447368      0.000000
  0.500000  0.000000  0.421053      0.000000
  0.500000  0.000000  0.394737      0.000000
  0.500000  0.000000  0.368421      0.000000
  0.500000  0.000000  0.342105      0.000000
  0.500000  0.000000  0.315789      0.000000
  0.500000  0.000000  0.289474      0.000000
  0.500000  0.000000  0.263158      0.000000
  0.500000  0.000000  0.236842      0.000000
  0.500000  0.000000  0.210526      0.000000
  0.500000  0.000000  0.184211      0.000000
  0.500000  0.000000  0.157895      0.000000
  0.500000  0.000000  0.131579      0.000000
  0.500000  0.000000  0.105263      0.000000
  0.500000  0.000000  0.078947      0.000000
  0.500000  0.000000  0.052632      0.000000
  0.500000  0.000000  0.026316      0.000000
  0.500000  0.000000  0.000000      0.000000
  0.333333  0.333333  0.500000      0.000000
  0.333333  0.333333  0.473684      0.000000
  0.333333  0.333333  0.447368      0.000000
  0.333333  0.333333  0.421053      0.000000
  0.333333  0.333333  0.394737      0.000000
  0.333333  0.333333  0.368421      0.000000
  0.333333  0.333333  0.342105      0.000000
  0.333333  0.333333  0.315789      0.000000
  0.333333  0.333333  0.289474      0.000000
  0.333333  0.333333  0.263158      0.000000
  0.333333  0.333333  0.236842      0.000000
  0.333333  0.333333  0.210526      0.000000
  0.333333  0.333333  0.184211      0.000000
  0.333333  0.333333  0.157895      0.000000
  0.333333  0.333333  0.131579      0.000000
  0.333333  0.333333  0.105263      0.000000
  0.333333  0.333333  0.078947      0.000000
  0.333333  0.333333  0.052632      0.000000
  0.333333  0.333333  0.026316      0.000000
  0.333333  0.333333  0.000000      0.000000

 Following cartesian coordinates:
            Coordinates               Weight
  0.000000  0.000000  0.020146      0.013889
  0.044073  0.025446  0.020146      0.083333
  0.088146  0.050891  0.020146      0.083333
  0.132220  0.076337  0.020146      0.041667
  0.044073  0.076337  0.020146      0.083333
  0.088146  0.101783  0.020146      0.166667
  0.088146  0.152674  0.020146      0.027778
  0.000000  0.000000  0.060437      0.013889
  0.044073  0.025446  0.060437      0.083333
  0.088146  0.050891  0.060437      0.083333
  0.132220  0.076337  0.060437      0.041667
  0.044073  0.076337  0.060437      0.083333
  0.088146  0.101783  0.060437      0.166667
  0.088146  0.152674  0.060437      0.027778
  0.000000  0.000000  0.000000      0.000000
  0.003574  0.002063  0.000000      0.000000
  0.007147  0.004126  0.000000      0.000000
  0.010721  0.006189  0.000000      0.000000
  0.014294  0.008253  0.000000      0.000000
  0.017868  0.010316  0.000000      0.000000
  0.021441  0.012379  0.000000      0.000000
  0.025015  0.014442  0.000000      0.000000
  0.028588  0.016505  0.000000      0.000000
  0.032162  0.018568  0.000000      0.000000
  0.035735  0.020632  0.000000      0.000000
  0.039309  0.022695  0.000000      0.000000
  0.042882  0.024758  0.000000      0.000000
  0.046456  0.026821  0.000000      0.000000
  0.050029  0.028884  0.000000      0.000000
  0.053603  0.030947  0.000000      0.000000
  0.057176  0.033011  0.000000      0.000000
  0.060750  0.035074  0.000000      0.000000
  0.064323  0.037137  0.000000      0.000000
  0.067897  0.039200  0.000000      0.000000
  0.071470  0.041263  0.000000      0.000000
  0.075044  0.043326  0.000000      0.000000
  0.078617  0.045390  0.000000      0.000000
  0.082191  0.047453  0.000000      0.000000
  0.085764  0.049516  0.000000      0.000000
  0.089338  0.051579  0.000000      0.000000
  0.092911  0.053642  0.000000      0.000000
  0.096485  0.055705  0.000000      0.000000
  0.100058  0.057769  0.000000      0.000000
  0.103632  0.059832  0.000000      0.000000
  0.107205  0.061895  0.000000      0.000000
  0.110779  0.063958  0.000000      0.000000
  0.114352  0.066021  0.000000      0.000000
  0.117926  0.068084  0.000000      0.000000
  0.121499  0.070148  0.000000      0.000000
  0.125073  0.072211  0.000000      0.000000
  0.128646  0.074274  0.000000      0.000000
  0.132220  0.076337  0.000000      0.000000
  0.130121  0.079972  0.000000      0.000000
  0.128022  0.083607  0.000000      0.000000
  0.125924  0.087242  0.000000      0.000000
  0.123825  0.090877  0.000000      0.000000
  0.121726  0.094513  0.000000      0.000000
  0.119627  0.098148  0.000000      0.000000
  0.117529  0.101783  0.000000      0.000000
  0.115430  0.105418  0.000000      0.000000
  0.113331  0.109053  0.000000      0.000000
  0.111232  0.112688  0.000000      0.000000
  0.109134  0.116323  0.000000      0.000000
  0.107035  0.119958  0.000000      0.000000
  0.104936  0.123593  0.000000      0.000000
  0.102838  0.127228  0.000000      0.000000
  0.100739  0.130864  0.000000      0.000000
  0.098640  0.134499  0.000000      0.000000
  0.096541  0.138134  0.000000      0.000000
  0.094443  0.141769  0.000000      0.000000
  0.092344  0.145404  0.000000      0.000000
  0.090245  0.149039  0.000000      0.000000
  0.088146  0.152674  0.000000      0.000000
  0.086097  0.149124  0.000000      0.000000
  0.084047  0.145573  0.000000      0.000000
  0.081997  0.142023  0.000000      0.000000
  0.079947  0.138472  0.000000      0.000000
  0.077897  0.134921  0.000000      0.000000
  0.075847  0.131371  0.000000      0.000000
  0.073797  0.127820  0.000000      0.000000
  0.071747  0.124270  0.000000      0.000000
  0.069697  0.120719  0.000000      0.000000
  0.067647  0.117169  0.000000      0.000000
  0.065597  0.113618  0.000000      0.000000
  0.063547  0.110067  0.000000      0.000000
  0.061498  0.106517  0.000000      0.000000
  0.059448  0.102966  0.000000      0.000000
  0.057398  0.099416  0.000000      0.000000
  0.055348  0.095865  0.000000      0.000000
  0.053298  0.092315  0.000000      0.000000
  0.051248  0.088764  0.000000      0.000000
  0.049198  0.085214  0.000000      0.000000
  0.047148  0.081663  0.000000      0.000000
  0.045098  0.078112  0.000000      0.000000
  0.043048  0.074562  0.000000      0.000000
  0.040998  0.071011  0.000000      0.000000
  0.038948  0.067461  0.000000      0.000000
  0.036899  0.063910  0.000000      0.000000
  0.034849  0.060360  0.000000      0.000000
  0.032799  0.056809  0.000000      0.000000
  0.030749  0.053258  0.000000      0.000000
  0.028699  0.049708  0.000000      0.000000
  0.026649  0.046157  0.000000      0.000000
  0.024599  0.042607  0.000000      0.000000
  0.022549  0.039056  0.000000      0.000000
  0.020499  0.035506  0.000000      0.000000
  0.018449  0.031955  0.000000      0.000000
  0.016399  0.028405  0.000000      0.000000
  0.014349  0.024854  0.000000      0.000000
  0.012300  0.021303  0.000000      0.000000
  0.010250  0.017753  0.000000      0.000000
  0.008200  0.014202  0.000000      0.000000
  0.006150  0.010652  0.000000      0.000000
  0.004100  0.007101  0.000000      0.000000
  0.002050  0.003551  0.000000      0.000000
  0.000000  0.000000  0.000000      0.000000
  0.000000  0.000000  0.004241      0.000000
  0.000000  0.000000  0.008482      0.000000
  0.000000  0.000000  0.012724      0.000000
  0.000000  0.000000  0.016965      0.000000
  0.000000  0.000000  0.021206      0.000000
  0.000000  0.000000  0.025447      0.000000
  0.000000  0.000000  0.029689      0.000000
  0.000000  0.000000  0.033930      0.000000
  0.000000  0.000000  0.038171      0.000000
  0.000000  0.000000  0.042412      0.000000
  0.000000  0.000000  0.046653      0.000000
  0.000000  0.000000  0.050895      0.000000
  0.000000  0.000000  0.055136      0.000000
  0.000000  0.000000  0.059377      0.000000
  0.000000  0.000000  0.063618      0.000000
  0.000000  0.000000  0.067860      0.000000
  0.000000  0.000000  0.072101      0.000000
  0.000000  0.000000  0.076342      0.000000
  0.000000  0.000000  0.080583      0.000000
  0.003574  0.002063  0.080583      0.000000
  0.007147  0.004126  0.080583      0.000000
  0.010721  0.006189  0.080583      0.000000
  0.014294  0.008253  0.080583      0.000000
  0.017868  0.010316  0.080583      0.000000
  0.021441  0.012379  0.080583      0.000000
  0.025015  0.014442  0.080583      0.000000
  0.028588  0.016505  0.080583      0.000000
  0.032162  0.018568  0.080583      0.000000
  0.035735  0.020632  0.080583      0.000000
  0.039309  0.022695  0.080583      0.000000
  0.042882  0.024758  0.080583      0.000000
  0.046456  0.026821  0.080583      0.000000
  0.050029  0.028884  0.080583      0.000000
  0.053603  0.030947  0.080583      0.000000
  0.057176  0.033011  0.080583      0.000000
  0.060750  0.035074  0.080583      0.000000
  0.064323  0.037137  0.080583      0.000000
  0.067897  0.039200  0.080583      0.000000
  0.071470  0.041263  0.080583      0.000000
  0.075044  0.043326  0.080583      0.000000
  0.078617  0.045390  0.080583      0.000000
  0.082191  0.047453  0.080583      0.000000
  0.085764  0.049516  0.080583      0.000000
  0.089338  0.051579  0.080583      0.000000
  0.092911  0.053642  0.080583      0.000000
  0.096485  0.055705  0.080583      0.000000
  0.100058  0.057769  0.080583      0.000000
  0.103632  0.059832  0.080583      0.000000
  0.107205  0.061895  0.080583      0.000000
  0.110779  0.063958  0.080583      0.000000
  0.114352  0.066021  0.080583      0.000000
  0.117926  0.068084  0.080583      0.000000
  0.121499  0.070148  0.080583      0.000000
  0.125073  0.072211  0.080583      0.000000
  0.128646  0.074274  0.080583      0.000000
  0.132220  0.076337  0.080583      0.000000
  0.130121  0.079972  0.080583      0.000000
  0.128022  0.083607  0.080583      0.000000
  0.125924  0.087242  0.080583      0.000000
  0.123825  0.090877  0.080583      0.000000
  0.121726  0.094513  0.080583      0.000000
  0.119627  0.098148  0.080583      0.000000
  0.117529  0.101783  0.080583      0.000000
  0.115430  0.105418  0.080583      0.000000
  0.113331  0.109053  0.080583      0.000000
  0.111232  0.112688  0.080583      0.000000
  0.109134  0.116323  0.080583      0.000000
  0.107035  0.119958  0.080583      0.000000
  0.104936  0.123593  0.080583      0.000000
  0.102838  0.127228  0.080583      0.000000
  0.100739  0.130864  0.080583      0.000000
  0.098640  0.134499  0.080583      0.000000
  0.096541  0.138134  0.080583      0.000000
  0.094443  0.141769  0.080583      0.000000
  0.092344  0.145404  0.080583      0.000000
  0.090245  0.149039  0.080583      0.000000
  0.088146  0.152674  0.080583      0.000000
  0.086097  0.149124  0.080583      0.000000
  0.084047  0.145573  0.080583      0.000000
  0.081997  0.142023  0.080583      0.000000
  0.079947  0.138472  0.080583      0.000000
  0.077897  0.134921  0.080583      0.000000
  0.075847  0.131371  0.080583      0.000000
  0.073797  0.127820  0.080583      0.000000
  0.071747  0.124270  0.080583      0.000000
  0.069697  0.120719  0.080583      0.000000
  0.067647  0.117169  0.080583      0.000000
  0.065597  0.113618  0.080583      0.000000
  0.063547  0.110067  0.080583      0.000000
  0.061498  0.106517  0.080583      0.000000
  0.059448  0.102966  0.080583      0.000000
  0.057398  0.099416  0.080583      0.000000
  0.055348  0.095865  0.080583      0.000000
  0.053298  0.092315  0.080583      0.000000
  0.051248  0.088764  0.080583      0.000000
  0.049198  0.085214  0.080583      0.000000
  0.047148  0.081663  0.080583      0.000000
  0.045098  0.078112  0.080583      0.000000
  0.043048  0.074562  0.080583      0.000000
  0.040998  0.071011  0.080583      0.000000
  0.038948  0.067461  0.080583      0.000000
  0.036899  0.063910  0.080583      0.000000
  0.034849  0.060360  0.080583      0.000000
  0.032799  0.056809  0.080583      0.000000
  0.030749  0.053258  0.080583      0.000000
  0.028699  0.049708  0.080583      0.000000
  0.026649  0.046157  0.080583      0.000000
  0.024599  0.042607  0.080583      0.000000
  0.022549  0.039056  0.080583      0.000000
  0.020499  0.035506  0.080583      0.000000
  0.018449  0.031955  0.080583      0.000000
  0.016399  0.028405  0.080583      0.000000
  0.014349  0.024854  0.080583      0.000000
  0.012300  0.021303  0.080583      0.000000
  0.010250  0.017753  0.080583      0.000000
  0.008200  0.014202  0.080583      0.000000
  0.006150  0.010652  0.080583      0.000000
  0.004100  0.007101  0.080583      0.000000
  0.002050  0.003551  0.080583      0.000000
  0.000000  0.000000  0.080583      0.000000
  0.132220  0.076337  0.080583      0.000000
  0.132220  0.076337  0.076342      0.000000
  0.132220  0.076337  0.072101      0.000000
  0.132220  0.076337  0.067860      0.000000
  0.132220  0.076337  0.063618      0.000000
  0.132220  0.076337  0.059377      0.000000
  0.132220  0.076337  0.055136      0.000000
  0.132220  0.076337  0.050895      0.000000
  0.132220  0.076337  0.046653      0.000000
  0.132220  0.076337  0.042412      0.000000
  0.132220  0.076337  0.038171      0.000000
  0.132220  0.076337  0.033930      0.000000
  0.132220  0.076337  0.029689      0.000000
  0.132220  0.076337  0.025447      0.000000
  0.132220  0.076337  0.021206      0.000000
  0.132220  0.076337  0.016965      0.000000
  0.132220  0.076337  0.012724      0.000000
  0.132220  0.076337  0.008482      0.000000
  0.132220  0.076337  0.004241      0.000000
  0.132220  0.076337  0.000000      0.000000
  0.088146  0.152674  0.080583      0.000000
  0.088146  0.152674  0.076342      0.000000
  0.088146  0.152674  0.072101      0.000000
  0.088146  0.152674  0.067860      0.000000
  0.088146  0.152674  0.063618      0.000000
  0.088146  0.152674  0.059377      0.000000
  0.088146  0.152674  0.055136      0.000000
  0.088146  0.152674  0.050895      0.000000
  0.088146  0.152674  0.046653      0.000000
  0.088146  0.152674  0.042412      0.000000
  0.088146  0.152674  0.038171      0.000000
  0.088146  0.152674  0.033930      0.000000
  0.088146  0.152674  0.029689      0.000000
  0.088146  0.152674  0.025447      0.000000
  0.088146  0.152674  0.021206      0.000000
  0.088146  0.152674  0.016965      0.000000
  0.088146  0.152674  0.012724      0.000000
  0.088146  0.152674  0.008482      0.000000
  0.088146  0.152674  0.004241      0.000000
  0.088146  0.152674  0.000000      0.000000
 


--------------------------------------------------------------------------------------------------------




 Dimension of arrays:
   k-points           NKPTS =    276   k-points in BZ     NKDIM =    276   number of bands    NBANDS=     34
   number of dos      NEDOS =    301   number of ions     NIONS =      4
   non local maximal  LDIM  =      6   non local SUM 2l+1 LMDIM =     18
   total plane-waves  NPLWV =   7168
   max r-space proj   IRMAX =      1   max aug-charges    IRDMAX=   3138
   dimension x,y,z NGX =    16 NGY =   16 NGZ =   28
   dimension x,y,z NGXF=    32 NGYF=   32 NGZF=   56
   support grid    NGXF=    32 NGYF=   32 NGZF=   56
   ions per type =               2   2
   NGX,Y,Z   is equivalent  to a cutoff of   7.03,  7.03,  7.50 a.u.
   NGXF,Y,Z  is equivalent  to a cutoff of  14.07, 14.07, 15.00 a.u.

 SYSTEM =  unknown system                          
 POSCAR =  Zn2 S2                                  

 Startparameter for this run:
   NWRITE =      2    write-flag & timer
   PREC   = normal    normal or accurate (medium, high low for compatibility)
   ISTART =      0    job   : 0-new  1-cont  2-samecut
   ICHARG =      2    charge: 1-file 2-atom 10-const
   ISPIN  =      1    spin polarized calculation?
   LNONCOLLINEAR =      F non collinear calculations
   LSORBIT =      F    spin-orbit coupling
   INIWAV =      1    electr: 0-lowe 1-rand  2-diag
   LASPH  =      T    aspherical Exc in radial PAW
 Electronic Relaxation 1
   ENCUT  =  276.7 eV  20.34 Ry    4.51 a.u.   5.13  5.13  8.42*2*pi/ulx,y,z
   ENINI  =  276.7     initial cutoff
   ENAUG  =  575.9 eV  augmentation charge cutoff
   NELM   =    100;   NELMIN=  2; NELMDL= -5     # of ELM steps 
   EDIFF  = 0.1E-04   stopping-criterion for ELM
   LREAL  =      F    real-space projection
   NLSPLINE    = F    spline interpolate recip. space projectors
   LCOMPAT=      F    compatible to vasp.4.4
   GGA_COMPAT  = T    GGA compatible to vasp.4.4-vasp.4.6
   LMAXPAW     = -100 max onsite density
   LMAXMIX     =    2 max onsite mixed and CHGCAR
   VOSKOWN=      0    Vosko Wilk Nusair interpolation
   ROPT   =    0.00000   0.00000
 Ionic relaxation
   EDIFFG = 0.1E-03   stopping-criterion for IOM
   NSW    =      1    number of steps for IOM
   NBLOCK =      1;   KBLOCK =      1    inner block; outer block 
   IBRION =      2    ionic relax: 0-MD 1-quasi-New 2-CG
   NFREE  =      1    steps in history (QN), initial steepest desc. (CG)
   ISIF   =      0    stress and relaxation
   IWAVPR =     11    prediction:  0-non 1-charg 2-wave 3-comb
   ISYM   =      2    0-nonsym 1-usesym 2-fastsym
   LCORR  =      T    Harris-Foulkes like correction to forces

   POTIM  = 0.5000    time-step for ionic-motion
   TEIN   =    0.0    initial temperature
   TEBEG  =    0.0;   TEEND  =   0.0 temperature during run
   SMASS  =  -3.00    Nose mass-parameter (am)
   estimated Nose-frequenzy (Omega)   =  0.10E-29 period in steps = 0.13E+47 mass=  -0.327E-27a.u.
   SCALEE = 1.0000    scale energy and forces
   NPACO  =    256;   APACO  = 10.0  distance and # of slots for P.C.
   PSTRESS=    0.0 pullay stress

  Mass of Ions in am
   POMASS =  65.39 32.07
  Ionic Valenz
   ZVAL   =  12.00  6.00
  Atomic Wigner-Seitz radii
   RWIGS  =  -1.00 -1.00
  virtual crystal weights 
   VCA    =   1.00  1.00
   NELECT =      36.0000    total number of electrons
   NUPDOWN=      -1.0000    fix difference up-down

 DOS related values:
   EMIN   =  10.00;   EMAX   =-10.00  energy-range for DOS
   EFERMI =   0.00;   METHOD = LEGACY      
   ISMEAR =     0;   SIGMA  =   0.10  broadening in eV -4-tet -1-fermi 0-gaus
   EFERMI_NEDOS =   21; number of points for ismear=-14 and -15

 Electronic relaxation 2 (details)
   IALGO  =     38    algorithm
   LDIAG  =      T    sub-space diagonalisation (order eigenvalues)
   LSUBROT=      F    optimize rotation matrix (better conditioning)
   LROBUST=      F    robust break criterion during scf (extrapolated energy error)
   ISEARCH=      0    line search for conjugate gradient (0, 1=use gradient)
   TURBO    =      0    0=normal 1=particle mesh
   IRESTART =      0    0=no restart 2=restart with 2 vectors
   NREBOOT  =      0    no. of reboots
   NMIN     =      0    reboot dimension
   EREF     =   0.00    reference energy to select bands
   IMIX   =      4    mixing-type and parameters
     AMIX     =   0.40;   BMIX     =  1.00
     AMIX_MAG =   1.60;   BMIX_MAG =  1.00
     AMIN     =   0.10
     WC   =   100.;   INIMIX=   1;  MIXPRE=   1;  MAXMIX= -45

 Intra band minimization:
   WEIMIN = 0.0010     energy-eigenvalue tresh-hold
   EBREAK =  0.74E-07  absolut break condition
   DEPER  =   0.30     relativ break condition  

   TIME   =   0.40     timestep for ELM

  volume/ion in A,a.u.               =      19.21       129.64
  Fermi-wavevector in a.u.,A,eV,Ry     =   1.271475  2.402739 21.995840  1.616649
  Thomas-Fermi vector in A             =   2.404406
 
 Write flags
   LWAVE        =      F    write WAVECAR
   LDOWNSAMPLE  =      F    k-point downsampling of WAVECAR
   LCHARG       =      F    write CHGCAR
   LVTOT        =      F    write LOCPOT, total local potential
   LVHAR        =      F    write LOCPOT, Hartree potential only
   WRT_POTENTIAL= false  ! write potential to hdf5 file
   LELF         =      F    write electronic localiz. function (ELF)
   LORBIT       =     10    0 simple, 1 ext, 2 COOP (PROOUT), +10 PAW based schemes


 Python interface
   PLUGINS active      =      F    recompile with -DPLUGINS to activate
 
 Dipole corrections
   LMONO      =      F    monopole corrections only (constant potential shift)
   LDIPOL     =      F    correct potential (dipole corrections)
   IDIPOL     =      0    1-x, 2-y, 3-z, 4-all directions 
   EPSILON    =  1.0000000 bulk dielectric constant
   LVACPOTAV  =      F  vacuum potentials using an averaging scheme for the charge density
   VACPOTFLAT =  0.1000000 required flatness to determine vacuum potential
 
Coulomb truncation method
  LTRUNCATE          =      F  Coulomb kernel truncation to be used

 
 Exchange correlation treatment:
   GGA     = PS    functional components
   XC_C    = 1    coefficients multiplying the functional components
   LIBXC   =     F    Libxc                    
   VOSKOWN =     0    Vosko Wilk Nusair interpolation
   LHFCALC =     F    Hartree Fock is set to
   LHFONE  =     F    Hartree Fock one center treatment
   AEXX    =    0.0000 exact exchange contribution

 Parameters of functionals:
   PS:
     No parameter
 
 Van der Waals corrections
   IVDW    =     0    specifies the selected vdW correction

 Linear response parameters
   LEPSILON=     F    determine dielectric tensor
   LRPA    =     F    only Hartree local field effects (RPA)
   LNABLA  =     F    use nabla operator in PAW spheres
   LVEL    =     F    velocity operator in full k-point grid
   CSHIFT  =0.1000    complex shift for real part using Kramers Kronig
   OMEGAMAX=  -1.0    maximum frequency
   DEG_THRESHOLD= 0.2000000E-02 threshold for treating states as degnerate
   RTIME   =   -0.100 relaxation time in fs
  (WPLASMAI=    0.000 imaginary part of plasma frequency in eV, 0.658/RTIME)
   DFIELD  = 0.0000000 0.0000000 0.0000000 field for delta impulse in time
 
  Optional k-point grid parameters
   LKPOINTS_OPT  =     F    use optional k-point grid
   KPOINTS_OPT_MODE=     1    mode for optional k-point grid
 
 Orbital magnetization related:
   ORBITALMAG=     F  switch on orbital magnetization
   LCHIMAG   =     F  perturbation theory with respect to B field
   DQ        =  0.001000  dq finite difference perturbation B field
   LLRAUG    =     F  two centre corrections for induced B field
   LBONE     =     F  B-component reconstruction in AE one-centre
   LVGVCALC  =     T  calculate vGv susceptibility
   LVGVAPPL  =     F  apply vGv susceptibility instead of pGv for G=0

 Random number generation:
   RANDOM_GENERATOR = DEFAULT
   PCG_SEED         = not used


--------------------------------------------------------------------------------------------------------


 conjugate gradient relaxation of ions
 charge density and potential will be updated during run
 non-spin polarized calculation
 Variant of blocked Davidson
 Davidson routine will perform the subspace rotation
 perform sub-space diagonalisation
    after iterative eigenvector-optimisation
 modified Broyden-mixing scheme, WC =      100.0
 initial mixing is a Kerker type mixing with AMIX =  0.4000 and BMIX =      1.0000
 Hartree-type preconditioning will be used
 using additional bands            16
 reciprocal scheme for non local part
 use partial core corrections
 calculate Harris-corrections to forces 
   (improved forces if not selfconsistent)
 use gradient corrections 
 use of overlap-Matrix (Vanderbilt PP)
 Gauss-broadening in eV      SIGMA  =   0.10


--------------------------------------------------------------------------------------------------------


  energy-cutoff  :      276.72
  volume of cell :       76.84
      direct lattice vectors                 reciprocal lattice vectors
     3.781583874  0.000000000  0.000000000     0.264439461  0.152674194 -0.000000000
    -1.890791937  3.274947701  0.000000000     0.000000000  0.305348388  0.000000000
     0.000000000  0.000000000  6.204766233     0.000000000 -0.000000000  0.161166426

  length of vectors
     3.781583874  3.781583874  6.204766233     0.305348388  0.305348388  0.161166426


 
 k-points in units of 2pi/SCALE and weight: k-path added by seekpath. Formula: ZnS S
   0.00000000  0.00000000  0.02014580       0.014
   0.04407324  0.02544570  0.02014580       0.083
   0.08814649  0.05089140  0.02014580       0.083
   0.13221973  0.07633710  0.02014580       0.042
   0.04407324  0.07633710  0.02014580       0.083
   0.08814649  0.10178280  0.02014580       0.167
   0.08814649  0.15267419  0.02014580       0.028
   0.00000000  0.00000000  0.06043741       0.014
   0.04407324  0.02544570  0.06043741       0.083
   0.08814649  0.05089140  0.06043741       0.083
   0.13221973  0.07633710  0.06043741       0.042
   0.04407324  0.07633710  0.06043741       0.083
   0.08814649  0.10178280  0.06043741       0.167
   0.08814649  0.15267419  0.06043741       0.028
   0.00000000  0.00000000  0.00000000       0.000
   0.00357351  0.00206316  0.00000000       0.000
   0.00714701  0.00412633  0.00000000       0.000
   0.01072052  0.00618949  0.00000000       0.000
   0.01429402  0.00825266  0.00000000       0.000
   0.01786753  0.01031582  0.00000000       0.000
   0.02144104  0.01237899  0.00000000       0.000
   0.02501454  0.01444215  0.00000000       0.000
   0.02858805  0.01650532  0.00000000       0.000
   0.03216156  0.01856848  0.00000000       0.000
   0.03573506  0.02063165  0.00000000       0.000
   0.03930857  0.02269481  0.00000000       0.000
   0.04288207  0.02475798  0.00000000       0.000
   0.04645558  0.02682114  0.00000000       0.000
   0.05002909  0.02888431  0.00000000       0.000
   0.05360259  0.03094747  0.00000000       0.000
   0.05717610  0.03301064  0.00000000       0.000
   0.06074961  0.03507380  0.00000000       0.000
   0.06432311  0.03713697  0.00000000       0.000
   0.06789662  0.03920013  0.00000000       0.000
   0.07147012  0.04126330  0.00000000       0.000
   0.07504363  0.04332646  0.00000000       0.000
   0.07861714  0.04538963  0.00000000       0.000
   0.08219064  0.04745279  0.00000000       0.000
   0.08576415  0.04951595  0.00000000       0.000
   0.08933766  0.05157912  0.00000000       0.000
   0.09291116  0.05364228  0.00000000       0.000
   0.09648467  0.05570545  0.00000000       0.000
   0.10005817  0.05776861  0.00000000       0.000
   0.10363168  0.05983178  0.00000000       0.000
   0.10720519  0.06189494  0.00000000       0.000
   0.11077869  0.06395811  0.00000000       0.000
   0.11435220  0.06602127  0.00000000       0.000
   0.11792571  0.06808444  0.00000000       0.000
   0.12149921  0.07014760  0.00000000       0.000
   0.12507272  0.07221077  0.00000000       0.000
   0.12864622  0.07427393  0.00000000       0.000
   0.13221973  0.07633710  0.00000000       0.000
   0.13012100  0.07997220  0.00000000       0.000
   0.12802228  0.08360730  0.00000000       0.000
   0.12592355  0.08724240  0.00000000       0.000
   0.12382483  0.09087750  0.00000000       0.000
   0.12172610  0.09451260  0.00000000       0.000
   0.11962738  0.09814770  0.00000000       0.000
   0.11752865  0.10178280  0.00000000       0.000
   0.11542992  0.10541790  0.00000000       0.000
   0.11333120  0.10905300  0.00000000       0.000
   0.11123247  0.11268810  0.00000000       0.000
   0.10913375  0.11632320  0.00000000       0.000
   0.10703502  0.11995830  0.00000000       0.000
   0.10493629  0.12359339  0.00000000       0.000
   0.10283757  0.12722849  0.00000000       0.000
   0.10073884  0.13086359  0.00000000       0.000
   0.09864012  0.13449869  0.00000000       0.000
   0.09654139  0.13813379  0.00000000       0.000
   0.09444266  0.14176889  0.00000000       0.000
   0.09234394  0.14540399  0.00000000       0.000
   0.09024521  0.14903909  0.00000000       0.000
   0.08814649  0.15267419  0.00000000       0.000
   0.08609657  0.14912363  0.00000000       0.000
   0.08404665  0.14557307  0.00000000       0.000
   0.08199673  0.14202251  0.00000000       0.000
   0.07994681  0.13847194  0.00000000       0.000
   0.07789690  0.13492138  0.00000000       0.000
   0.07584698  0.13137082  0.00000000       0.000
   0.07379706  0.12782026  0.00000000       0.000
   0.07174714  0.12426969  0.00000000       0.000
   0.06969722  0.12071913  0.00000000       0.000
   0.06764730  0.11716857  0.00000000       0.000
   0.06559739  0.11361800  0.00000000       0.000
   0.06354747  0.11006744  0.00000000       0.000
   0.06149755  0.10651688  0.00000000       0.000
   0.05944763  0.10296632  0.00000000       0.000
   0.05739771  0.09941575  0.00000000       0.000
   0.05534779  0.09586519  0.00000000       0.000
   0.05329788  0.09231463  0.00000000       0.000
   0.05124796  0.08876407  0.00000000       0.000
   0.04919804  0.08521350  0.00000000       0.000
   0.04714812  0.08166294  0.00000000       0.000
   0.04509820  0.07811238  0.00000000       0.000
   0.04304828  0.07456182  0.00000000       0.000
   0.04099837  0.07101125  0.00000000       0.000
   0.03894845  0.06746069  0.00000000       0.000
   0.03689853  0.06391013  0.00000000       0.000
   0.03484861  0.06035956  0.00000000       0.000
   0.03279869  0.05680900  0.00000000       0.000
   0.03074877  0.05325844  0.00000000       0.000
   0.02869886  0.04970788  0.00000000       0.000
   0.02664894  0.04615731  0.00000000       0.000
   0.02459902  0.04260675  0.00000000       0.000
   0.02254910  0.03905619  0.00000000       0.000
   0.02049918  0.03550563  0.00000000       0.000
   0.01844926  0.03195506  0.00000000       0.000
   0.01639935  0.02840450  0.00000000       0.000
   0.01434943  0.02485394  0.00000000       0.000
   0.01229951  0.02130338  0.00000000       0.000
   0.01024959  0.01775281  0.00000000       0.000
   0.00819967  0.01420225  0.00000000       0.000
   0.00614975  0.01065169  0.00000000       0.000
   0.00409984  0.00710113  0.00000000       0.000
   0.00204992  0.00355056  0.00000000       0.000
   0.00000000  0.00000000  0.00000000       0.000
   0.00000000  0.00000000  0.00424122       0.000
   0.00000000  0.00000000  0.00848244       0.000
   0.00000000  0.00000000  0.01272367       0.000
   0.00000000  0.00000000  0.01696489       0.000
   0.00000000  0.00000000  0.02120611       0.000
   0.00000000  0.00000000  0.02544733       0.000
   0.00000000  0.00000000  0.02968855       0.000
   0.00000000  0.00000000  0.03392977       0.000
   0.00000000  0.00000000  0.03817100       0.000
   0.00000000  0.00000000  0.04241222       0.000
   0.00000000  0.00000000  0.04665344       0.000
   0.00000000  0.00000000  0.05089466       0.000
   0.00000000  0.00000000  0.05513588       0.000
   0.00000000  0.00000000  0.05937710       0.000
   0.00000000  0.00000000  0.06361833       0.000
   0.00000000  0.00000000  0.06785955       0.000
   0.00000000  0.00000000  0.07210077       0.000
   0.00000000  0.00000000  0.07634199       0.000
   0.00000000  0.00000000  0.08058321       0.000
   0.00357351  0.00206316  0.08058321       0.000
   0.00714701  0.00412633  0.08058321       0.000
   0.01072052  0.00618949  0.08058321       0.000
   0.01429402  0.00825266  0.08058321       0.000
   0.01786753  0.01031582  0.08058321       0.000
   0.02144104  0.01237899  0.08058321       0.000
   0.02501454  0.01444215  0.08058321       0.000
   0.02858805  0.01650532  0.08058321       0.000
   0.03216156  0.01856848  0.08058321       0.000
   0.03573506  0.02063165  0.08058321       0.000
   0.03930857  0.02269481  0.08058321       0.000
   0.04288207  0.02475798  0.08058321       0.000
   0.04645558  0.02682114  0.08058321       0.000
   0.05002909  0.02888431  0.08058321       0.000
   0.05360259  0.03094747  0.08058321       0.000
   0.05717610  0.03301064  0.08058321       0.000
   0.06074961  0.03507380  0.08058321       0.000
   0.06432311  0.03713697  0.08058321       0.000
   0.06789662  0.03920013  0.08058321       0.000
   0.07147012  0.04126330  0.08058321       0.000
   0.07504363  0.04332646  0.08058321       0.000
   0.07861714  0.04538963  0.08058321       0.000
   0.08219064  0.04745279  0.08058321       0.000
   0.08576415  0.04951595  0.08058321       0.000
   0.08933766  0.05157912  0.08058321       0.000
   0.09291116  0.05364228  0.08058321       0.000
   0.09648467  0.05570545  0.08058321       0.000
   0.10005817  0.05776861  0.08058321       0.000
   0.10363168  0.05983178  0.08058321       0.000
   0.10720519  0.06189494  0.08058321       0.000
   0.11077869  0.06395811  0.08058321       0.000
   0.11435220  0.06602127  0.08058321       0.000
   0.11792571  0.06808444  0.08058321       0.000
   0.12149921  0.07014760  0.08058321       0.000
   0.12507272  0.07221077  0.08058321       0.000
   0.12864622  0.07427393  0.08058321       0.000
   0.13221973  0.07633710  0.08058321       0.000
   0.13012100  0.07997220  0.08058321       0.000
   0.12802228  0.08360730  0.08058321       0.000
   0.12592355  0.08724240  0.08058321       0.000
   0.12382483  0.09087750  0.08058321       0.000
   0.12172610  0.09451260  0.08058321       0.000
   0.11962738  0.09814770  0.08058321       0.000
   0.11752865  0.10178280  0.08058321       0.000
   0.11542992  0.10541790  0.08058321       0.000
   0.11333120  0.10905300  0.08058321       0.000
   0.11123247  0.11268810  0.08058321       0.000
   0.10913375  0.11632320  0.08058321       0.000
   0.10703502  0.11995830  0.08058321       0.000
   0.10493629  0.12359339  0.08058321       0.000
   0.10283757  0.12722849  0.08058321       0.000
   0.10073884  0.13086359  0.08058321       0.000
   0.09864012  0.13449869  0.08058321       0.000
   0.09654139  0.13813379  0.08058321       0.000
   0.09444266  0.14176889  0.08058321       0.000
   0.09234394  0.14540399  0.08058321       0.000
   0.09024521  0.14903909  0.08058321       0.000
   0.08814649  0.15267419  0.08058321       0.000
   0.08609657  0.14912363  0.08058321       0.000
   0.08404665  0.14557307  0.08058321       0.000
   0.08199673  0.14202251  0.08058321       0.000
   0.07994681  0.13847194  0.08058321       0.000
   0.07789690  0.13492138  0.08058321       0.000
   0.07584698  0.13137082  0.08058321       0.000
   0.07379706  0.12782026  0.08058321       0.000
   0.07174714  0.12426969  0.08058321       0.000
   0.06969722  0.12071913  0.08058321       0.000
   0.06764730  0.11716857  0.08058321       0.000
   0.06559739  0.11361800  0.08058321       0.000
   0.06354747  0.11006744  0.08058321       0.000
   0.06149755  0.10651688  0.08058321       0.000
   0.05944763  0.10296632  0.08058321       0.000
   0.05739771  0.09941575  0.08058321       0.000
   0.05534779  0.09586519  0.08058321       0.000
   0.05329788  0.09231463  0.08058321       0.000
   0.05124796  0.08876407  0.08058321       0.000
   0.04919804  0.08521350  0.08058321       0.000
   0.04714812  0.08166294  0.08058321       0.000
   0.04509820  0.07811238  0.08058321       0.000
   0.04304828  0.07456182  0.08058321       0.000
   0.04099837  0.07101125  0.08058321       0.000
   0.03894845  0.06746069  0.08058321       0.000
   0.03689853  0.06391013  0.08058321       0.000
   0.03484861  0.06035956  0.08058321       0.000
   0.03279869  0.05680900  0.08058321       0.000
   0.03074877  0.05325844  0.08058321       0.000
   0.02869886  0.04970788  0.08058321       0.000
   0.02664894  0.04615731  0.08058321       0.000
   0.02459902  0.04260675  0.08058321       0.000
   0.02254910  0.03905619  0.08058321       0.000
   0.02049918  0.03550563  0.08058321       0.000
   0.01844926  0.03195506  0.08058321       0.000
   0.01639935  0.02840450  0.08058321       0.000
   0.01434943  0.02485394  0.08058321       0.000
   0.01229951  0.02130338  0.08058321       0.000
   0.01024959  0.01775281  0.08058321       0.000
   0.00819967  0.01420225  0.08058321       0.000
   0.00614975  0.01065169  0.08058321       0.000
   0.00409984  0.00710113  0.08058321       0.000
   0.00204992  0.00355056  0.08058321       0.000
   0.00000000  0.00000000  0.08058321       0.000
   0.13221973  0.07633710  0.08058321       0.000
   0.13221973  0.07633710  0.07634199       0.000
   0.13221973  0.07633710  0.07210077       0.000
   0.13221973  0.07633710  0.06785955       0.000
   0.13221973  0.07633710  0.06361833       0.000
   0.13221973  0.07633710  0.05937710       0.000
   0.13221973  0.07633710  0.05513588       0.000
   0.13221973  0.07633710  0.05089466       0.000
   0.13221973  0.07633710  0.04665344       0.000
   0.13221973  0.07633710  0.04241222       0.000
   0.13221973  0.07633710  0.03817100       0.000
   0.13221973  0.07633710  0.03392977       0.000
   0.13221973  0.07633710  0.02968855       0.000
   0.13221973  0.07633710  0.02544733       0.000
   0.13221973  0.07633710  0.02120611       0.000
   0.13221973  0.07633710  0.01696489       0.000
   0.13221973  0.07633710  0.01272367       0.000
   0.13221973  0.07633710  0.00848244       0.000
   0.13221973  0.07633710  0.00424122       0.000
   0.13221973  0.07633710  0.00000000       0.000
   0.08814649  0.15267419  0.08058321       0.000
   0.08814649  0.15267419  0.07634199       0.000
   0.08814649  0.15267419  0.07210077       0.000
   0.08814649  0.15267419  0.06785955       0.000
   0.08814649  0.15267419  0.06361833       0.000
   0.08814649  0.15267419  0.05937710       0.000
   0.08814649  0.15267419  0.05513588       0.000
   0.08814649  0.15267419  0.05089466       0.000
   0.08814649  0.15267419  0.04665344       0.000
   0.08814649  0.15267419  0.04241222       0.000
   0.08814649  0.15267419  0.03817100       0.000
   0.08814649  0.15267419  0.03392977       0.000
   0.08814649  0.15267419  0.02968855       0.000
   0.08814649  0.15267419  0.02544733       0.000
   0.08814649  0.15267419  0.02120611       0.000
   0.08814649  0.15267419  0.01696489       0.000
   0.08814649  0.15267419  0.01272367       0.000
   0.08814649  0.15267419  0.00848244       0.000
   0.08814649  0.15267419  0.00424122       0.000
   0.08814649  0.15267419  0.00000000       0.000
 
 k-points in reciprocal lattice and weights: k-path added by seekpath. Formula: ZnS S
   0.00000000  0.00000000  0.12500000       0.014
   0.16666667  0.00000000  0.12500000       0.083
   0.33333333  0.00000000  0.12500000       0.083
   0.50000000  0.00000000  0.12500000       0.042
   0.16666667  0.16666667  0.12500000       0.083
   0.33333333  0.16666667  0.12500000       0.167
   0.33333333  0.33333333  0.12500000       0.028
   0.00000000  0.00000000  0.37500000       0.014
   0.16666667  0.00000000  0.37500000       0.083
   0.33333333  0.00000000  0.37500000       0.083
   0.50000000  0.00000000  0.37500000       0.042
   0.16666667  0.16666667  0.37500000       0.083
   0.33333333  0.16666667  0.37500000       0.167
   0.33333333  0.33333333  0.37500000       0.028
   0.00000000  0.00000000  0.00000000       0.000
   0.01351351  0.00000000  0.00000000       0.000
   0.02702703  0.00000000  0.00000000       0.000
   0.04054054  0.00000000  0.00000000       0.000
   0.05405405  0.00000000  0.00000000       0.000
   0.06756757  0.00000000  0.00000000       0.000
   0.08108108  0.00000000  0.00000000       0.000
   0.09459459  0.00000000  0.00000000       0.000
   0.10810811  0.00000000  0.00000000       0.000
   0.12162162  0.00000000  0.00000000       0.000
   0.13513514  0.00000000  0.00000000       0.000
   0.14864865  0.00000000  0.00000000       0.000
   0.16216216  0.00000000  0.00000000       0.000
   0.17567568  0.00000000  0.00000000       0.000
   0.18918919  0.00000000  0.00000000       0.000
   0.20270270  0.00000000  0.00000000       0.000
   0.21621622  0.00000000  0.00000000       0.000
   0.22972973  0.00000000  0.00000000       0.000
   0.24324324  0.00000000  0.00000000       0.000
   0.25675676  0.00000000  0.00000000       0.000
   0.27027027  0.00000000  0.00000000       0.000
   0.28378378  0.00000000  0.00000000       0.000
   0.29729730  0.00000000  0.00000000       0.000
   0.31081081  0.00000000  0.00000000       0.000
   0.32432432  0.00000000  0.00000000       0.000
   0.33783784  0.00000000  0.00000000       0.000
   0.35135135  0.00000000  0.00000000       0.000
   0.36486486  0.00000000  0.00000000       0.000
   0.37837838  0.00000000  0.00000000       0.000
   0.39189189  0.00000000  0.00000000       0.000
   0.40540541  0.00000000  0.00000000       0.000
   0.41891892  0.00000000  0.00000000       0.000
   0.43243243  0.00000000  0.00000000       0.000
   0.44594595  0.00000000  0.00000000       0.000
   0.45945946  0.00000000  0.00000000       0.000
   0.47297297  0.00000000  0.00000000       0.000
   0.48648649  0.00000000  0.00000000       0.000
   0.50000000  0.00000000  0.00000000       0.000
   0.49206349  0.01587302  0.00000000       0.000
   0.48412698  0.03174603  0.00000000       0.000
   0.47619048  0.04761905  0.00000000       0.000
   0.46825397  0.06349206  0.00000000       0.000
   0.46031746  0.07936508  0.00000000       0.000
   0.45238095  0.09523810  0.00000000       0.000
   0.44444444  0.11111111  0.00000000       0.000
   0.43650794  0.12698413  0.00000000       0.000
   0.42857143  0.14285714  0.00000000       0.000
   0.42063492  0.15873016  0.00000000       0.000
   0.41269841  0.17460317  0.00000000       0.000
   0.40476190  0.19047619  0.00000000       0.000
   0.39682540  0.20634921  0.00000000       0.000
   0.38888889  0.22222222  0.00000000       0.000
   0.38095238  0.23809524  0.00000000       0.000
   0.37301587  0.25396825  0.00000000       0.000
   0.36507937  0.26984127  0.00000000       0.000
   0.35714286  0.28571429  0.00000000       0.000
   0.34920635  0.30158730  0.00000000       0.000
   0.34126984  0.31746032  0.00000000       0.000
   0.33333333  0.33333333  0.00000000       0.000
   0.32558140  0.32558140  0.00000000       0.000
   0.31782946  0.31782946  0.00000000       0.000
   0.31007752  0.31007752  0.00000000       0.000
   0.30232558  0.30232558  0.00000000       0.000
   0.29457364  0.29457364  0.00000000       0.000
   0.28682171  0.28682171  0.00000000       0.000
   0.27906977  0.27906977  0.00000000       0.000
   0.27131783  0.27131783  0.00000000       0.000
   0.26356589  0.26356589  0.00000000       0.000
   0.25581395  0.25581395  0.00000000       0.000
   0.24806202  0.24806202  0.00000000       0.000
   0.24031008  0.24031008  0.00000000       0.000
   0.23255814  0.23255814  0.00000000       0.000
   0.22480620  0.22480620  0.00000000       0.000
   0.21705426  0.21705426  0.00000000       0.000
   0.20930233  0.20930233  0.00000000       0.000
   0.20155039  0.20155039  0.00000000       0.000
   0.19379845  0.19379845  0.00000000       0.000
   0.18604651  0.18604651  0.00000000       0.000
   0.17829457  0.17829457  0.00000000       0.000
   0.17054264  0.17054264  0.00000000       0.000
   0.16279070  0.16279070  0.00000000       0.000
   0.15503876  0.15503876  0.00000000       0.000
   0.14728682  0.14728682  0.00000000       0.000
   0.13953488  0.13953488  0.00000000       0.000
   0.13178295  0.13178295  0.00000000       0.000
   0.12403101  0.12403101  0.00000000       0.000
   0.11627907  0.11627907  0.00000000       0.000
   0.10852713  0.10852713  0.00000000       0.000
   0.10077519  0.10077519  0.00000000       0.000
   0.09302326  0.09302326  0.00000000       0.000
   0.08527132  0.08527132  0.00000000       0.000
   0.07751938  0.07751938  0.00000000       0.000
   0.06976744  0.06976744  0.00000000       0.000
   0.06201550  0.06201550  0.00000000       0.000
   0.05426357  0.05426357  0.00000000       0.000
   0.04651163  0.04651163  0.00000000       0.000
   0.03875969  0.03875969  0.00000000       0.000
   0.03100775  0.03100775  0.00000000       0.000
   0.02325581  0.02325581  0.00000000       0.000
   0.01550388  0.01550388  0.00000000       0.000
   0.00775194  0.00775194  0.00000000       0.000
   0.00000000  0.00000000  0.00000000       0.000
   0.00000000  0.00000000  0.02631579       0.000
   0.00000000  0.00000000  0.05263158       0.000
   0.00000000  0.00000000  0.07894737       0.000
   0.00000000  0.00000000  0.10526316       0.000
   0.00000000  0.00000000  0.13157895       0.000
   0.00000000  0.00000000  0.15789474       0.000
   0.00000000  0.00000000  0.18421053       0.000
   0.00000000  0.00000000  0.21052632       0.000
   0.00000000  0.00000000  0.23684211       0.000
   0.00000000  0.00000000  0.26315789       0.000
   0.00000000  0.00000000  0.28947368       0.000
   0.00000000  0.00000000  0.31578947       0.000
   0.00000000  0.00000000  0.34210526       0.000
   0.00000000  0.00000000  0.36842105       0.000
   0.00000000  0.00000000  0.39473684       0.000
   0.00000000  0.00000000  0.42105263       0.000
   0.00000000  0.00000000  0.44736842       0.000
   0.00000000  0.00000000  0.47368421       0.000
   0.00000000  0.00000000  0.50000000       0.000
   0.01351351  0.00000000  0.50000000       0.000
   0.02702703  0.00000000  0.50000000       0.000
   0.04054054  0.00000000  0.50000000       0.000
   0.05405405  0.00000000  0.50000000       0.000
   0.06756757  0.00000000  0.50000000       0.000
   0.08108108  0.00000000  0.50000000       0.000
   0.09459459  0.00000000  0.50000000       0.000
   0.10810811  0.00000000  0.50000000       0.000
   0.12162162  0.00000000  0.50000000       0.000
   0.13513514  0.00000000  0.50000000       0.000
   0.14864865  0.00000000  0.50000000       0.000
   0.16216216  0.00000000  0.50000000       0.000
   0.17567568  0.00000000  0.50000000       0.000
   0.18918919  0.00000000  0.50000000       0.000
   0.20270270  0.00000000  0.50000000       0.000
   0.21621622  0.00000000  0.50000000       0.000
   0.22972973  0.00000000  0.50000000       0.000
   0.24324324  0.00000000  0.50000000       0.000
   0.25675676  0.00000000  0.50000000       0.000
   0.27027027  0.00000000  0.50000000       0.000
   0.28378378  0.00000000  0.50000000       0.000
   0.29729730  0.00000000  0.50000000       0.000
   0.31081081  0.00000000  0.50000000       0.000
   0.32432432  0.00000000  0.50000000       0.000
   0.33783784  0.00000000  0.50000000       0.000
   0.35135135  0.00000000  0.50000000       0.000
   0.36486486  0.00000000  0.50000000       0.000
   0.37837838  0.00000000  0.50000000       0.000
   0.39189189  0.00000000  0.50000000       0.000
   0.40540541  0.00000000  0.50000000       0.000
   0.41891892  0.00000000  0.50000000       0.000
   0.43243243  0.00000000  0.50000000       0.000
   0.44594595  0.00000000  0.50000000       0.000
   0.45945946  0.00000000  0.50000000       0.000
   0.47297297  0.00000000  0.50000000       0.000
   0.48648649  0.00000000  0.50000000       0.000
   0.50000000  0.00000000  0.50000000       0.000
   0.49206349  0.01587302  0.50000000       0.000
   0.48412698  0.03174603  0.50000000       0.000
   0.47619048  0.04761905  0.50000000       0.000
   0.46825397  0.06349206  0.50000000       0.000
   0.46031746  0.07936508  0.50000000       0.000
   0.45238095  0.09523810  0.50000000       0.000
   0.44444444  0.11111111  0.50000000       0.000
   0.43650794  0.12698413  0.50000000       0.000
   0.42857143  0.14285714  0.50000000       0.000
   0.42063492  0.15873016  0.50000000       0.000
   0.41269841  0.17460317  0.50000000       0.000
   0.40476190  0.19047619  0.50000000       0.000
   0.39682540  0.20634921  0.50000000       0.000
   0.38888889  0.22222222  0.50000000       0.000
   0.38095238  0.23809524  0.50000000       0.000
   0.37301587  0.25396825  0.50000000       0.000
   0.36507937  0.26984127  0.50000000       0.000
   0.35714286  0.28571429  0.50000000       0.000
   0.34920635  0.30158730  0.50000000       0.000
   0.34126984  0.31746032  0.50000000       0.000
   0.33333333  0.33333333  0.50000000       0.000
   0.32558140  0.32558140  0.50000000       0.000
   0.31782946  0.31782946  0.50000000       0.000
   0.31007752  0.31007752  0.50000000       0.000
   0.30232558  0.30232558  0.50000000       0.000
   0.29457364  0.29457364  0.50000000       0.000
   0.28682171  0.28682171  0.50000000       0.000
   0.27906977  0.27906977  0.50000000       0.000
   0.27131783  0.27131783  0.50000000       0.000
   0.26356589  0.26356589  0.50000000       0.000
   0.25581395  0.25581395  0.50000000       0.000
   0.24806202  0.24806202  0.50000000       0.000
   0.24031008  0.24031008  0.50000000       0.000
   0.23255814  0.23255814  0.50000000       0.000
   0.22480620  0.22480620  0.50000000       0.000
   0.21705426  0.21705426  0.50000000       0.000
   0.20930233  0.20930233  0.50000000       0.000
   0.20155039  0.20155039  0.50000000       0.000
   0.19379845  0.19379845  0.50000000       0.000
   0.18604651  0.18604651  0.50000000       0.000
   0.17829457  0.17829457  0.50000000       0.000
   0.17054264  0.17054264  0.50000000       0.000
   0.16279070  0.16279070  0.50000000       0.000
   0.15503876  0.15503876  0.50000000       0.000
   0.14728682  0.14728682  0.50000000       0.000
   0.13953488  0.13953488  0.50000000       0.000
   0.13178295  0.13178295  0.50000000       0.000
   0.12403101  0.12403101  0.50000000       0.000
   0.11627907  0.11627907  0.50000000       0.000
   0.10852713  0.10852713  0.50000000       0.000
   0.10077519  0.10077519  0.50000000       0.000
   0.09302326  0.09302326  0.50000000       0.000
   0.08527132  0.08527132  0.50000000       0.000
   0.07751938  0.07751938  0.50000000       0.000
   0.06976744  0.06976744  0.50000000       0.000
   0.06201550  0.06201550  0.50000000       0.000
   0.05426357  0.05426357  0.50000000       0.000
   0.04651163  0.04651163  0.50000000       0.000
   0.03875969  0.03875969  0.50000000       0.000
   0.03100775  0.03100775  0.50000000       0.000
   0.02325581  0.02325581  0.50000000       0.000
   0.01550388  0.01550388  0.50000000       0.000
   0.00775194  0.00775194  0.50000000       0.000
   0.00000000  0.00000000  0.50000000       0.000
   0.50000000  0.00000000  0.50000000       0.000
   0.50000000  0.00000000  0.47368421       0.000
   0.50000000  0.00000000  0.44736842       0.000
   0.50000000  0.00000000  0.42105263       0.000
   0.50000000  0.00000000  0.39473684       0.000
   0.50000000  0.00000000  0.36842105       0.000
   0.50000000  0.00000000  0.34210526       0.000
   0.50000000  0.00000000  0.31578947       0.000
   0.50000000  0.00000000  0.28947368       0.000
   0.50000000  0.00000000  0.26315789       0.000
   0.50000000  0.00000000  0.23684211       0.000
   0.50000000  0.00000000  0.21052632       0.000
   0.50000000  0.00000000  0.18421053       0.000
   0.50000000  0.00000000  0.15789474       0.000
   0.50000000  0.00000000  0.13157895       0.000
   0.50000000  0.00000000  0.10526316       0.000
   0.50000000  0.00000000  0.07894737       0.000
   0.50000000  0.00000000  0.05263158       0.000
   0.50000000  0.00000000  0.02631579       0.000
   0.50000000  0.00000000  0.00000000       0.000
   0.33333333  0.33333333  0.50000000       0.000
   0.33333333  0.33333333  0.47368421       0.000
   0.33333333  0.33333333  0.44736842       0.000
   0.33333333  0.33333333  0.42105263       0.000
   0.33333333  0.33333333  0.39473684       0.000
   0.33333333  0.33333333  0.36842105       0.000
   0.33333333  0.33333333  0.34210526       0.000
   0.33333333  0.33333333  0.31578947       0.000
   0.33333333  0.33333333  0.28947368       0.000
   0.33333333  0.33333333  0.26315789       0.000
   0.33333333  0.33333333  0.23684211       0.000
   0.33333333  0.33333333  0.21052632       0.000
   0.33333333  0.33333333  0.18421053       0.000
   0.33333333  0.33333333  0.15789474       0.000
   0.33333333  0.33333333  0.13157895       0.000
   0.33333333  0.33333333  0.10526316       0.000
   0.33333333  0.33333333  0.07894737       0.000
   0.33333333  0.33333333  0.05263158       0.000
   0.33333333  0.33333333  0.02631579       0.000
   0.33333333  0.33333333  0.00000000       0.000
 
 position of ions in fractional coordinates (direct lattice) 
   0.66666667  0.33333333  0.50040087
   0.33333333  0.66666667  0.00040087
   0.66666667  0.33333333  0.87459913
   0.33333333  0.66666667  0.37459913
 
 position of ions in cartesian coordinates  (Angst):
   1.89079194  1.09164923  3.10487041
  -0.00000000  2.18329847  0.00248729
   1.89079194  1.09164923  5.42668316
  -0.00000000  2.18329847  2.32430004
 


--------------------------------------------------------------------------------------------------------


 k-point     1 :   0.0000 0.0000 0.1250  plane waves:     797
 k-point     2 :   0.1667 0.0000 0.1250  plane waves:     794
 k-point     3 :   0.3333 0.0000 0.1250  plane waves:     808
 k-point     4 :   0.5000 0.0000 0.1250  plane waves:     812
 k-point     5 :   0.1667 0.1667 0.1250  plane waves:     803
 k-point     6 :   0.3333 0.1667 0.1250  plane waves:     804
 k-point     7 :   0.3333 0.3333 0.1250  plane waves:     813
 k-point     8 :   0.0000 0.0000 0.3750  plane waves:     803
 k-point     9 :   0.1667 0.0000 0.3750  plane waves:     796
 k-point    10 :   0.3333 0.0000 0.3750  plane waves:     806
 k-point    11 :   0.5000 0.0000 0.3750  plane waves:     796
 k-point    12 :   0.1667 0.1667 0.3750  plane waves:     799
 k-point    13 :   0.3333 0.1667 0.3750  plane waves:     805
 k-point    14 :   0.3333 0.3333 0.3750  plane waves:     804
 k-point    15 :   0.0000 0.0000 0.0000  plane waves:     785
 k-point    16 :   0.0135 0.0000 0.0000  plane waves:     785
 k-point    17 :   0.0270 0.0000 0.0000  plane waves:     785
 k-point    18 :   0.0405 0.0000 0.0000  plane waves:     789
 k-point    19 :   0.0541 0.0000 0.0000  plane waves:     797
 k-point    20 :   0.0676 0.0000 0.0000  plane waves:     793
 k-point    21 :   0.0811 0.0000 0.0000  plane waves:     793
[...]
     21       7.6644      0.00000
     22       9.8168      0.00000
     23       9.8168      0.00000
     24       9.8612      0.00000
     25      12.2806      0.00000
     26      12.5237      0.00000
     27      12.5237      0.00000
     28      12.8540      0.00000
     29      14.1427      0.00000
     30      14.1427      0.00000
     31      17.3646      0.00000
     32      18.3613      0.00000
     33      19.5231      0.00000
     34      19.5960      0.00000

 k-point   269 :       0.3333    0.3333    0.1842
  band No.  band energies     occupation 
      1      -9.8365      2.00000
      2      -9.8365      2.00000
      3      -4.1482      2.00000
      4      -3.9896      2.00000
      5      -3.9896      2.00000
      6      -3.8596      2.00000
      7      -3.7740      2.00000
      8      -3.7740      2.00000
      9      -3.7025      2.00000
     10      -3.6994      2.00000
     11      -3.4005      2.00000
     12      -3.4005      2.00000
     13      -2.3276      2.00000
     14      -2.3276      2.00000
     15      -1.6274      2.00000
     16      -0.1000      2.00000
     17       0.1581      2.00000
     18       0.1582      2.00000
     19       6.6941      0.00000
     20       7.7871      0.00000
     21       7.7871      0.00000
     22       9.8625      0.00000
     23       9.8625      0.00000
     24       9.9098      0.00000
     25      12.3159      0.00000
     26      12.4427      0.00000
     27      12.4427      0.00000
     28      13.0455      0.00000
     29      14.0077      0.00000
     30      14.0077      0.00000
     31      17.1067      0.00000
     32      18.2675      0.00000
     33      19.5276      0.00000
     34      19.5291      0.00000

 k-point   270 :       0.3333    0.3333    0.1579
  band No.  band energies     occupation 
      1      -9.8378      2.00000
      2      -9.8378      2.00000
      3      -4.1540      2.00000
      4      -3.9820      2.00000
      5      -3.9819      2.00000
      6      -3.8518      2.00000
      7      -3.7708      2.00000
      8      -3.7708      2.00000
      9      -3.7019      2.00000
     10      -3.6963      2.00000
     11      -3.4092      2.00000
     12      -3.4091      2.00000
     13      -2.2908      2.00000
     14      -2.2908      2.00000
     15      -1.6625      2.00000
     16      -0.0521      2.00000
     17       0.0832      2.00000
     18       0.0832      2.00000
     19       6.6011      0.00000
     20       7.9010      0.00000
     21       7.9010      0.00000
     22       9.9172      0.00000
     23       9.9172      0.00000
     24       9.9481      0.00000
     25      12.3398      0.00000
     26      12.3398      0.00000
     27      12.3482      0.00000
     28      13.2466      0.00000
     29      13.9040      0.00000
     30      13.9041      0.00000
     31      16.8473      0.00000
     32      18.1822      0.00000
     33      19.4971      0.00000
     34      19.4976      0.00000

 k-point   271 :       0.3333    0.3333    0.1316
  band No.  band energies     occupation 
      1      -9.8390      2.00000
      2      -9.8390      2.00000
      3      -4.1589      2.00000
      4      -3.9752      2.00000
      5      -3.9752      2.00000
      6      -3.8453      2.00000
      7      -3.7679      2.00000
      8      -3.7679      2.00000
      9      -3.7015      2.00000
     10      -3.6932      2.00000
     11      -3.4170      2.00000
     12      -3.4169      2.00000
     13      -2.2563      2.00000
     14      -2.2563      2.00000
     15      -1.6927      2.00000
     16      -0.0107      2.00000
     17       0.0144      2.00000
     18       0.0144      2.00000
     19       6.5185      0.00000
     20       8.0027      0.00000
     21       8.0027      0.00000
     22       9.9776      0.00000
     23       9.9797      0.00000
     24       9.9797      0.00000
     25      12.2202      0.00000
     26      12.2202      0.00000
     27      12.3763      0.00000
     28      13.4530      0.00000
     29      13.8278      0.00000
     30      13.8279      0.00000
     31      16.5905      0.00000
     32      18.1071      0.00000
     33      19.4495      0.00000
     34      19.4508      0.00000

 k-point   272 :       0.3333    0.3333    0.1053
  band No.  band energies     occupation 
      1      -9.8400      2.00000
      2      -9.8400      2.00000
      3      -4.1634      2.00000
      4      -3.9697      2.00000
      5      -3.9696      2.00000
      6      -3.8401      2.00000
      7      -3.7653      2.00000
      8      -3.7653      2.00000
      9      -3.7011      2.00000
     10      -3.6903      2.00000
     11      -3.4239      2.00000
     12      -3.4239      2.00000
     13      -2.2252      2.00000
     14      -2.2252      2.00000
     15      -1.7178      2.00000
     16      -0.0457      2.00000
     17      -0.0457      2.00000
     18       0.0245      2.00000
     19       6.4505      0.00000
     20       8.0891      0.00000
     21       8.0891      0.00000
     22       9.9995      0.00000
     23      10.0477      0.00000
     24      10.0477      0.00000
     25      12.0926      0.00000
     26      12.0926      0.00000
     27      12.4008      0.00000
     28      13.6604      0.00000
     29      13.7744      0.00000
     30      13.7744      0.00000
     31      16.3421      0.00000
     32      18.0434      0.00000
     33      19.3980      0.00000
     34      19.4042      0.00000

 k-point   273 :       0.3333    0.3333    0.0789
  band No.  band energies     occupation 
      1      -9.8408      2.00000
      2      -9.8408      2.00000
      3      -4.1664      2.00000
      4      -3.9649      2.00000
      5      -3.9648      2.00000
      6      -3.8361      2.00000
      7      -3.7627      2.00000
      8      -3.7627      2.00000
      9      -3.7007      2.00000
     10      -3.6878      2.00000
     11      -3.4294      2.00000
     12      -3.4293      2.00000
     13      -2.1989      2.00000
     14      -2.1989      2.00000
     15      -1.7375      2.00000
     16      -0.0943      2.00000
     17      -0.0943      2.00000
     18       0.0526      2.00000
     19       6.3989      0.00000
     20       8.1591      0.00000
     21       8.1591      0.00000
     22      10.0156      0.00000
     23      10.1186      0.00000
     24      10.1186      0.00000
     25      11.9704      0.00000
     26      11.9704      0.00000
     27      12.4205      0.00000
     28      13.7425      0.00000
     29      13.7425      0.00000
     30      13.8602      0.00000
     31      16.1120      0.00000
     32      17.9955      0.00000
     33      19.3536      0.00000
     34      19.3558      0.00000

 k-point   274 :       0.3333    0.3333    0.0526
  band No.  band energies     occupation 
      1      -9.8414      2.00000
      2      -9.8414      2.00000
      3      -4.1685      2.00000
      4      -3.9614      2.00000
      5      -3.9613      2.00000
      6      -3.8330      2.00000
      7      -3.7605      2.00000
      8      -3.7605      2.00000
      9      -3.7005      2.00000
     10      -3.6855      2.00000
     11      -3.4333      2.00000
     12      -3.4333      2.00000
     13      -2.1788      2.00000
     14      -2.1788      2.00000
     15      -1.7515      2.00000
     16      -0.1304      2.00000
     17      -0.1304      2.00000
     18       0.0735      2.00000
     19       6.3616      0.00000
     20       8.2102      0.00000
     21       8.2102      0.00000
     22      10.0270      0.00000
     23      10.1827      0.00000
     24      10.1827      0.00000
     25      11.8663      0.00000
     26      11.8664      0.00000
     27      12.4352      0.00000
     28      13.7235      0.00000
     29      13.7236      0.00000
     30      14.0404      0.00000
     31      15.9159      0.00000
     32      17.9617      0.00000
     33      19.3201      0.00000
     34      19.3213      0.00000

 k-point   275 :       0.3333    0.3333    0.0263
  band No.  band energies     occupation 
      1      -9.8417      2.00000
      2      -9.8417      2.00000
      3      -4.1699      2.00000
      4      -3.9594      2.00000
      5      -3.9593      2.00000
      6      -3.8314      2.00000
      7      -3.7594      2.00000
      8      -3.7594      2.00000
      9      -3.7003      2.00000
     10      -3.6842      2.00000
     11      -3.4359      2.00000
     12      -3.4358      2.00000
     13      -2.1664      2.00000
     14      -2.1664      2.00000
     15      -1.7601      2.00000
     16      -0.1528      2.00000
     17      -0.1528      2.00000
     18       0.0858      2.00000
     19       6.3387      0.00000
     20       8.2406      0.00000
     21       8.2406      0.00000
     22      10.0333      0.00000
     23      10.2278      0.00000
     24      10.2278      0.00000
     25      11.7951      0.00000
     26      11.7952      0.00000
     27      12.4440      0.00000
     28      13.7128      0.00000
     29      13.7128      0.00000
     30      14.1685      0.00000
     31      15.7749      0.00000
     32      17.9404      0.00000
     33      19.2976      0.00000
     34      19.2989      0.00000

 k-point   276 :       0.3333    0.3333    0.0000
  band No.  band energies     occupation 
      1      -9.8419      2.00000
      2      -9.8419      2.00000
      3      -4.1703      2.00000
      4      -3.9587      2.00000
      5      -3.9587      2.00000
      6      -3.8308      2.00000
      7      -3.7590      2.00000
      8      -3.7590      2.00000
      9      -3.7003      2.00000
     10      -3.6838      2.00000
     11      -3.4367      2.00000
     12      -3.4367      2.00000
     13      -2.1621      2.00000
     14      -2.1621      2.00000
     15      -1.7629      2.00000
     16      -0.1604      2.00000
     17      -0.1604      2.00000
     18       0.0899      2.00000
     19       6.3310      0.00000
     20       8.2507      0.00000
     21       8.2507      0.00000
     22      10.0353      0.00000
     23      10.2443      0.00000
     24      10.2443      0.00000
     25      11.7697      0.00000
     26      11.7697      0.00000
     27      12.4469      0.00000
     28      13.7094      0.00000
     29      13.7095      0.00000
     30      14.2168      0.00000
     31      15.7223      0.00000
     32      17.9332      0.00000
     33      19.2899      0.00000
     34      19.2902      0.00000


--------------------------------------------------------------------------------------------------------


 soft charge-density along one line, spin component            1
         0         1         2         3         4         5         6         7         8         9
 total charge-density along one line
 
 pseudopotential strength for first ion, spin component:            1
 -9.720  -0.000  -0.000   0.000  -0.000 -10.091  -0.000  -0.000
 -0.000  -9.720  -0.000  -0.000   0.000  -0.000 -10.091  -0.000
 -0.000  -0.000  -9.720  -0.000   0.000  -0.000  -0.000 -10.091
  0.000  -0.000  -0.000  -9.720   0.000   0.000  -0.000  -0.000
 -0.000   0.000   0.000   0.000  -9.720  -0.000   0.000   0.000
-10.091  -0.000  -0.000   0.000  -0.000 -10.387  -0.000  -0.000
 -0.000 -10.091  -0.000  -0.000   0.000  -0.000 -10.387  -0.000
 -0.000  -0.000 -10.091  -0.000   0.000  -0.000  -0.000 -10.387
  0.000  -0.000  -0.000 -10.091   0.000   0.000  -0.000  -0.000
 -0.000   0.000   0.000   0.000 -10.091  -0.000   0.000   0.000
  0.000   0.000  -0.000  -0.000  -0.000   0.000   0.000  -0.000
  0.000   0.000  -0.000  -0.000  -0.000   0.000   0.000  -0.000
 -0.000   0.002   0.000   0.000  -0.002  -0.000   0.001  -0.000
  0.000   0.000  -0.002  -0.000  -0.000   0.000   0.000  -0.002
 -0.002   0.000  -0.000   0.002  -0.000  -0.002   0.000   0.000
 -0.000   0.001   0.000   0.000  -0.001  -0.000   0.001   0.000
  0.000   0.000  -0.001  -0.000  -0.000   0.000   0.000  -0.001
 -0.001   0.000  -0.000   0.001  -0.000  -0.001   0.000  -0.000
 total augmentation occupancy for first ion, spin component:            1
  3.581  -0.000   0.000  -0.710   0.000  -1.601   0.000  -0.000   0.710  -0.000   0.000   0.000  -0.000  -0.000  -0.589   0.000
 -0.000   3.084  -0.000  -0.000  -0.710   0.000  -1.105   0.000   0.000   0.710   0.000   0.000   0.421  -0.000  -0.000  -0.064
  0.000  -0.000   4.068  -0.000   0.000  -0.000   0.000  -2.085   0.000  -0.000   0.004   0.000  -0.000  -0.716  -0.000   0.000
 -0.710  -0.000  -0.000   3.084   0.000   0.710   0.000   0.000  -1.105  -0.000  -0.000  -0.000  -0.000   0.000   0.421   0.000
  0.000  -0.710   0.000   0.000   3.581  -0.000   0.710  -0.000  -0.000  -1.601   0.000   0.000  -0.589  -0.000   0.000   0.089
 -1.601   0.000  -0.000   0.710  -0.000   1.613  -0.000   0.000  -0.709   0.000  -0.000  -0.000   0.000   0.000   0.572  -0.000
  0.000  -1.105   0.000   0.000   0.710  -0.000   1.118  -0.000  -0.000  -0.709  -0.000  -0.000  -0.409   0.000   0.000   0.071
 -0.000   0.000  -2.085   0.000  -0.000   0.000  -0.000   2.095  -0.000   0.000  -0.004  -0.000   0.000   0.695   0.000  -0.000
  0.710   0.000   0.000  -1.105  -0.000  -0.709  -0.000  -0.000   1.118   0.000   0.000   0.000   0.000  -0.000  -0.409  -0.000
 -0.000   0.710  -0.000  -0.000  -1.601   0.000  -0.709   0.000   0.000   1.613  -0.000  -0.000   0.572   0.000  -0.000  -0.100
  0.000  -0.000   0.004  -0.000   0.000  -0.000  -0.000  -0.004   0.000  -0.000   2.662  -0.646  -0.000  -0.003  -0.000   0.000
  0.000   0.000   0.000  -0.000   0.000  -0.000   0.000  -0.000   0.000  -0.000  -0.646   0.183   0.000   0.001   0.000  -0.000
 -0.000   0.421  -0.000  -0.000  -0.589   0.000  -0.409   0.000   0.000   0.572   0.000  -0.000   0.387  -0.000  -0.000  -0.068
 -0.000   0.000  -0.716   0.000  -0.000   0.000  -0.000   0.695   0.000   0.000  -0.003   0.001   0.000   0.387   0.000   0.000
 -0.589  -0.000  -0.000   0.421   0.000   0.572   0.000   0.000  -0.409  -0.000  -0.000   0.000  -0.000   0.000   0.387   0.000
  0.000  -0.064   0.000   0.000   0.089  -0.000   0.071  -0.000  -0.000  -0.100  -0.000   0.000  -0.068   0.000   0.000   0.014
  0.000   0.000   0.109   0.000   0.000  -0.000   0.000  -0.121   0.000  -0.000   0.001  -0.000   0.000  -0.068   0.000  -0.000
  0.089   0.000   0.000  -0.064  -0.000  -0.100  -0.000  -0.000   0.071   0.000   0.000   0.000   0.000  -0.000  -0.068  -0.000


------------------------ aborting loop because EDIFF is reached ----------------------------------------





 total charge

# of ion       s       p       d       tot
------------------------------------------
    1        0.532   0.505   9.796  10.833
    2        0.532   0.505   9.796  10.833
    3        1.309   2.437   0.000   3.746
    4        1.309   2.437   0.000   3.746
--------------------------------------------------
tot          3.680   5.885  19.593  29.158
 
    CHARGE:  cpu time      0.3053: real time      0.3064
    FORLOC:  cpu time      0.0011: real time      0.0011
    FORNL :  cpu time      1.1959: real time      1.2002
    FORCOR:  cpu time      0.0724: real time      0.0726
    FORHAR:  cpu time      0.0009: real time      0.0009
    MIXING:  cpu time      0.0011: real time      0.0011
    OFIELD:  cpu time      0.0000: real time      0.0000

 VOLUME and BASIS-vectors are now :
 -----------------------------------------------------------------------------
  energy-cutoff  :      276.72
  volume of cell :       76.84
      direct lattice vectors                 reciprocal lattice vectors
     3.781583874  0.000000000  0.000000000     0.264439461  0.152674194 -0.000000000
    -1.890791937  3.274947701  0.000000000     0.000000000  0.305348388  0.000000000
     0.000000000  0.000000000  6.204766233     0.000000000 -0.000000000  0.161166426

  length of vectors
     3.781583874  3.781583874  6.204766233     0.305348388  0.305348388  0.161166426


 FORCES acting on ions
    electron-ion (+dipol)            ewald-force                    non-local-force                 convergence-correction
 -----------------------------------------------------------------------------------------------
   -.556E-05 0.281E-04 -.426E+01   -.679E-07 0.325E-07 0.418E+01   0.173E-16 0.347E-17 0.739E-01   0.355E-06 -.209E-06 0.891E-03
   0.271E-04 0.924E-05 -.426E+01   0.679E-07 -.325E-07 0.418E+01   -.191E-16 -.347E-17 0.739E-01   -.359E-06 0.203E-06 0.891E-03
   -.608E-04 -.761E-04 0.416E+01   -.631E-07 0.304E-07 -.418E+01   0.694E-17 0.486E-16 0.266E-01   0.804E-07 -.469E-07 -.355E-03
   -.356E-04 -.907E-04 0.416E+01   0.631E-07 -.304E-07 -.418E+01   0.763E-16 -.416E-16 0.266E-01   -.808E-07 0.462E-07 -.355E-03
 -----------------------------------------------------------------------------------------------
   -.748E-04 -.129E-03 -.197E+00   -.187E-14 -.189E-14 0.000E+00   0.815E-16 0.694E-17 0.201E+00   -.361E-08 -.643E-08 0.107E-02
 
 
 POSITION                                       TOTAL-FORCE (eV/Angst)
 -----------------------------------------------------------------------------------
      1.89079      1.09165      3.10487         0.000000      0.000000      0.001464
     -0.00000      2.18330      0.00249        -0.000000     -0.000000      0.001464
      1.89079      1.09165      5.42668        -0.000000      0.000000     -0.001464
     -0.00000      2.18330      2.32430         0.000000     -0.000000     -0.001464
 -----------------------------------------------------------------------------------
    total drift:                               -0.000075     -0.000129      0.004903


--------------------------------------------------------------------------------------------------------



  FREE ENERGIE OF THE ION-ELECTRON SYSTEM (eV)
  ---------------------------------------------------
  free  energy   TOTEN  =       -15.13625382 eV

  energy  without entropy=      -15.13625382  energy(sigma->0) =      -15.13625382
 


--------------------------------------------------------------------------------------------------------


    POTLOK:  cpu time      0.0742: real time      0.0744


--------------------------------------------------------------------------------------------------------




--------------------------------------------------------------------------------------------------------


  
 reached required accuracy - stopping structural energy minimisation
     LOOP+:  cpu time     58.6420: real time     59.0274
    4ORBIT:  cpu time      0.0000: real time      0.0000



 total charge

# of ion       s       p       d       tot
------------------------------------------
    1        0.532   0.505   9.796  10.833
    2        0.532   0.505   9.796  10.833
    3        1.309   2.437   0.000   3.746
    4        1.309   2.437   0.000   3.746
--------------------------------------------------
tot          3.680   5.885  19.593  29.158
 

 total amount of memory used by VASP MPI-rank0   231819. kBytes
=======================================================================

   base                                    :      30000. kBytes
   nonl-proj                               :      65232. kBytes
   fftplans                                :       2016. kBytes
   grid                                    :       3584. kBytes
   one-center                              :         62. kBytes
   wavefun                                 :     130925. kBytes
 
  
  
 General timing and accounting informations for this job:
 ========================================================
  
                  Total CPU time used (sec):       61.700
                            User time (sec):       60.031
                          System time (sec):        1.669
                         Elapsed time (sec):       63.061
  
                   Maximum memory used (kb):     2199716.
                   Average memory used (kb):          N/A
  
                          Minor page faults:       296000
                          Major page faults:         1753
                 Voluntary context switches:        11115
