<?xml version="1.0" encoding="ISO-8859-1"?>
<modeling>
 <generator>
  <i name="program" type="string">vasp </i>
  <i name="version" type="string">6.5.1  </i>
  <i name="subversion" type="string">10Mar25 (build May 13 2025 11:33:44) complex                          parallel </i>
  <i name="platform" type="string">LinuxNV </i>
  <i name="date" type="string">2026 05 15 </i>
  <i name="time" type="string">18:30:14 </i>
 </generator>
 <incar>
  <i type="string" name="PREC">Normal</i>
  <i type="string" name="ALGO">Normal</i>
  <i type="int" name="NELM">   100</i>
  <i type="int" name="IBRION">     2</i>
  <i name="EDIFF">      0.00001000</i>
  <i type="int" name="NSW">     1</i>
  <i type="int" name="ISIF">     0</i>
  <i name="ENCUT">    276.72300000</i>
  <i type="int" name="NBANDS">    34</i>
  <i type="logical" name="LREAL"> F  </i>
  <i type="int" name="ISMEAR">     0</i>
  <i name="SIGMA">      0.10000000</i>
  <i type="logical" name="LWAVE"> F  </i>
  <i type="logical" name="LCHARG"> F  </i>
  <i type="int" name="LORBIT">    10</i>
  <i type="logical" name="LASPH"> T  </i>
  <i type="string" name="GGA">Ps</i>
 </incar>
 <primitive_cell>
  <structure name="primitive_cell" >
   <crystal>
    <varray name="basis" >
     <v>       3.78158387       0.00000000       0.00000000 </v>
     <v>      -1.89079194       3.27494770       0.00000000 </v>
     <v>       0.00000000       0.00000000       6.20476623 </v>
    </varray>
    <i name="volume">     76.84286172 </i>
    <varray name="rec_basis" >
     <v>       0.26443946       0.15267419      -0.00000000 </v>
     <v>       0.00000000       0.30534839       0.00000000 </v>
     <v>       0.00000000      -0.00000000       0.16116643 </v>
    </varray>
   </crystal>
   <varray name="positions" >
    <v>       0.66666667       0.33333333       0.50040087 </v>
    <v>       0.33333333       0.66666667       0.00040087 </v>
    <v>       0.66666667       0.33333333       0.87459913 </v>
    <v>       0.33333333       0.66666667       0.37459913 </v>
   </varray>
  </structure>
  <varray name="primitive_index" >
   <v type="int" >        1 </v>
   <v type="int" >        2 </v>
   <v type="int" >        3 </v>
   <v type="int" >        4 </v>
  </varray>
 </primitive_cell>
 <kpoints>
  <varray name="kpointlist" >
   <v>       0.00000000       0.00000000       0.12500000 </v>
   <v>       0.16666667       0.00000000       0.12500000 </v>
   <v>       0.33333333       0.00000000       0.12500000 </v>
   <v>       0.50000000       0.00000000       0.12500000 </v>
   <v>       0.16666667       0.16666667       0.12500000 </v>
   <v>       0.33333333       0.16666667       0.12500000 </v>
   <v>       0.33333333       0.33333333       0.12500000 </v>
   <v>       0.00000000       0.00000000       0.37500000 </v>
   <v>       0.16666667       0.00000000       0.37500000 </v>
   <v>       0.33333333       0.00000000       0.37500000 </v>
   <v>       0.50000000       0.00000000       0.37500000 </v>
   <v>       0.16666667       0.16666667       0.37500000 </v>
   <v>       0.33333333       0.16666667       0.37500000 </v>
   <v>       0.33333333       0.33333333       0.37500000 </v>
   <v>       0.00000000       0.00000000       0.00000000 </v>
   <v>       0.01351351       0.00000000       0.00000000 </v>
   <v>       0.02702703       0.00000000       0.00000000 </v>
   <v>       0.04054054       0.00000000       0.00000000 </v>
   <v>       0.05405405       0.00000000       0.00000000 </v>
   <v>       0.06756757       0.00000000       0.00000000 </v>
   <v>       0.08108108       0.00000000       0.00000000 </v>
   <v>       0.09459459       0.00000000       0.00000000 </v>
   <v>       0.10810811       0.00000000       0.00000000 </v>
   <v>       0.12162162       0.00000000       0.00000000 </v>
   <v>       0.13513514       0.00000000       0.00000000 </v>
   <v>       0.14864865       0.00000000       0.00000000 </v>
   <v>       0.16216216       0.00000000       0.00000000 </v>
   <v>       0.17567568       0.00000000       0.00000000 </v>
   <v>       0.18918919       0.00000000       0.00000000 </v>
   <v>       0.20270270       0.00000000       0.00000000 </v>
   <v>       0.21621622       0.00000000       0.00000000 </v>
   <v>       0.22972973       0.00000000       0.00000000 </v>
   <v>       0.24324324       0.00000000       0.00000000 </v>
   <v>       0.25675676       0.00000000       0.00000000 </v>
   <v>       0.27027027       0.00000000       0.00000000 </v>
   <v>       0.28378378       0.00000000       0.00000000 </v>
   <v>       0.29729730       0.00000000       0.00000000 </v>
   <v>       0.31081081       0.00000000       0.00000000 </v>
   <v>       0.32432432       0.00000000       0.00000000 </v>
   <v>       0.33783784       0.00000000       0.00000000 </v>
   <v>       0.35135135       0.00000000       0.00000000 </v>
   <v>       0.36486486       0.00000000       0.00000000 </v>
   <v>       0.37837838       0.00000000       0.00000000 </v>
   <v>       0.39189189       0.00000000       0.00000000 </v>
   <v>       0.40540541       0.00000000       0.00000000 </v>
   <v>       0.41891892       0.00000000       0.00000000 </v>
   <v>       0.43243243       0.00000000       0.00000000 </v>
   <v>       0.44594595       0.00000000       0.00000000 </v>
   <v>       0.45945946       0.00000000       0.00000000 </v>
   <v>       0.47297297       0.00000000       0.00000000 </v>
   <v>       0.48648649       0.00000000       0.00000000 </v>
   <v>       0.50000000       0.00000000       0.00000000 </v>
   <v>       0.49206349       0.01587302       0.00000000 </v>
   <v>       0.48412698       0.03174603       0.00000000 </v>
   <v>       0.47619048       0.04761905       0.00000000 </v>
   <v>       0.46825397       0.06349206       0.00000000 </v>
   <v>       0.46031746       0.07936508       0.00000000 </v>
   <v>       0.45238095       0.09523810       0.00000000 </v>
   <v>       0.44444444       0.11111111       0.00000000 </v>
   <v>       0.43650794       0.12698413       0.00000000 </v>
   <v>       0.42857143       0.14285714       0.00000000 </v>
   <v>       0.42063492       0.15873016       0.00000000 </v>
   <v>       0.41269841       0.17460317       0.00000000 </v>
   <v>       0.40476190       0.19047619       0.00000000 </v>
   <v>       0.39682540       0.20634921       0.00000000 </v>
   <v>       0.38888889       0.22222222       0.00000000 </v>
   <v>       0.38095238       0.23809524       0.00000000 </v>
   <v>       0.37301587       0.25396825       0.00000000 </v>
   <v>       0.36507937       0.26984127       0.00000000 </v>
   <v>       0.35714286       0.28571429       0.00000000 </v>
   <v>       0.34920635       0.30158730       0.00000000 </v>
   <v>       0.34126984       0.31746032       0.00000000 </v>
   <v>       0.33333333       0.33333333       0.00000000 </v>
   <v>       0.32558140       0.32558140       0.00000000 </v>
   <v>       0.31782946       0.31782946       0.00000000 </v>
   <v>       0.31007752       0.31007752       0.00000000 </v>
   <v>       0.30232558       0.30232558       0.00000000 </v>
   <v>       0.29457364       0.29457364       0.00000000 </v>
   <v>       0.28682171       0.28682171       0.00000000 </v>
   <v>       0.27906977       0.27906977       0.00000000 </v>
   <v>       0.27131783       0.27131783       0.00000000 </v>
   <v>       0.26356589       0.26356589       0.00000000 </v>
   <v>       0.25581395       0.25581395       0.00000000 </v>
   <v>       0.24806202       0.24806202       0.00000000 </v>
   <v>       0.24031008       0.24031008       0.00000000 </v>
   <v>       0.23255814       0.23255814       0.00000000 </v>
   <v>       0.22480620       0.22480620       0.00000000 </v>
   <v>       0.21705426       0.21705426       0.00000000 </v>
   <v>       0.20930233       0.20930233       0.00000000 </v>
   <v>       0.20155039       0.20155039       0.00000000 </v>
   <v>       0.19379845       0.19379845       0.00000000 </v>
   <v>       0.18604651       0.18604651       0.00000000 </v>
   <v>       0.17829457       0.17829457       0.00000000 </v>
   <v>       0.17054264       0.17054264       0.00000000 </v>
   <v>       0.16279070       0.16279070       0.00000000 </v>
   <v>       0.15503876       0.15503876       0.00000000 </v>
   <v>       0.14728682       0.14728682       0.00000000 </v>
   <v>       0.13953488       0.13953488       0.00000000 </v>
   <v>       0.13178295       0.13178295       0.00000000 </v>
   <v>       0.12403101       0.12403101       0.00000000 </v>
   <v>       0.11627907       0.11627907       0.00000000 </v>
   <v>       0.10852713       0.10852713       0.00000000 </v>
   <v>       0.10077519       0.10077519       0.00000000 </v>
   <v>       0.09302326       0.09302326       0.00000000 </v>
   <v>       0.08527132       0.08527132       0.00000000 </v>
   <v>       0.07751938       0.07751938       0.00000000 </v>
   <v>       0.06976744       0.06976744       0.00000000 </v>
   <v>       0.06201550       0.06201550       0.00000000 </v>
   <v>       0.05426357       0.05426357       0.00000000 </v>
   <v>       0.04651163       0.04651163       0.00000000 </v>
   <v>       0.03875969       0.03875969       0.00000000 </v>
   <v>       0.03100775       0.03100775       0.00000000 </v>
   <v>       0.02325581       0.02325581       0.00000000 </v>
   <v>       0.01550388       0.01550388       0.00000000 </v>
   <v>       0.00775194       0.00775194       0.00000000 </v>
   <v>       0.00000000       0.00000000       0.00000000 </v>
   <v>       0.00000000       0.00000000       0.02631579 </v>
   <v>       0.00000000       0.00000000       0.05263158 </v>
   <v>       0.00000000       0.00000000       0.07894737 </v>
   <v>       0.00000000       0.00000000       0.10526316 </v>
   <v>       0.00000000       0.00000000       0.13157895 </v>
   <v>       0.00000000       0.00000000       0.15789474 </v>
   <v>       0.00000000       0.00000000       0.18421053 </v>
   <v>       0.00000000       0.00000000       0.21052632 </v>
   <v>       0.00000000       0.00000000       0.23684211 </v>
   <v>       0.00000000       0.00000000       0.26315789 </v>
   <v>       0.00000000       0.00000000       0.28947368 </v>
   <v>       0.00000000       0.00000000       0.31578947 </v>
   <v>       0.00000000       0.00000000       0.34210526 </v>
   <v>       0.00000000       0.00000000       0.36842105 </v>
   <v>       0.00000000       0.00000000       0.39473684 </v>
   <v>       0.00000000       0.00000000       0.42105263 </v>
   <v>       0.00000000       0.00000000       0.44736842 </v>
   <v>       0.00000000       0.00000000       0.47368421 </v>
   <v>       0.00000000       0.00000000       0.50000000 </v>
   <v>       0.01351351       0.00000000       0.50000000 </v>
   <v>       0.02702703       0.00000000       0.50000000 </v>
   <v>       0.04054054       0.00000000       0.50000000 </v>
   <v>       0.05405405       0.00000000       0.50000000 </v>
   <v>       0.06756757       0.00000000       0.50000000 </v>
   <v>       0.08108108       0.00000000       0.50000000 </v>
   <v>       0.09459459       0.00000000       0.50000000 </v>
   <v>       0.10810811       0.00000000       0.50000000 </v>
   <v>       0.12162162       0.00000000       0.50000000 </v>
   <v>       0.13513514       0.00000000       0.50000000 </v>
   <v>       0.14864865       0.00000000       0.50000000 </v>
   <v>       0.16216216       0.00000000       0.50000000 </v>
   <v>       0.17567568       0.00000000       0.50000000 </v>
   <v>       0.18918919       0.00000000       0.50000000 </v>
   <v>       0.20270270       0.00000000       0.50000000 </v>
   <v>       0.21621622       0.00000000       0.50000000 </v>
   <v>       0.22972973       0.00000000       0.50000000 </v>
   <v>       0.24324324       0.00000000       0.50000000 </v>
   <v>       0.25675676       0.00000000       0.50000000 </v>
   <v>       0.27027027       0.00000000       0.50000000 </v>
   <v>       0.28378378       0.00000000       0.50000000 </v>
   <v>       0.29729730       0.00000000       0.50000000 </v>
   <v>       0.31081081       0.00000000       0.50000000 </v>
   <v>       0.32432432       0.00000000       0.50000000 </v>
   <v>       0.33783784       0.00000000       0.50000000 </v>
   <v>       0.35135135       0.00000000       0.50000000 </v>
   <v>       0.36486486       0.00000000       0.50000000 </v>
   <v>       0.37837838       0.00000000       0.50000000 </v>
   <v>       0.39189189       0.00000000       0.50000000 </v>
   <v>       0.40540541       0.00000000       0.50000000 </v>
   <v>       0.41891892       0.00000000       0.50000000 </v>
   <v>       0.43243243       0.00000000       0.50000000 </v>
   <v>       0.44594595       0.00000000       0.50000000 </v>
   <v>       0.45945946       0.00000000       0.50000000 </v>
   <v>       0.47297297       0.00000000       0.50000000 </v>
   <v>       0.48648649       0.00000000       0.50000000 </v>
   <v>       0.50000000       0.00000000       0.50000000 </v>
   <v>       0.49206349       0.01587302       0.50000000 </v>
   <v>       0.48412698       0.03174603       0.50000000 </v>
   <v>       0.47619048       0.04761905       0.50000000 </v>
   <v>       0.46825397       0.06349206       0.50000000 </v>
   <v>       0.46031746       0.07936508       0.50000000 </v>
   <v>       0.45238095       0.09523810       0.50000000 </v>
   <v>       0.44444444       0.11111111       0.50000000 </v>
   <v>       0.43650794       0.12698413       0.50000000 </v>
   <v>       0.42857143       0.14285714       0.50000000 </v>
   <v>       0.42063492       0.15873016       0.50000000 </v>
   <v>       0.41269841       0.17460317       0.50000000 </v>
   <v>       0.40476190       0.19047619       0.50000000 </v>
   <v>       0.39682540       0.20634921       0.50000000 </v>
   <v>       0.38888889       0.22222222       0.50000000 </v>
   <v>       0.38095238       0.23809524       0.50000000 </v>
   <v>       0.37301587       0.25396825       0.50000000 </v>
   <v>       0.36507937       0.26984127       0.50000000 </v>
   <v>       0.35714286       0.28571429       0.50000000 </v>
   <v>       0.34920635       0.30158730       0.50000000 </v>
   <v>       0.34126984       0.31746032       0.50000000 </v>
   <v>       0.33333333       0.33333333       0.50000000 </v>
   <v>       0.32558140       0.32558140       0.50000000 </v>
   <v>       0.31782946       0.31782946       0.50000000 </v>
   <v>       0.31007752       0.31007752       0.50000000 </v>
   <v>       0.30232558       0.30232558       0.50000000 </v>
   <v>       0.29457364       0.29457364       0.50000000 </v>
   <v>       0.28682171       0.28682171       0.50000000 </v>
   <v>       0.27906977       0.27906977       0.50000000 </v>
   <v>       0.27131783       0.27131783       0.50000000 </v>
   <v>       0.26356589       0.26356589       0.50000000 </v>
   <v>       0.25581395       0.25581395       0.50000000 </v>
   <v>       0.24806202       0.24806202       0.50000000 </v>
   <v>       0.24031008       0.24031008       0.50000000 </v>
   <v>       0.23255814       0.23255814       0.50000000 </v>
   <v>       0.22480620       0.22480620       0.50000000 </v>
   <v>       0.21705426       0.21705426       0.50000000 </v>
   <v>       0.20930233       0.20930233       0.50000000 </v>
   <v>       0.20155039       0.20155039       0.50000000 </v>
   <v>       0.19379845       0.19379845       0.50000000 </v>
   <v>       0.18604651       0.18604651       0.50000000 </v>
   <v>       0.17829457       0.17829457       0.50000000 </v>
   <v>       0.17054264       0.17054264       0.50000000 </v>
   <v>       0.16279070       0.16279070       0.50000000 </v>
   <v>       0.15503876       0.15503876       0.50000000 </v>
   <v>       0.14728682       0.14728682       0.50000000 </v>
   <v>       0.13953488       0.13953488       0.50000000 </v>
   <v>       0.13178295       0.13178295       0.50000000 </v>
   <v>       0.12403101       0.12403101       0.50000000 </v>
   <v>       0.11627907       0.11627907       0.50000000 </v>
   <v>       0.10852713       0.10852713       0.50000000 </v>
   <v>       0.10077519       0.10077519       0.50000000 </v>
   <v>       0.09302326       0.09302326       0.50000000 </v>
   <v>       0.08527132       0.08527132       0.50000000 </v>
   <v>       0.07751938       0.07751938       0.50000000 </v>
   <v>       0.06976744       0.06976744       0.50000000 </v>
   <v>       0.06201550       0.06201550       0.50000000 </v>
   <v>       0.05426357       0.05426357       0.50000000 </v>
   <v>       0.04651163       0.04651163       0.50000000 </v>
   <v>       0.03875969       0.03875969       0.50000000 </v>
   <v>       0.03100775       0.03100775       0.50000000 </v>
   <v>       0.02325581       0.02325581       0.50000000 </v>
   <v>       0.01550388       0.01550388       0.50000000 </v>
   <v>       0.00775194       0.00775194       0.50000000 </v>
   <v>       0.00000000       0.00000000       0.50000000 </v>
   <v>       0.50000000       0.00000000       0.50000000 </v>
   <v>       0.50000000       0.00000000       0.47368421 </v>
   <v>       0.50000000       0.00000000       0.44736842 </v>
   <v>       0.50000000       0.00000000       0.42105263 </v>
   <v>       0.50000000       0.00000000       0.39473684 </v>
   <v>       0.50000000       0.00000000       0.36842105 </v>
   <v>       0.50000000       0.00000000       0.34210526 </v>
   <v>       0.50000000       0.00000000       0.31578947 </v>
   <v>       0.50000000       0.00000000       0.28947368 </v>
   <v>       0.50000000       0.00000000       0.26315789 </v>
   <v>       0.50000000       0.00000000       0.23684211 </v>
   <v>       0.50000000       0.00000000       0.21052632 </v>
   <v>       0.50000000       0.00000000       0.18421053 </v>
   <v>       0.50000000       0.00000000       0.15789474 </v>
   <v>       0.50000000       0.00000000       0.13157895 </v>
   <v>       0.50000000       0.00000000       0.10526316 </v>
   <v>       0.50000000       0.00000000       0.07894737 </v>
   <v>       0.50000000       0.00000000       0.05263158 </v>
   <v>       0.50000000       0.00000000       0.02631579 </v>
   <v>       0.50000000       0.00000000       0.00000000 </v>
   <v>       0.33333333       0.33333333       0.50000000 </v>
   <v>       0.33333333       0.33333333       0.47368421 </v>
   <v>       0.33333333       0.33333333       0.44736842 </v>
   <v>       0.33333333       0.33333333       0.42105263 </v>
   <v>       0.33333333       0.33333333       0.39473684 </v>
   <v>       0.33333333       0.33333333       0.36842105 </v>
   <v>       0.33333333       0.33333333       0.34210526 </v>
   <v>       0.33333333       0.33333333       0.31578947 </v>
   <v>       0.33333333       0.33333333       0.28947368 </v>
   <v>       0.33333333       0.33333333       0.26315789 </v>
   <v>       0.33333333       0.33333333       0.23684211 </v>
   <v>       0.33333333       0.33333333       0.21052632 </v>
   <v>       0.33333333       0.33333333       0.18421053 </v>
   <v>       0.33333333       0.33333333       0.15789474 </v>
   <v>       0.33333333       0.33333333       0.13157895 </v>
   <v>       0.33333333       0.33333333       0.10526316 </v>
   <v>       0.33333333       0.33333333       0.07894737 </v>
   <v>       0.33333333       0.33333333       0.05263158 </v>
   <v>       0.33333333       0.33333333       0.02631579 </v>
   <v>       0.33333333       0.33333333       0.00000000 </v>
  </varray>
  <varray name="weights" >
   <v>       0.01388889 </v>
   <v>       0.08333333 </v>
   <v>       0.08333333 </v>
   <v>       0.04166667 </v>
   <v>       0.08333333 </v>
   <v>       0.16666667 </v>
   <v>       0.02777778 </v>
   <v>       0.01388889 </v>
   <v>       0.08333333 </v>
   <v>       0.08333333 </v>
   <v>       0.04166667 </v>
   <v>       0.08333333 </v>
   <v>       0.16666667 </v>
   <v>       0.02777778 </v>
   <v>       0.00000000 </v>
   <v>       0.00000000 </v>
   <v>       0.00000000 </v>
   <v>       0.00000000 </v>
   <v>       0.00000000 </v>
   <v>       0.00000000 </v>
   <v>       0.00000000 </v>
   <v>       0.00000000 </v>
   <v>       0.00000000 </v>
   <v>       0.00000000 </v>
   <v>       0.00000000 </v>
   <v>       0.00000000 </v>
   <v>       0.00000000 </v>
   <v>       0.00000000 </v>
   <v>       0.00000000 </v>
   <v>       0.00000000 </v>
   <v>       0.00000000 </v>
   <v>       0.00000000 </v>
   <v>       0.00000000 </v>
   <v>       0.00000000 </v>
   <v>       0.00000000 </v>
   <v>       0.00000000 </v>
   <v>       0.00000000 </v>
   <v>       0.00000000 </v>
   <v>       0.00000000 </v>
   <v>       0.00000000 </v>
   <v>       0.00000000 </v>
   <v>       0.00000000 </v>
   <v>       0.00000000 </v>
   <v>       0.00000000 </v>
   <v>       0.00000000 </v>
   <v>       0.00000000 </v>
   <v>       0.00000000 </v>
   <v>       0.00000000 </v>
   <v>       0.00000000 </v>
   <v>       0.00000000 </v>
   <v>       0.00000000 </v>
   <v>       0.00000000 </v>
   <v>       0.00000000 </v>
   <v>       0.00000000 </v>
   <v>       0.00000000 </v>
   <v>       0.00000000 </v>
   <v>       0.00000000 </v>
   <v>       0.00000000 </v>
   <v>       0.00000000 </v>
   <v>       0.00000000 </v>
   <v>       0.00000000 </v>
   <v>       0.00000000 </v>
   <v>       0.00000000 </v>
   <v>       0.00000000 </v>
   <v>       0.00000000 </v>
   <v>       0.00000000 </v>
   <v>       0.00000000 </v>
   <v>       0.00000000 </v>
   <v>       0.00000000 </v>
   <v>       0.00000000 </v>
   <v>       0.00000000 </v>
   <v>       0.00000000 </v>
   <v>       0.00000000 </v>
   <v>       0.00000000 </v>
   <v>       0.00000000 </v>
   <v>       0.00000000 </v>
   <v>       0.00000000 </v>
   <v>       0.00000000 </v>
   <v>       0.00000000 </v>
   <v>       0.00000000 </v>
   <v>       0.00000000 </v>
   <v>       0.00000000 </v>
   <v>       0.00000000 </v>
   <v>       0.00000000 </v>
   <v>       0.00000000 </v>
   <v>       0.00000000 </v>
   <v>       0.00000000 </v>
   <v>       0.00000000 </v>
   <v>       0.00000000 </v>
   <v>       0.00000000 </v>
   <v>       0.00000000 </v>
   <v>       0.00000000 </v>
   <v>       0.00000000 </v>
   <v>       0.00000000 </v>
   <v>       0.00000000 </v>
   <v>       0.00000000 </v>
   <v>       0.00000000 </v>
   <v>       0.00000000 </v>
   <v>       0.00000000 </v>
   <v>       0.00000000 </v>
   <v>       0.00000000 </v>
   <v>       0.00000000 </v>
   <v>       0.00000000 </v>
   <v>       0.00000000 </v>
   <v>       0.00000000 </v>
   <v>       0.00000000 </v>
   <v>       0.00000000 </v>
   <v>       0.00000000 </v>
   <v>       0.00000000 </v>
   <v>       0.00000000 </v>
   <v>       0.00000000 </v>
   <v>       0.00000000 </v>
   <v>       0.00000000 </v>
   <v>       0.00000000 </v>
   <v>       0.00000000 </v>
   <v>       0.00000000 </v>
   <v>       0.00000000 </v>
   <v>       0.00000000 </v>
   <v>       0.00000000 </v>
   <v>       0.00000000 </v>
   <v>       0.00000000 </v>
   <v>       0.00000000 </v>
   <v>       0.00000000 </v>
   <v>       0.00000000 </v>
   <v>       0.00000000 </v>
   <v>       0.00000000 </v>
   <v>       0.00000000 </v>
   <v>       0.00000000 </v>
   <v>       0.00000000 </v>
   <v>       0.00000000 </v>
   <v>       0.00000000 </v>
   <v>       0.00000000 </v>
   <v>       0.00000000 </v>
   <v>       0.00000000 </v>
   <v>       0.00000000 </v>
   <v>       0.00000000 </v>
   <v>       0.00000000 </v>
   <v>       0.00000000 </v>
   <v>       0.00000000 </v>
   <v>       0.00000000 </v>
   <v>       0.00000000 </v>
   <v>       0.00000000 </v>
   <v>       0.00000000 </v>
   <v>       0.00000000 </v>
   <v>       0.00000000 </v>
   <v>       0.00000000 </v>
   <v>       0.00000000 </v>
   <v>       0.00000000 </v>
   <v>       0.00000000 </v>
   <v>       0.00000000 </v>
   <v>       0.00000000 </v>
   <v>       0.00000000 </v>
   <v>       0.00000000 </v>
   <v>       0.00000000 </v>
   <v>       0.00000000 </v>
   <v>       0.00000000 </v>
   <v>       0.00000000 </v>
   <v>       0.00000000 </v>
   <v>       0.00000000 </v>
   <v>       0.00000000 </v>
   <v>       0.00000000 </v>
   <v>       0.00000000 </v>
   <v>       0.00000000 </v>
   <v>       0.00000000 </v>
   <v>       0.00000000 </v>
   <v>       0.00000000 </v>
   <v>       0.00000000 </v>
   <v>       0.00000000 </v>
   <v>       0.00000000 </v>
   <v>       0.00000000 </v>
   <v>       0.00000000 </v>
   <v>       0.00000000 </v>
   <v>       0.00000000 </v>
   <v>       0.00000000 </v>
   <v>       0.00000000 </v>
   <v>       0.00000000 </v>
   <v>       0.00000000 </v>
   <v>       0.00000000 </v>
   <v>       0.00000000 </v>
   <v>       0.00000000 </v>
   <v>       0.00000000 </v>
   <v>       0.00000000 </v>
   <v>       0.00000000 </v>
   <v>       0.00000000 </v>
   <v>       0.00000000 </v>
   <v>       0.00000000 </v>
   <v>       0.00000000 </v>
   <v>       0.00000000 </v>
   <v>       0.00000000 </v>
   <v>       0.00000000 </v>
   <v>       0.00000000 </v>
   <v>       0.00000000 </v>
   <v>       0.00000000 </v>
   <v>       0.00000000 </v>
   <v>       0.00000000 </v>
   <v>       0.00000000 </v>
   <v>       0.00000000 </v>
   <v>       0.00000000 </v>
   <v>       0.00000000 </v>
   <v>       0.00000000 </v>
   <v>       0.00000000 </v>
   <v>       0.00000000 </v>
   <v>       0.00000000 </v>
   <v>       0.00000000 </v>
   <v>       0.00000000 </v>
   <v>       0.00000000 </v>
   <v>       0.00000000 </v>
   <v>       0.00000000 </v>
   <v>       0.00000000 </v>
   <v>       0.00000000 </v>
   <v>       0.00000000 </v>
   <v>       0.00000000 </v>
   <v>       0.00000000 </v>
   <v>       0.00000000 </v>
   <v>       0.00000000 </v>
   <v>       0.00000000 </v>
   <v>       0.00000000 </v>
   <v>       0.00000000 </v>
   <v>       0.00000000 </v>
   <v>       0.00000000 </v>
   <v>       0.00000000 </v>
   <v>       0.00000000 </v>
   <v>       0.00000000 </v>
   <v>       0.00000000 </v>
   <v>       0.00000000 </v>
   <v>       0.00000000 </v>
   <v>       0.00000000 </v>
   <v>       0.00000000 </v>
   <v>       0.00000000 </v>
   <v>       0.00000000 </v>
   <v>       0.00000000 </v>
   <v>       0.00000000 </v>
   <v>       0.00000000 </v>
   <v>       0.00000000 </v>
   <v>       0.00000000 </v>
   <v>       0.00000000 </v>
   <v>       0.00000000 </v>
   <v>       0.00000000 </v>
   <v>       0.00000000 </v>
   <v>       0.00000000 </v>
   <v>       0.00000000 </v>
   <v>       0.00000000 </v>
   <v>       0.00000000 </v>
   <v>       0.00000000 </v>
   <v>       0.00000000 </v>
   <v>       0.00000000 </v>
   <v>       0.00000000 </v>
   <v>       0.00000000 </v>
   <v>       0.00000000 </v>
   <v>       0.00000000 </v>
   <v>       0.00000000 </v>
   <v>       0.00000000 </v>
   <v>       0.00000000 </v>
   <v>       0.00000000 </v>
   <v>       0.00000000 </v>
   <v>       0.00000000 </v>
   <v>       0.00000000 </v>
   <v>       0.00000000 </v>
   <v>       0.00000000 </v>
   <v>       0.00000000 </v>
   <v>       0.00000000 </v>
   <v>       0.00000000 </v>
   <v>       0.00000000 </v>
   <v>       0.00000000 </v>
   <v>       0.00000000 </v>
   <v>       0.00000000 </v>
   <v>       0.00000000 </v>
   <v>       0.00000000 </v>
   <v>       0.00000000 </v>
   <v>       0.00000000 </v>
   <v>       0.00000000 </v>
   <v>       0.00000000 </v>
   <v>       0.00000000 </v>
   <v>       0.00000000 </v>
   <v>       0.00000000 </v>
   <v>       0.00000000 </v>
  </varray>
  <kpoints_labels>
   <i name="None" type="int">       1 </i>
   <i name="None" type="int">       2 </i>
   <i name="None" type="int">       3 </i>
   <i name="None" type="int">       4 </i>
   <i name="None" type="int">       5 </i>
   <i name="None" type="int">       6 </i>
   <i name="None" type="int">       7 </i>
   <i name="None" type="int">       8 </i>
   <i name="None" type="int">       9 </i>
   <i name="None" type="int">      10 </i>
   <i name="None" type="int">      11 </i>
   <i name="None" type="int">      12 </i>
   <i name="None" type="int">      13 </i>
   <i name="None" type="int">      14 </i>
   <i name="GAMMA" type="int">      15 </i>
   <i name="M" type="int">      52 </i>
   <i name="K" type="int">      73 </i>
   <i name="GAMMA" type="int">     116 </i>
   <i name="A" type="int">     135 </i>
   <i name="L" type="int">     172 </i>
   <i name="H" type="int">     193 </i>
   <i name="A" type="int">     236 </i>
   <i name="L" type="int">     237 </i>
   <i name="M" type="int">     256 </i>
   <i name="H" type="int">     257 </i>
   <i name="K" type="int">     276 </i>
  </kpoints_labels>
 </kpoints>
 <parameters>
  <separator name="general" >
   <i type="string" name="SYSTEM">unknown system</i>
   <i type="logical" name="LCOMPAT"> F  </i>
  </separator>
  <separator name="electronic" >
   <i type="string" name="PREC">normal</i>
   <i name="ENMAX">    276.72300000</i>
   <i name="ENAUG">    575.89200000</i>
   <i name="EDIFF">      0.00001000</i>
   <i type="int" name="IALGO">    38</i>
   <i type="int" name="IWAVPR">    11</i>
   <i type="int" name="NBANDS">    34</i>
   <i type="int" name="NBANDSLOW">    -1</i>
   <i type="int" name="NBANDSHIGH">    -1</i>
   <i name="NELECT">     36.00000000</i>
   <i type="int" name="TURBO">     0</i>
   <i type="int" name="IRESTART">     0</i>
   <i type="int" name="NREBOOT">     0</i>
   <i type="int" name="NMIN">     0</i>
   <i name="EREF">      0.00000000</i>
   <separator name="electronic smearing" >
    <i type="int" name="ISMEAR">     0</i>
    <i name="SIGMA">      0.10000000</i>
    <i name="KSPACING">      0.50000000</i>
    <i type="logical" name="KGAMMA"> T  </i>
    <i type="logical" name="KBLOWUP"> T  </i>
   </separator>
   <separator name="electronic projectors" >
    <i type="logical" name="LREAL"> F  </i>
    <v name="ROPT">      0.00000000      0.00000000</v>
    <i type="int" name="LMAXPAW">  -100</i>
    <i type="int" name="LMAXMIX">     2</i>
    <i type="logical" name="NLSPLINE"> F  </i>
   </separator>
   <separator name="electronic startup" >
    <i type="int" name="ISTART">     0</i>
    <i type="int" name="ICHARG">     2</i>
    <i type="int" name="INIWAV">     1</i>
   </separator>
   <separator name="electronic spin" >
    <i type="int" name="ISPIN">     1</i>
    <i type="logical" name="LNONCOLLINEAR"> F  </i>
    <v name="MAGMOM">      1.00000000      1.00000000      1.00000000      1.00000000</v>
    <i name="NUPDOWN">     -1.00000000</i>
    <i type="logical" name="LSORBIT"> F  </i>
    <v name="SAXIS">      0.00000000      0.00000000      1.00000000</v>
    <i type="logical" name="LSPIRAL"> F  </i>
    <v name="QSPIRAL">      0.00000000      0.00000000      0.00000000</v>
    <i type="logical" name="LZEROZ"> F  </i>
   </separator>
   <separator name="electronic exchange-correlation" >
    <i type="logical" name="LASPH"> T  </i>
   </separator>
   <separator name="electronic convergence" >
    <i type="int" name="NELM">   100</i>
    <i type="int" name="NELMDL">    -5</i>
    <i type="int" name="NELMIN">     2</i>
    <i name="ENINI">    276.72300000</i>
    <separator name="electronic convergence detail" >
     <i type="logical" name="LDIAG"> T  </i>
     <i type="logical" name="LSUBROT"> F  </i>
     <i type="logical" name="LROBUST"> F  </i>
     <i type="int" name="ISEARCH">     0</i>
     <i name="WEIMIN">      0.00100000</i>
     <i name="EBREAK">      0.00000007</i>
     <i name="DEPER">      0.30000000</i>
     <i type="int" name="NRMM">     4</i>
     <i name="TIME">      0.40000000</i>
    </separator>
   </separator>
   <separator name="electronic mixer" >
    <i name="AMIX">      0.40000000</i>
    <i name="BMIX">      1.00000000</i>
    <i name="AMIN">      0.10000000</i>
    <i name="AMIX_MAG">      1.60000000</i>
    <i name="BMIX_MAG">      1.00000000</i>
    <separator name="electronic mixer details" >
     <i type="int" name="IMIX">     4</i>
     <i type="logical" name="MIXFIRST"> F  </i>
     <i type="int" name="MAXMIX">   -45</i>
     <i name="WC">    100.00000000</i>
     <i type="int" name="INIMIX">     1</i>
     <i type="int" name="MIXPRE">     1</i>
     <i type="int" name="MREMOVE">     5</i>
    </separator>
   </separator>
   <separator name="electronic dipolcorrection" >
    <i type="logical" name="LDIPOL"> F  </i>
    <i type="logical" name="LMONO"> F  </i>
    <i type="int" name="IDIPOL">     0</i>
    <i name="EPSILON">      1.00000000</i>
    <v name="DIPOL">   -100.00000000   -100.00000000   -100.00000000</v>
    <i name="EFIELD">      0.00000000</i>
    <i type="logical" name="LVACPOTAV"> F  </i>
   </separator>
  </separator>
  <separator name="grids" >
   <i type="int" name="NGX">    16</i>
   <i type="int" name="NGY">    16</i>
   <i type="int" name="NGZ">    28</i>
   <i type="int" name="NGXF">    32</i>
   <i type="int" name="NGYF">    32</i>
   <i type="int" name="NGZF">    56</i>
   <i type="logical" name="ADDGRID"> F  </i>
  </separator>
  <separator name="ionic" >
   <i type="int" name="NSW">     1</i>
   <i type="int" name="IBRION">     2</i>
   <i type="int" name="MDALGO">     0</i>
   <i type="int" name="ISIF">     0</i>
   <i name="PSTRESS">      0.00000000</i>
   <i name="EDIFFG">      0.00010000</i>
   <i type="int" name="NFREE">     1</i>
   <i name="POTIM">      0.50000000</i>
   <i name="SMASS">     -3.00000000</i>
   <i name="SCALEE">      1.00000000</i>
  </separator>
  <separator name="ionic md" >
   <i name="TEBEG">      0.00010000</i>
   <i name="TEEND">      0.00010000</i>
   <i type="int" name="NBLOCK">     1</i>
   <i type="int" name="KBLOCK">     1</i>
   <i type="int" name="NPACO">   256</i>
   <i name="APACO">     10.00000000</i>
  </separator>
  <separator name="symmetry" >
   <i type="int" name="ISYM">     2</i>
   <i name="SYMPREC">      0.00001000</i>
  </separator>
  <separator name="dos" >
   <i type="int" name="LORBIT">    10</i>
   <v name="RWIGS">     -1.00000000     -1.00000000</v>
   <i type="int" name="NEDOS">   301</i>
   <i name="EMIN">     10.00000000</i>
   <i name="EMAX">    -10.00000000</i>
   <i name="EFERMI">      0.00000000</i>
  </separator>
  <separator name="writing" >
   <i type="int" name="NWRITE">     2</i>
   <i type="logical" name="LWAVE"> F  </i>
   <i type="logical" name="LDOWNSAMPLE"> F  </i>
   <i type="logical" name="LCHARG"> F  </i>
   <i type="logical" name="LPARD"> F  </i>
   <i type="logical" name="LVTOT"> F  </i>
   <i type="logical" name="LVHAR"> F  </i>
   <i type="logical" name="LELF"> F  </i>
   <i type="logical" name="LOPTICS"> F  </i>
   <v name="STM">      0.00000000      0.00000000      0.00000000      0.00000000      0.00000000      0.00000000      0.00000000</v>
  </separator>
  <separator name="performance" >
   <i type="int" name="NPAR">     1</i>
   <i type="int" name="NSIM">     4</i>
   <i type="int" name="NBLK">    -1</i>
   <i type="logical" name="LPLANE"> T  </i>
   <i type="logical" name="LSCALAPACK"> T  </i>
   <i type="logical" name="LSCAAWARE"> F  </i>
   <i type="logical" name="LSCALU"> F  </i>
   <i type="logical" name="LASYNC"> F  </i>
   <i type="logical" name="LORBITALREAL"> F  </i>
  </separator>
  <separator name="miscellaneous" >
   <i type="int" name="IDIOT">     3</i>
   <i type="int" name="PHON_NSTRUCT">    -1</i>
   <i type="logical" name="LMUSIC"> F  </i>
   <v name="POMASS">     65.39000000     32.06600000</v>
   <v name="DARWINR">      0.00000000      0.00000000</v>
   <v name="DARWINV">      1.00000000      1.00000000</v>
   <i type="logical" name="LCORR"> T  </i>
  </separator>
  <i type="logical" name="GGA_COMPAT"> T  </i>
  <i type="logical" name="LBERRY"> F  </i>
  <i type="int" name="ICORELEVEL">     0</i>
  <i type="logical" name="LDAU"> F  </i>
  <i type="int" name="I_CONSTRAINED_M">     0</i>
  <separator name="electronic exchange-correlation" >
   <i type="string" name="GGA    ">PS</i>
   <i type="string" name="XC_C">1</i>
   <i type="int" name="VOSKOWN">     0</i>
   <i type="logical" name="LHFCALC"> F  </i>
   <i type="string" name="PRECFOCK"></i>
   <i type="logical" name="LSYMGRAD"> F  </i>
   <i type="logical" name="LHFONE"> F  </i>
   <i type="logical" name="LRHFCALC"> F  </i>
   <i type="logical" name="LTHOMAS"> F  </i>
   <i type="logical" name="LMODELHF"> F  </i>
   <i type="logical" name="LFOCKACE"> F  </i>
   <i name="ENCUT4O">     -1.00000000</i>
   <i type="int" name="EXXOEP">     0</i>
   <i type="int" name="FOURORBIT">     0</i>
   <i name="AEXX">      0.00000000</i>
   <i name="HFALPHA">      0.00000000</i>
   <i name="MCALPHA">      0.00000000</i>
   <i name="ALDAX">      1.00000000</i>
   <i name="AGGAX">      1.00000000</i>
   <i name="AMGGAX">      1.00000000</i>
   <i name="ALDAC">      1.00000000</i>
   <i name="AGGAC">      1.00000000</i>
   <i name="AMGGAC">      1.00000000</i>
   <i type="int" name="NKREDX">     1</i>
   <i type="int" name="NKREDY">     1</i>
   <i type="int" name="NKREDZ">     1</i>
   <i type="logical" name="SHIFTRED"> F  </i>
   <i type="logical" name="ODDONLY"> F  </i>
   <i type="logical" name="EVENONLY"> F  </i>
   <i type="int" name="LMAXFOCK">     0</i>
   <i type="int" name="NMAXFOCKAE">     0</i>
   <i type="logical" name="LFOCKAEDFT"> F  </i>
   <i name="HFSCREEN">      0.00000000</i>
   <i name="HFSCREENC">      0.00000000</i>
   <i type="int" name="NBANDSGWLOW">     0</i>
  </separator>
  <separator name="vdW DFT" >
   <i type="logical" name="LUSE_VDW"> F  </i>
   <i type="int" name="IVDW_NL">    -1</i>
   <i type="logical" name="LSPIN_VDW"> F  </i>
   <i name="ZAB_VDW">     -0.84910000</i>
   <i name="GAMMA_VDW">      1.39626340</i>
   <i name="ALPHA_VDW">      0.00000000</i>
   <i name="PARAM1">      0.12340000</i>
   <i name="PARAM2">      1.00000000</i>
   <i name="BPARAM">      6.30000000</i>
   <i name="CPARAM">      0.00930000</i>
  </separator>
  <separator name="model GW" >
   <i type="int" name="MODEL_GW">     0</i>
   <i name="MODEL_EPS0">     11.52642926</i>
   <i name="MODEL_ALPHA">      1.00000000</i>
  </separator>
  <separator name="linear response parameters" >
   <i type="logical" name="LEPSILON"> F  </i>
   <i type="logical" name="LRPA"> F  </i>
   <i type="logical" name="LNABLA"> F  </i>
   <i type="logical" name="LVEL"> F  </i>
   <i name="CSHIFT">      0.10000000</i>
   <i name="OMEGAMAX">     -1.00000000</i>
   <i name="DEG_THRESHOLD">      0.00200000</i>
   <i name="RTIME">     -0.10000000</i>
   <i name="WPLASMAI">      0.00000000</i>
   <v name="DFIELD">      0.00000000      0.00000000      0.00000000</v>
   <v name="WPLASMA">      0.00000000      0.00000000      0.00000000      0.00000000      0.00000000      0.00000000      0.00000000      0.00000000      0.00000000</v>
  </separator>
  <separator name="orbital magnetization" >
   <i type="logical" name="NUCIND"> F  </i>
   <v name="MAGPOS">      0.00000000      0.00000000      0.00000000</v>
   <i type="logical" name="LNICSALL"> T  </i>
   <i type="logical" name="ORBITALMAG"> F  </i>
   <i type="logical" name="LMAGBLOCH"> F  </i>
   <i type="logical" name="LCHIMAG"> F  </i>
   <i type="logical" name="LGAUGE"> T  </i>
   <i type="int" name="MAGATOM">     0</i>
   <v name="MAGDIPOL">      0.00000000      0.00000000      0.00000000</v>
   <v name="AVECCONST">      0.00000000      0.00000000      0.00000000</v>
  </separator>
  <separator name="response functions" >
   <i type="logical" name="LALL_IN_ONE"> F  </i>
   <i type="int" name="IALL_IN_ONE">    -1</i>
   <i type="int" name="NBANDS_WAVE">    -1</i>
   <i type="logical" name="LFINITE_TEMPERATURE"> F  </i>
   <i type="logical" name="LADDER"> F  </i>
   <i type="logical" name="LRPAFORCE"> F  </i>
   <i type="logical" name="LFXC"> F  </i>
   <i type="logical" name="LHARTREE"> T  </i>
   <i type="int" name="IBSE">     2</i>
   <v type="int" name="KPOINT">    -1     0     0     0</v>
   <i type="logical" name="LTCTC"> F  </i>
   <i type="logical" name="LTCTE"> F  </i>
   <i type="logical" name="LTETE"> F  </i>
   <i type="logical" name="LTRIPLET"> F  </i>
   <i type="logical" name="LFXCEPS"> F  </i>
   <i type="logical" name="LFXHEG"> F  </i>
   <i type="int" name="NATURALO">     2</i>
   <i type="logical" name="LHOLEGF"> F  </i>
   <i type="logical" name="L2ORDER"> F  </i>
   <i type="logical" name="LDMP1"> F  </i>
   <i type="logical" name="LMP2LT"> F  </i>
   <i type="logical" name="LSMP2LT"> F  </i>
   <i type="logical" name="LGWLF"> F  </i>
   <i name="ENCUTGW">     -1.60000002</i>
   <i name="ENCUTGWSOFT">     -1.60000002</i>
   <i name="ENCUTLF">     -1.00000000</i>
   <i type="logical" name="ESF_SPLINES"> F  </i>
   <i name="ESF_CONV">      0.01000000</i>
   <i type="int" name="ESF_NINTER">    15</i>
   <i type="int" name="LMAXMP2">    -1</i>
   <i name="SCISSOR">      0.00000000</i>
   <i type="int" name="NOMEGA">     0</i>
   <i type="int" name="NOMEGAR">     0</i>
   <i type="int" name="NBANDSGW">    -1</i>
   <i type="int" name="NBANDSO">    -1</i>
   <i type="int" name="NBANDSV">    -1</i>
   <i type="int" name="NELMGW">     1</i>
   <i type="int" name="NELMHF">     1</i>
   <i type="int" name="DIM">     3</i>
   <i type="int" name="IESPILON">     4</i>
   <i type="int" name="ANTIRES">     0</i>
   <i name="OMEGAMAX">    -30.00000000</i>
   <i name="OMEGAMIN">    -30.00000000</i>
   <i name="OMEGATL">   -200.00000000</i>
   <i type="int" name="OMEGAGRID">     0</i>
   <i name="CSHIFT">     -0.10000000</i>
   <i type="logical" name="LSELFENERGY"> F  </i>
   <i type="logical" name="LSPECTRAL"> F  </i>
   <i type="logical" name="LSPECTRALGW"> F  </i>
   <i type="logical" name="LSINGLES"> F  </i>
   <i type="logical" name="LFERMIGW"> F  </i>
   <i type="logical" name="ODDONLYGW"> F  </i>
   <i type="logical" name="EVENONLYGW"> F  </i>
   <i type="int" name="NKREDLFX">     1</i>
   <i type="int" name="NKREDLFY">     1</i>
   <i type="int" name="NKREDLFZ">     1</i>
   <i type="int" name="MAXMEM">  2800</i>
   <i type="int" name="TELESCOPE">     0</i>
   <i type="int" name="NTAUPAR">    -1</i>
   <i type="int" name="NOMEGAPAR">    -1</i>
   <i name="DAMP_NEWTON">      0.80000001</i>
   <i name="LAMBDA">      1.00000000</i>
  </separator>
  <separator name="External order field" >
   <i name="OFIELD_KAPPA">      0.00000000</i>
   <v name="OFIELD_K">      0.00000000      0.00000000      0.00000000</v>
   <i name="OFIELD_Q6_NEAR">      0.00000000</i>
   <i name="OFIELD_Q6_FAR">      0.00000000</i>
   <i name="OFIELD_A">      0.00000000</i>
  </separator>
  <separator name="optional k-points parameters" >
   <i type="int" name="KPOINTS_OPT_MODE">     1</i>
   <i type="logical" name="LKPOINTS_OPT"> F  </i>
  </separator>
 </parameters>
 <atominfo>
  <atoms>       4 </atoms>
  <types>       2 </types>
  <array name="atoms" >
   <dimension dim="1">ion</dimension>
   <field type="string">element</field>
   <field type="int">atomtype</field>
   <set>
    <rc><c>Zn</c><c>   1</c></rc>
    <rc><c>Zn</c><c>   1</c></rc>
    <rc><c>S </c><c>   2</c></rc>
    <rc><c>S </c><c>   2</c></rc>
   </set>
  </array>
  <array name="atomtypes" >
   <dimension dim="1">type</dimension>
   <field type="int">atomspertype</field>
   <field type="string">element</field>
   <field>mass</field>
   <field>valence</field>
   <field type="string">pseudopotential</field>
   <set>
    <rc><c>   2</c><c>Zn</c><c>     65.39000000</c><c>     12.00000000</c><c>  PAW_PBE Zn 06Sep2000                  </c></rc>
    <rc><c>   2</c><c>S </c><c>     32.06600000</c><c>      6.00000000</c><c>  PAW_PBE S 06Sep2000                   </c></rc>
   </set>
  </array>
 </atominfo>
 <structure name="initialpos" >
  <crystal>
   <varray name="basis" >
    <v>       3.78158387       0.00000000       0.00000000 </v>
    <v>      -1.89079194       3.27494770       0.00000000 </v>
    <v>       0.00000000       0.00000000       6.20476623 </v>
   </varray>
   <i name="volume">     76.84286172 </i>
   <varray name="rec_basis" >
    <v>       0.26443946       0.15267419      -0.00000000 </v>
    <v>       0.00000000       0.30534839       0.00000000 </v>
    <v>       0.00000000      -0.00000000       0.16116643 </v>
   </varray>
  </crystal>
  <varray name="positions" >
   <v>       0.66666667       0.33333333       0.50040087 </v>
   <v>       0.33333333       0.66666667       0.00040087 </v>
   <v>       0.66666667       0.33333333       0.87459913 </v>
   <v>       0.33333333       0.66666667       0.37459913 </v>
  </varray>
 </structure>
 <calculation>
  <scstep>
   <time name="dav">    4.21    4.23</time>
   <time name="total">    4.31    4.33</time>
   <energy>
    <i name="alphaZ">    147.15733780 </i>
    <i name="ewald">  -2526.08836804 </i>
    <i name="hartreedc">  -1371.32612577 </i>
    <i name="XCdc">    140.97932143 </i>
    <i name="pawpsdc">   3343.44361914 </i>
    <i name="pawaedc">  -3692.01684003 </i>
    <i name="eentropy">     -0.00236365 </i>
    <i name="bandstr">    104.34688038 </i>
    <i name="atom">   4048.05923486 </i>
    <i name="e_fr_energy">    194.55269611 </i>
    <i name="e_wo_entrp">    194.55505976 </i>
    <i name="e_0_energy">    194.55387793 </i>
   </energy>
  </scstep>
  <scstep>
   <time name="dav">    4.14    4.15</time>
   <time name="total">    4.14    4.15</time>
   <energy>
    <i name="e_fr_energy">      3.91832788 </i>
    <i name="e_wo_entrp">      3.91832788 </i>
    <i name="e_0_energy">      3.91832788 </i>
   </energy>
  </scstep>
  <scstep>
   <time name="dav">    4.59    4.61</time>
   <time name="total">    4.59    4.61</time>
   <energy>
    <i name="e_fr_energy">    -15.58084220 </i>
    <i name="e_wo_entrp">    -15.58084220 </i>
    <i name="e_0_energy">    -15.58084220 </i>
   </energy>
  </scstep>
  <scstep>
   <time name="dav">    4.53    4.55</time>
   <time name="total">    4.54    4.55</time>
   <energy>
    <i name="e_fr_energy">    -15.94743075 </i>
    <i name="e_wo_entrp">    -15.94743075 </i>
    <i name="e_0_energy">    -15.94743075 </i>
   </energy>
  </scstep>
  <scstep>
   <time name="dav">    4.77    4.87</time>
   <time name="total">    5.22    5.40</time>
   <energy>
    <i name="e_fr_energy">    -15.95052950 </i>
    <i name="e_wo_entrp">    -15.95052950 </i>
    <i name="e_0_energy">    -15.95052950 </i>
   </energy>
  </scstep>
  <scstep>
   <time name="dav">    5.31    5.33</time>
   <time name="total">    5.67    5.69</time>
   <energy>
    <i name="e_fr_energy">    -15.17318393 </i>
    <i name="e_wo_entrp">    -15.17318393 </i>
    <i name="e_0_energy">    -15.17318393 </i>
   </energy>
  </scstep>
  <scstep>
   <time name="dav">    4.50    4.52</time>
   <time name="total">    4.86    4.87</time>
   <energy>
    <i name="e_fr_energy">    -15.14272057 </i>
    <i name="e_wo_entrp">    -15.14272057 </i>
    <i name="e_0_energy">    -15.14272057 </i>
   </energy>
  </scstep>
  <scstep>
   <time name="dav">    4.45    4.46</time>
   <time name="total">    4.80    4.82</time>
   <energy>
    <i name="e_fr_energy">    -15.13671312 </i>
    <i name="e_wo_entrp">    -15.13671312 </i>
    <i name="e_0_energy">    -15.13671312 </i>
   </energy>
  </scstep>
  <scstep>
   <time name="dav">    4.51    4.52</time>
   <time name="total">    4.86    4.87</time>
   <energy>
    <i name="e_fr_energy">    -15.13606507 </i>
    <i name="e_wo_entrp">    -15.13606507 </i>
    <i name="e_0_energy">    -15.13606507 </i>
   </energy>
  </scstep>
  <scstep>
   <time name="dav">    4.58    4.59</time>
   <time name="total">    4.93    4.95</time>
   <energy>
    <i name="e_fr_energy">    -15.13614530 </i>
    <i name="e_wo_entrp">    -15.13614530 </i>
    <i name="e_0_energy">    -15.13614530 </i>
   </energy>
  </scstep>
  <scstep>
   <time name="dav">    4.27    4.29</time>
   <time name="total">    4.62    4.64</time>
   <energy>
    <i name="e_fr_energy">    -15.13624819 </i>
    <i name="e_wo_entrp">    -15.13624819 </i>
    <i name="e_0_energy">    -15.13624819 </i>
   </energy>
  </scstep>
  <scstep>
   <time name="dav">    4.34    4.35</time>
   <time name="total">    4.41    4.43</time>
   <energy>
    <i name="alphaZ">    147.15733780 </i>
    <i name="ewald">  -2526.08836804 </i>
    <i name="hartreedc">  -1354.92037801 </i>
    <i name="XCdc">    141.05177797 </i>
    <i name="pawpsdc">   4373.28275746 </i>
    <i name="pawaedc">  -4722.76067773 </i>
    <i name="eentropy">     -0.00000000 </i>
    <i name="bandstr">   -120.91793811 </i>
    <i name="atom">   4048.05923486 </i>
    <i name="e_fr_energy">    -15.13625382 </i>
    <i name="e_wo_entrp">    -15.13625382 </i>
    <i name="e_0_energy">    -15.13625382 </i>
   </energy>
  </scstep>
  <structure>
   <crystal>
    <varray name="basis" >
     <v>       3.78158387       0.00000000       0.00000000 </v>
     <v>      -1.89079194       3.27494770       0.00000000 </v>
     <v>       0.00000000       0.00000000       6.20476623 </v>
    </varray>
    <i name="volume">     76.84286172 </i>
    <varray name="rec_basis" >
     <v>       0.26443946       0.15267419      -0.00000000 </v>
     <v>       0.00000000       0.30534839       0.00000000 </v>
     <v>       0.00000000      -0.00000000       0.16116643 </v>
    </varray>
   </crystal>
   <varray name="positions" >
    <v>       0.66666667       0.33333333       0.50040087 </v>
    <v>       0.33333333       0.66666667       0.00040087 </v>
    <v>       0.66666667       0.33333333       0.87459913 </v>
    <v>       0.33333333       0.66666667       0.37459913 </v>
   </varray>
  </structure>
  <varray name="forces" >
   <v>       0.00000000       0.00000000       0.00146381 </v>
   <v>      -0.00000000      -0.00000000       0.00146381 </v>
   <v>      -0.00000000       0.00000000      -0.00146381 </v>
   <v>       0.00000000      -0.00000000      -0.00146381 </v>
  </varray>
  <energy>
   <i name="e_fr_energy">    -15.13625382 </i>
   <i name="e_wo_entrp">    -15.13625382 </i>
   <i name="e_0_energy">    -15.13625382 </i>
  </energy>
  <time name="totalsc">   58.64   59.03</time>
  <eigenvalues>
   <array>
    <dimension dim="1">band</dimension>
    <dimension dim="2">kpoint</dimension>
    <dimension dim="3">spin</dimension>
    <field>eigene</field>
    <field>occ</field>
    <set>
     <set comment="spin 1">
      <set comment="kpoint 1">
       <r>  -11.0565    1.0000 </r>
       <r>  -10.1351    1.0000 </r>
       <r>   -4.2006    1.0000 </r>
       <r>   -4.1786    1.0000 </r>
       <r>   -4.1785    1.0000 </r>
       <r>   -4.0991    1.0000 </r>
       <r>   -4.0990    1.0000 </r>
       <r>   -3.7545    1.0000 </r>
       <r>   -3.7078    1.0000 </r>
       <r>   -3.7078    1.0000 </r>
       <r>   -3.6305    1.0000 </r>
       <r>   -3.6305    1.0000 </r>
       <r>   -2.8675    1.0000 </r>
       <r>    1.3827    1.0000 </r>
       <r>    1.3827    1.0000 </r>
       <r>    1.8322    1.0000 </r>
       <r>    2.2530    1.0000 </r>
       <r>    2.2530    1.0000 </r>
       <r>    4.7778    0.0000 </r>
       <r>    5.3563    0.0000 </r>
       <r>    8.5283    0.0000 </r>
       <r>    8.5283    0.0000 </r>
       <r>    8.6481    0.0000 </r>
       <r>    9.8299    0.0000 </r>
       <r>    9.8300    0.0000 </r>
       <r>   11.2468    0.0000 </r>
       <r>   12.4497    0.0000 </r>
       <r>   12.4498    0.0000 </r>
       <r>   13.4013    0.0000 </r>
       <r>   14.7257    0.0000 </r>
       <r>   14.7258    0.0000 </r>
       <r>   15.2514    0.0000 </r>
       <r>   15.7256    0.0000 </r>
       <r>   17.9788    0.0000 </r>
      </set>
      <set comment="kpoint 2">
       <r>  -10.8651    1.0000 </r>
       <r>  -10.0241    1.0000 </r>
       <r>   -4.2067    1.0000 </r>
       <r>   -4.1554    1.0000 </r>
       <r>   -4.1415    1.0000 </r>
       <r>   -4.0785    1.0000 </r>
       <r>   -4.0446    1.0000 </r>
       <r>   -3.7959    1.0000 </r>
       <r>   -3.7274    1.0000 </r>
       <r>   -3.7070    1.0000 </r>
       <r>   -3.6226    1.0000 </r>
       <r>   -3.5372    1.0000 </r>
       <r>   -2.6836    1.0000 </r>
       <r>    0.1171    1.0000 </r>
       <r>    0.7845    1.0000 </r>
       <r>    0.9703    1.0000 </r>
       <r>    1.8595    1.0000 </r>
       <r>    2.0054    1.0000 </r>
       <r>    5.7308    0.0000 </r>
       <r>    6.3326    0.0000 </r>
       <r>    8.0180    0.0000 </r>
       <r>    8.8254    0.0000 </r>
       <r>    9.0298    0.0000 </r>
       <r>    9.5604    0.0000 </r>
       <r>   10.6575    0.0000 </r>
       <r>   10.6725    0.0000 </r>
       <r>   11.4909    0.0000 </r>
       <r>   12.1379    0.0000 </r>
       <r>   14.8543    0.0000 </r>
       <r>   15.5617    0.0000 </r>
       <r>   15.5901    0.0000 </r>
       <r>   16.4294    0.0000 </r>
       <r>   17.0339    0.0000 </r>
       <r>   17.7732    0.0000 </r>
      </set>
      <set comment="kpoint 3">
       <r>  -10.4051    1.0000 </r>
       <r>   -9.8192    1.0000 </r>
       <r>   -4.2087    1.0000 </r>
       <r>   -4.1091    1.0000 </r>
       <r>   -4.0841    1.0000 </r>
       <r>   -3.9479    1.0000 </r>
       <r>   -3.9300    1.0000 </r>
       <r>   -3.8317    1.0000 </r>
       <r>   -3.7185    1.0000 </r>
       <r>   -3.6755    1.0000 </r>
       <r>   -3.6055    1.0000 </r>
       <r>   -3.3895    1.0000 </r>
       <r>   -2.4904    1.0000 </r>
       <r>   -1.3455    1.0000 </r>
       <r>   -0.8551    1.0000 </r>
       <r>    0.2886    1.0000 </r>
       <r>    1.1983    1.0000 </r>
       <r>    1.5237    1.0000 </r>
       <r>    5.9446    0.0000 </r>
       <r>    6.3814    0.0000 </r>
       <r>    7.9857    0.0000 </r>
       <r>    8.6692    0.0000 </r>
       <r>    9.3431    0.0000 </r>
       <r>   10.5978    0.0000 </r>
       <r>   11.0085    0.0000 </r>
       <r>   12.0515    0.0000 </r>
       <r>   12.5344    0.0000 </r>
       <r>   13.3922    0.0000 </r>
       <r>   14.1273    0.0000 </r>
       <r>   16.0173    0.0000 </r>
       <r>   16.0327    0.0000 </r>
       <r>   17.0045    0.0000 </r>
       <r>   18.5598    0.0000 </r>
       <r>   19.0341    0.0000 </r>
      </set>
      <set comment="kpoint 4">
       <r>  -10.0878    1.0000 </r>
       <r>   -9.7670    1.0000 </r>
       <r>   -4.1915    1.0000 </r>
       <r>   -4.0655    1.0000 </r>
       <r>   -4.0089    1.0000 </r>
       <r>   -3.9261    1.0000 </r>
       <r>   -3.8721    1.0000 </r>
       <r>   -3.7928    1.0000 </r>
       <r>   -3.6394    1.0000 </r>
       <r>   -3.5931    1.0000 </r>
       <r>   -3.5173    1.0000 </r>
       <r>   -3.4893    1.0000 </r>
       <r>   -2.7546    1.0000 </r>
       <r>   -2.0690    1.0000 </r>
       <r>   -0.9479    1.0000 </r>
       <r>   -0.0150    1.0000 </r>
       <r>    0.5992    1.0000 </r>
       <r>    1.2957    1.0000 </r>
       <r>    5.8507    0.0000 </r>
       <r>    6.1033    0.0000 </r>
       <r>    7.6412    0.0000 </r>
       <r>    9.1137    0.0000 </r>
       <r>    9.2487    0.0000 </r>
       <r>   10.3767    0.0000 </r>
       <r>   11.6931    0.0000 </r>
       <r>   13.8807    0.0000 </r>
       <r>   13.9828    0.0000 </r>
       <r>   15.0476    0.0000 </r>
       <r>   15.2486    0.0000 </r>
       <r>   15.8874    0.0000 </r>
       <r>   16.0842    0.0000 </r>
       <r>   16.6950    0.0000 </r>
       <r>   16.9210    0.0000 </r>
       <r>   17.3740    0.0000 </r>
      </set>
      <set comment="kpoint 5">
       <r>  -10.5356    1.0000 </r>
       <r>   -9.8652    1.0000 </r>
       <r>   -4.1752    1.0000 </r>
       <r>   -4.1334    1.0000 </r>
       <r>   -4.0965    1.0000 </r>
       <r>   -4.0250    1.0000 </r>
       <r>   -3.9495    1.0000 </r>
       <r>   -3.8010    1.0000 </r>
       <r>   -3.7502    1.0000 </r>
       <r>   -3.6939    1.0000 </r>
       <r>   -3.6095    1.0000 </r>
       <r>   -3.4337    1.0000 </r>
       <r>   -2.4392    1.0000 </r>
       <r>   -0.8032    1.0000 </r>
       <r>   -0.5780    1.0000 </r>
       <r>    0.1806    1.0000 </r>
       <r>    1.3259    1.0000 </r>
       <r>    1.4670    1.0000 </r>
       <r>    6.5692    0.0000 </r>
       <r>    7.2823    0.0000 </r>
       <r>    7.9023    0.0000 </r>
       <r>    8.0716    0.0000 </r>
       <r>    9.3190    0.0000 </r>
       <r>    9.6856    0.0000 </r>
       <r>   10.9987    0.0000 </r>
       <r>   10.9999    0.0000 </r>
       <r>   12.5896    0.0000 </r>
       <r>   12.6339    0.0000 </r>
       <r>   15.1354    0.0000 </r>
       <r>   15.1989    0.0000 </r>
       <r>   17.0730    0.0000 </r>
       <r>   17.2108    0.0000 </r>
       <r>   17.8230    0.0000 </r>
       <r>   18.4424    0.0000 </r>
      </set>
      <set comment="kpoint 6">
       <r>  -10.1032    1.0000 </r>
       <r>   -9.7599    1.0000 </r>
       <r>   -4.1583    1.0000 </r>
       <r>   -4.0671    1.0000 </r>
       <r>   -3.9819    1.0000 </r>
       <r>   -3.9020    1.0000 </r>
       <r>   -3.8524    1.0000 </r>
       <r>   -3.8228    1.0000 </r>
       <r>   -3.7073    1.0000 </r>
       <r>   -3.6726    1.0000 </r>
       <r>   -3.5655    1.0000 </r>
       <r>   -3.2947    1.0000 </r>
       <r>   -2.6450    1.0000 </r>
       <r>   -1.7761    1.0000 </r>
       <r>   -0.9949    1.0000 </r>
       <r>   -0.5509    1.0000 </r>
       <r>    0.6372    1.0000 </r>
       <r>    0.7544    1.0000 </r>
       <r>    6.7020    0.0000 </r>
       <r>    7.1922    0.0000 </r>
       <r>    7.5316    0.0000 </r>
       <r>    8.8573    0.0000 </r>
       <r>    9.4197    0.0000 </r>
       <r>   10.7234    0.0000 </r>
       <r>   11.2283    0.0000 </r>
       <r>   12.1356    0.0000 </r>
       <r>   13.4806    0.0000 </r>
       <r>   13.6408    0.0000 </r>
       <r>   15.3608    0.0000 </r>
       <r>   15.9852    0.0000 </r>
       <r>   16.4441    0.0000 </r>
       <r>   16.5831    0.0000 </r>
       <r>   16.9633    0.0000 </r>
       <r>   18.8194    0.0000 </r>
      </set>
      <set comment="kpoint 7">
       <r>   -9.8393    1.0000 </r>
       <r>   -9.8393    1.0000 </r>
       <r>   -4.1600    1.0000 </r>
       <r>   -3.9738    1.0000 </r>
       <r>   -3.9738    1.0000 </r>
       <r>   -3.8439    1.0000 </r>
       <r>   -3.7672    1.0000 </r>
       <r>   -3.7672    1.0000 </r>
       <r>   -3.7013    1.0000 </r>
       <r>   -3.6925    1.0000 </r>
       <r>   -3.4189    1.0000 </r>
       <r>   -3.4188    1.0000 </r>
       <r>   -2.2481    1.0000 </r>
       <r>   -2.2481    1.0000 </r>
       <r>   -1.6995    1.0000 </r>
       <r>   -0.0018    1.0000 </r>
       <r>   -0.0018    1.0000 </r>
       <r>   -0.0012    1.0000 </r>
       <r>    6.5005    0.0000 </r>
       <r>    8.0257    0.0000 </r>
       <r>    8.0257    0.0000 </r>
       <r>    9.9838    0.0000 </r>
       <r>    9.9963    0.0000 </r>
       <r>    9.9964    0.0000 </r>
       <r>   12.1885    0.0000 </r>
       <r>   12.1885    0.0000 </r>
       <r>   12.3828    0.0000 </r>
       <r>   13.5050    0.0000 </r>
       <r>   13.8121    0.0000 </r>
       <r>   13.8121    0.0000 </r>
       <r>   16.5268    0.0000 </r>
       <r>   18.0905    0.0000 </r>
       <r>   19.4366    0.0000 </r>
       <r>   19.4385    0.0000 </r>
      </set>
      <set comment="kpoint 8">
       <r>  -10.8174    1.0000 </r>
       <r>  -10.4394    1.0000 </r>
       <r>   -4.2098    1.0000 </r>
       <r>   -4.1611    1.0000 </r>
       <r>   -4.1610    1.0000 </r>
       <r>   -4.1284    1.0000 </r>
       <r>   -4.1283    1.0000 </r>
       <r>   -4.1222    1.0000 </r>
       <r>   -3.6807    1.0000 </r>
       <r>   -3.6807    1.0000 </r>
       <r>   -3.6485    1.0000 </r>
       <r>   -3.6485    1.0000 </r>
       <r>   -1.5055    1.0000 </r>
       <r>    0.1897    1.0000 </r>
       <r>    1.6212    1.0000 </r>
       <r>    1.6213    1.0000 </r>
       <r>    1.9800    1.0000 </r>
       <r>    1.9801    1.0000 </r>
       <r>    5.6413    0.0000 </r>
       <r>    5.7643    0.0000 </r>
       <r>    8.5281    0.0000 </r>
       <r>    8.7500    0.0000 </r>
       <r>    8.7500    0.0000 </r>
       <r>    9.2601    0.0000 </r>
       <r>    9.2602    0.0000 </r>
       <r>    9.8260    0.0000 </r>
       <r>   13.5666    0.0000 </r>
       <r>   13.5667    0.0000 </r>
       <r>   13.7786    0.0000 </r>
       <r>   14.7899    0.0000 </r>
       <r>   15.1355    0.0000 </r>
       <r>   15.1356    0.0000 </r>
       <r>   17.1648    0.0000 </r>
       <r>   17.1649    0.0000 </r>
      </set>
      <set comment="kpoint 9">
       <r>  -10.6428    1.0000 </r>
       <r>  -10.2967    1.0000 </r>
       <r>   -4.2254    1.0000 </r>
       <r>   -4.1704    1.0000 </r>
       <r>   -4.1182    1.0000 </r>
       <r>   -4.1118    1.0000 </r>
       <r>   -4.0781    1.0000 </r>
       <r>   -4.0585    1.0000 </r>
       <r>   -3.6873    1.0000 </r>
       <r>   -3.6798    1.0000 </r>
       <r>   -3.6448    1.0000 </r>
       <r>   -3.6339    1.0000 </r>
       <r>   -1.4663    1.0000 </r>
       <r>   -0.1729    1.0000 </r>
       <r>    0.5331    1.0000 </r>
       <r>    1.2378    1.0000 </r>
       <r>    1.2474    1.0000 </r>
       <r>    1.6725    1.0000 </r>
       <r>    6.3973    0.0000 </r>
       <r>    6.6821    0.0000 </r>
       <r>    7.8390    0.0000 </r>
       <r>    8.2843    0.0000 </r>
       <r>    9.1725    0.0000 </r>
       <r>    9.3915    0.0000 </r>
       <r>   10.0311    0.0000 </r>
       <r>   10.1724    0.0000 </r>
       <r>   12.6731    0.0000 </r>
       <r>   13.1843    0.0000 </r>
       <r>   14.4255    0.0000 </r>
       <r>   14.8665    0.0000 </r>
       <r>   15.7371    0.0000 </r>
       <r>   15.8701    0.0000 </r>
       <r>   17.3344    0.0000 </r>
       <r>   18.2229    0.0000 </r>
      </set>
      <set comment="kpoint 10">
       <r>  -10.2394    1.0000 </r>
       <r>   -9.9963    1.0000 </r>
       <r>   -4.2309    1.0000 </r>
       <r>   -4.1778    1.0000 </r>
       <r>   -4.0416    1.0000 </r>
       <r>   -3.9775    1.0000 </r>
       <r>   -3.9700    1.0000 </r>
       <r>   -3.9543    1.0000 </r>
       <r>   -3.6641    1.0000 </r>
       <r>   -3.6582    1.0000 </r>
       <r>   -3.6298    1.0000 </r>
       <r>   -3.5664    1.0000 </r>
       <r>   -2.0964    1.0000 </r>
       <r>   -1.5818    1.0000 </r>
       <r>   -0.1452    1.0000 </r>
       <r>    0.6158    1.0000 </r>
       <r>    0.9489    1.0000 </r>
       <r>    1.1208    1.0000 </r>
       <r>    5.7739    0.0000 </r>
       <r>    6.4026    0.0000 </r>
       <r>    7.5960    0.0000 </r>
       <r>    8.2453    0.0000 </r>
       <r>   10.1949    0.0000 </r>
       <r>   10.4562    0.0000 </r>
       <r>   10.9680    0.0000 </r>
       <r>   11.4729    0.0000 </r>
       <r>   12.6315    0.0000 </r>
       <r>   13.9079    0.0000 </r>
       <r>   14.2686    0.0000 </r>
       <r>   14.9407    0.0000 </r>
       <r>   15.9210    0.0000 </r>
       <r>   18.1901    0.0000 </r>
       <r>   19.2027    0.0000 </r>
       <r>   19.9211    0.0000 </r>
      </set>
      <set comment="kpoint 11">
       <r>   -9.9869    1.0000 </r>
       <r>   -9.8531    1.0000 </r>
       <r>   -4.2183    1.0000 </r>
       <r>   -4.1626    1.0000 </r>
       <r>   -4.0111    1.0000 </r>
       <r>   -3.9295    1.0000 </r>
       <r>   -3.8915    1.0000 </r>
       <r>   -3.8271    1.0000 </r>
       <r>   -3.6323    1.0000 </r>
       <r>   -3.6148    1.0000 </r>
       <r>   -3.4669    1.0000 </r>
       <r>   -3.4476    1.0000 </r>
       <r>   -2.8612    1.0000 </r>
       <r>   -2.5394    1.0000 </r>
       <r>    0.0840    1.0000 </r>
       <r>    0.3335    1.0000 </r>
       <r>    0.8345    1.0000 </r>
       <r>    0.8690    1.0000 </r>
       <r>    5.4904    0.0000 </r>
       <r>    5.9681    0.0000 </r>
       <r>    7.4770    0.0000 </r>
       <r>    7.7099    0.0000 </r>
       <r>   10.2787    0.0000 </r>
       <r>   10.7428    0.0000 </r>
       <r>   11.9885    0.0000 </r>
       <r>   12.0060    0.0000 </r>
       <r>   14.3712    0.0000 </r>
       <r>   14.9019    0.0000 </r>
       <r>   16.0187    0.0000 </r>
       <r>   16.0926    0.0000 </r>
       <r>   16.8298    0.0000 </r>
       <r>   16.8784    0.0000 </r>
       <r>   17.8273    0.0000 </r>
       <r>   18.1049    0.0000 </r>
      </set>
      <set comment="kpoint 12">
       <r>  -10.3505    1.0000 </r>
       <r>  -10.0730    1.0000 </r>
       <r>   -4.2059    1.0000 </r>
       <r>   -4.1575    1.0000 </r>
       <r>   -4.0744    1.0000 </r>
       <r>   -4.0472    1.0000 </r>
       <r>   -4.0009    1.0000 </r>
       <r>   -3.9925    1.0000 </r>
       <r>   -3.6882    1.0000 </r>
       <r>   -3.6677    1.0000 </r>
       <r>   -3.6289    1.0000 </r>
       <r>   -3.5876    1.0000 </r>
       <r>   -1.7374    1.0000 </r>
       <r>   -1.0779    1.0000 </r>
       <r>   -0.0242    1.0000 </r>
       <r>    0.3843    1.0000 </r>
       <r>    0.9096    1.0000 </r>
       <r>    1.0879    1.0000 </r>
       <r>    6.5860    0.0000 </r>
       <r>    7.2268    0.0000 </r>
       <r>    8.0629    0.0000 </r>
       <r>    8.1462    0.0000 </r>
       <r>    9.0427    0.0000 </r>
       <r>    9.5315    0.0000 </r>
       <r>   10.3022    0.0000 </r>
       <r>   11.1069    0.0000 </r>
       <r>   13.0214    0.0000 </r>
       <r>   13.2263    0.0000 </r>
       <r>   14.5113    0.0000 </r>
       <r>   15.0899    0.0000 </r>
       <r>   16.3283    0.0000 </r>
       <r>   17.7139    0.0000 </r>
       <r>   18.3714    0.0000 </r>
       <r>   19.7421    0.0000 </r>
      </set>
      <set comment="kpoint 13">
       <r>   -9.9967    1.0000 </r>
       <r>   -9.8536    1.0000 </r>
       <r>   -4.1613    1.0000 </r>
       <r>   -4.1136    1.0000 </r>
       <r>   -4.0218    1.0000 </r>
       <r>   -3.9404    1.0000 </r>
       <r>   -3.9008    1.0000 </r>
       <r>   -3.8820    1.0000 </r>
       <r>   -3.6693    1.0000 </r>
       <r>   -3.6577    1.0000 </r>
       <r>   -3.5270    1.0000 </r>
       <r>   -3.4124    1.0000 </r>
       <r>   -2.5812    1.0000 </r>
       <r>   -2.2142    1.0000 </r>
       <r>   -0.4753    1.0000 </r>
       <r>    0.1201    1.0000 </r>
       <r>    0.3214    1.0000 </r>
       <r>    0.9747    1.0000 </r>
       <r>    6.2268    0.0000 </r>
       <r>    6.9138    0.0000 </r>
       <r>    7.8787    0.0000 </r>
       <r>    8.4065    0.0000 </r>
       <r>    9.0753    0.0000 </r>
       <r>   10.3593    0.0000 </r>
       <r>   11.3463    0.0000 </r>
       <r>   11.5613    0.0000 </r>
       <r>   13.3591    0.0000 </r>
       <r>   14.4408    0.0000 </r>
       <r>   15.9955    0.0000 </r>
       <r>   16.4986    0.0000 </r>
       <r>   16.8162    0.0000 </r>
       <r>   16.9476    0.0000 </r>
       <r>   17.7914    0.0000 </r>
       <r>   18.5644    0.0000 </r>
      </set>
      <set comment="kpoint 14">
       <r>   -9.8266    1.0000 </r>
       <r>   -9.8266    1.0000 </r>
       <r>   -4.0822    1.0000 </r>
       <r>   -4.0500    1.0000 </r>
       <r>   -4.0500    1.0000 </r>
       <r>   -3.9488    1.0000 </r>
       <r>   -3.7917    1.0000 </r>
       <r>   -3.7917    1.0000 </r>
       <r>   -3.7126    1.0000 </r>
       <r>   -3.7086    1.0000 </r>
       <r>   -3.3340    1.0000 </r>
       <r>   -3.3340    1.0000 </r>
       <r>   -2.5668    1.0000 </r>
       <r>   -2.5668    1.0000 </r>
       <r>   -1.2499    1.0000 </r>
       <r>   -0.5697    1.0000 </r>
       <r>    0.7162    1.0000 </r>
       <r>    0.7162    1.0000 </r>
       <r>    6.9322    0.0000 </r>
       <r>    6.9322    0.0000 </r>
       <r>    7.6730    0.0000 </r>
       <r>    9.2512    0.0000 </r>
       <r>    9.6853    0.0000 </r>
       <r>    9.6853    0.0000 </r>
       <r>   12.0455    0.0000 </r>
       <r>   12.0698    0.0000 </r>
       <r>   12.6551    0.0000 </r>
       <r>   12.6551    0.0000 </r>
       <r>   15.4482    0.0000 </r>
       <r>   15.4482    0.0000 </r>
       <r>   18.5431    0.0000 </r>
       <r>   18.5432    0.0000 </r>
       <r>   18.7540    0.0000 </r>
       <r>   19.0850    0.0000 </r>
      </set>
      <set comment="kpoint 15">
       <r>  -11.0885    1.0000 </r>
       <r>  -10.0892    1.0000 </r>
       <r>   -4.1971    1.0000 </r>
       <r>   -4.1805    1.0000 </r>
       <r>   -4.1805    1.0000 </r>
       <r>   -4.0942    1.0000 </r>
       <r>   -4.0941    1.0000 </r>
       <r>   -3.7117    1.0000 </r>
       <r>   -3.7116    1.0000 </r>
       <r>   -3.6281    1.0000 </r>
       <r>   -3.6281    1.0000 </r>
       <r>   -3.4887    1.0000 </r>
       <r>   -3.2687    1.0000 </r>
       <r>    1.3500    1.0000 </r>
       <r>    1.3500    1.0000 </r>
       <r>    2.2031    1.0000 </r>
       <r>    2.2936    1.0000 </r>
       <r>    2.2937    1.0000 </r>
       <r>    4.4490    0.0000 </r>
       <r>    5.3163    0.0000 </r>
       <r>    8.5065    0.0000 </r>
       <r>    8.5066    0.0000 </r>
       <r>    8.7663    0.0000 </r>
       <r>    9.9361    0.0000 </r>
       <r>    9.9361    0.0000 </r>
       <r>   11.4947    0.0000 </r>
       <r>   12.3014    0.0000 </r>
       <r>   12.3015    0.0000 </r>
       <r>   13.4104    0.0000 </r>
       <r>   14.5442    0.0000 </r>
       <r>   14.5443    0.0000 </r>
       <r>   14.8018    0.0000 </r>
       <r>   15.7584    0.0000 </r>
       <r>   18.1506    0.0000 </r>
      </set>
      <set comment="kpoint 16">
       <r>  -11.0872    1.0000 </r>
       <r>  -10.0885    1.0000 </r>
       <r>   -4.1969    1.0000 </r>
       <r>   -4.1806    1.0000 </r>
       <r>   -4.1802    1.0000 </r>
       <r>   -4.0941    1.0000 </r>
       <r>   -4.0938    1.0000 </r>
       <r>   -3.7118    1.0000 </r>
       <r>   -3.7117    1.0000 </r>
       <r>   -3.6300    1.0000 </r>
       <r>   -3.6280    1.0000 </r>
       <r>   -3.4867    1.0000 </r>
       <r>   -3.2671    1.0000 </r>
       <r>    1.3381    1.0000 </r>
       <r>    1.3467    1.0000 </r>
       <r>    2.2012    1.0000 </r>
       <r>    2.2788    1.0000 </r>
       <r>    2.2920    1.0000 </r>
       <r>    4.4632    0.0000 </r>
       <r>    5.3277    0.0000 </r>
       <r>    8.4981    0.0000 </r>
       <r>    8.5106    0.0000 </r>
       <r>    8.7713    0.0000 </r>
       <r>    9.9315    0.0000 </r>
       <r>    9.9421    0.0000 </r>
       <r>   11.4864    0.0000 </r>
       <r>   12.2779    0.0000 </r>
       <r>   12.2959    0.0000 </r>
       <r>   13.4353    0.0000 </r>
       <r>   14.5541    0.0000 </r>
       <r>   14.5579    0.0000 </r>
       <r>   14.8158    0.0000 </r>
       <r>   15.7725    0.0000 </r>
       <r>   18.1279    0.0000 </r>
      </set>
      <set comment="kpoint 17">
       <r>  -11.0832    1.0000 </r>
       <r>  -10.0862    1.0000 </r>
       <r>   -4.1963    1.0000 </r>
       <r>   -4.1807    1.0000 </r>
       <r>   -4.1794    1.0000 </r>
       <r>   -4.0938    1.0000 </r>
       <r>   -4.0926    1.0000 </r>
       <r>   -3.7124    1.0000 </r>
       <r>   -3.7117    1.0000 </r>
       <r>   -3.6352    1.0000 </r>
       <r>   -3.6278    1.0000 </r>
       <r>   -3.4811    1.0000 </r>
       <r>   -3.2623    1.0000 </r>
       <r>    1.3028    1.0000 </r>
       <r>    1.3369    1.0000 </r>
       <r>    2.1944    1.0000 </r>
       <r>    2.2363    1.0000 </r>
       <r>    2.2870    1.0000 </r>
       <r>    4.5046    0.0000 </r>
       <r>    5.3615    0.0000 </r>
       <r>    8.4737    0.0000 </r>
       <r>    8.5227    0.0000 </r>
       <r>    8.7857    0.0000 </r>
       <r>    9.9179    0.0000 </r>
       <r>    9.9600    0.0000 </r>
       <r>   11.4616    0.0000 </r>
       <r>   12.2131    0.0000 </r>
       <r>   12.2800    0.0000 </r>
       <r>   13.5058    0.0000 </r>
       <r>   14.5831    0.0000 </r>
       <r>   14.5931    0.0000 </r>
       <r>   14.8611    0.0000 </r>
       <r>   15.8144    0.0000 </r>
       <r>   18.0651    0.0000 </r>
      </set>
      <set comment="kpoint 18">
       <r>  -11.0766    1.0000 </r>
       <r>  -10.0824    1.0000 </r>
       <r>   -4.1954    1.0000 </r>
       <r>   -4.1811    1.0000 </r>
       <r>   -4.1780    1.0000 </r>
       <r>   -4.0935    1.0000 </r>
       <r>   -4.0907    1.0000 </r>
       <r>   -3.7135    1.0000 </r>
       <r>   -3.7119    1.0000 </r>
       <r>   -3.6430    1.0000 </r>
       <r>   -3.6275    1.0000 </r>
       <r>   -3.4731    1.0000 </r>
       <r>   -3.2540    1.0000 </r>
       <r>    1.2453    1.0000 </r>
       <r>    1.3206    1.0000 </r>
       <r>    2.1580    1.0000 </r>
       <r>    2.1936    1.0000 </r>
       <r>    2.2786    1.0000 </r>
       <r>    4.5698    0.0000 </r>
       <r>    5.4159    0.0000 </r>
       <r>    8.4352    0.0000 </r>
       <r>    8.5425    0.0000 </r>
       <r>    8.8084    0.0000 </r>
       <r>    9.8951    0.0000 </r>
       <r>    9.9893    0.0000 </r>
       <r>   11.4200    0.0000 </r>
       <r>   12.1173    0.0000 </r>
       <r>   12.2542    0.0000 </r>
       <r>   13.6132    0.0000 </r>
       <r>   14.6299    0.0000 </r>
       <r>   14.6362    0.0000 </r>
       <r>   14.9445    0.0000 </r>
       <r>   15.8832    0.0000 </r>
       <r>   17.9730    0.0000 </r>
      </set>
      <set comment="kpoint 19">
       <r>  -11.0674    1.0000 </r>
       <r>  -10.0771    1.0000 </r>
       <r>   -4.1943    1.0000 </r>
       <r>   -4.1813    1.0000 </r>
       <r>   -4.1763    1.0000 </r>
       <r>   -4.0929    1.0000 </r>
       <r>   -4.0883    1.0000 </r>
       <r>   -3.7150    1.0000 </r>
       <r>   -3.7122    1.0000 </r>
       <r>   -3.6522    1.0000 </r>
       <r>   -3.6271    1.0000 </r>
       <r>   -3.4640    1.0000 </r>
       <r>   -3.2421    1.0000 </r>
       <r>    1.1674    1.0000 </r>
       <r>    1.2982    1.0000 </r>
       <r>    2.0691    1.0000 </r>
       <r>    2.1784    1.0000 </r>
       <r>    2.2665    1.0000 </r>
       <r>    4.6541    0.0000 </r>
       <r>    5.4884    0.0000 </r>
       <r>    8.3850    0.0000 </r>
       <r>    8.5690    0.0000 </r>
       <r>    8.8383    0.0000 </r>
       <r>    9.8660    0.0000 </r>
       <r>   10.0290    0.0000 </r>
       <r>   11.3606    0.0000 </r>
       <r>   12.0088    0.0000 </r>
       <r>   12.2188    0.0000 </r>
       <r>   13.7501    0.0000 </r>
       <r>   14.6796    0.0000 </r>
       <r>   14.6917    0.0000 </r>
       <r>   15.0679    0.0000 </r>
       <r>   15.9771    0.0000 </r>
       <r>   17.8633    0.0000 </r>
      </set>
      <set comment="kpoint 20">
       <r>  -11.0555    1.0000 </r>
       <r>  -10.0704    1.0000 </r>
       <r>   -4.1931    1.0000 </r>
       <r>   -4.1810    1.0000 </r>
       <r>   -4.1739    1.0000 </r>
       <r>   -4.0918    1.0000 </r>
       <r>   -4.0847    1.0000 </r>
       <r>   -3.7166    1.0000 </r>
       <r>   -3.7124    1.0000 </r>
       <r>   -3.6618    1.0000 </r>
       <r>   -3.6265    1.0000 </r>
       <r>   -3.4547    1.0000 </r>
       <r>   -3.2262    1.0000 </r>
       <r>    1.0725    1.0000 </r>
       <r>    1.2701    1.0000 </r>
       <r>    1.9617    1.0000 </r>
       <r>    2.1628    1.0000 </r>
       <r>    2.2517    1.0000 </r>
       <r>    4.7530    0.0000 </r>
       <r>    5.5763    0.0000 </r>
       <r>    8.3278    0.0000 </r>
       <r>    8.6031    0.0000 </r>
       <r>    8.8754    0.0000 </r>
       <r>    9.8327    0.0000 </r>
       <r>   10.0832    0.0000 </r>
       <r>   11.2835    0.0000 </r>
       <r>   11.9006    0.0000 </r>
       <r>   12.1820    0.0000 </r>
       <r>   13.9117    0.0000 </r>
       <r>   14.7214    0.0000 </r>
       <r>   14.7699    0.0000 </r>
       <r>   15.2255    0.0000 </r>
       <r>   16.0947    0.0000 </r>
       <r>   17.7458    0.0000 </r>
      </set>
      <set comment="kpoint 21">
       <r>  -11.0411    1.0000 </r>
       <r>  -10.0622    1.0000 </r>
       <r>   -4.1926    1.0000 </r>
       <r>   -4.1801    1.0000 </r>
       <r>   -4.1710    1.0000 </r>
       <r>   -4.0905    1.0000 </r>
       <r>   -4.0806    1.0000 </r>
       <r>   -3.7187    1.0000 </r>
       <r>   -3.7126    1.0000 </r>
       <r>   -3.6715    1.0000 </r>
       <r>   -3.6258    1.0000 </r>
       <r>   -3.4460    1.0000 </r>
       <r>   -3.2064    1.0000 </r>
       <r>    0.9626    1.0000 </r>
       <r>    1.2366    1.0000 </r>
       <r>    1.8408    1.0000 </r>
       <r>    2.1438    1.0000 </r>
       <r>    2.2337    1.0000 </r>
       <r>    4.8620    0.0000 </r>
       <r>    5.6754    0.0000 </r>
       <r>    8.2651    0.0000 </r>
       <r>    8.6437    0.0000 </r>
       <r>    8.9159    0.0000 </r>
       <r>    9.7959    0.0000 </r>
       <r>   10.1465    0.0000 </r>
       <r>   11.1895    0.0000 </r>
       <r>   11.7979    0.0000 </r>
       <r>   12.1424    0.0000 </r>
       <r>   14.0945    0.0000 </r>
       <r>   14.7602    0.0000 </r>
       <r>   14.8573    0.0000 </r>
       <r>   15.4084    0.0000 </r>
       <r>   16.2334    0.0000 </r>
       <r>   17.6272    0.0000 </r>
      </set>
      <set comment="kpoint 22">
       <r>  -11.0243    1.0000 </r>
       <r>  -10.0528    1.0000 </r>
       <r>   -4.1928    1.0000 </r>
       <r>   -4.1782    1.0000 </r>
       <r>   -4.1677    1.0000 </r>
       <r>   -4.0889    1.0000 </r>
       <r>   -4.0758    1.0000 </r>
       <r>   -3.7211    1.0000 </r>
       <r>   -3.7126    1.0000 </r>
       <r>   -3.6810    1.0000 </r>
       <r>   -3.6250    1.0000 </r>
       <r>   -3.4380    1.0000 </r>
       <r>   -3.1827    1.0000 </r>
       <r>    0.8400    1.0000 </r>
       <r>    1.1983    1.0000 </r>
       <r>    1.7101    1.0000 </r>
       <r>    2.1215    1.0000 </r>
       <r>    2.2127    1.0000 </r>
       <r>    4.9777    0.0000 </r>
       <r>    5.7818    0.0000 </r>
       <r>    8.2003    0.0000 </r>
       <r>    8.6900    0.0000 </r>
       <r>    8.9585    0.0000 </r>
       <r>    9.7606    0.0000 </r>
       <r>   10.2209    0.0000 </r>
       <r>   11.0803    0.0000 </r>
       <r>   11.7044    0.0000 </r>
       <r>   12.1030    0.0000 </r>
       <r>   14.2960    0.0000 </r>
       <r>   14.7964    0.0000 </r>
       <r>   14.9534    0.0000 </r>
       <r>   15.6094    0.0000 </r>
       <r>   16.3910    0.0000 </r>
       <r>   17.5117    0.0000 </r>
      </set>
      <set comment="kpoint 23">
       <r>  -11.0050    1.0000 </r>
       <r>  -10.0421    1.0000 </r>
       <r>   -4.1936    1.0000 </r>
       <r>   -4.1754    1.0000 </r>
       <r>   -4.1640    1.0000 </r>
       <r>   -4.0869    1.0000 </r>
       <r>   -4.0702    1.0000 </r>
       <r>   -3.7238    1.0000 </r>
       <r>   -3.7126    1.0000 </r>
       <r>   -3.6898    1.0000 </r>
       <r>   -3.6241    1.0000 </r>
       <r>   -3.4310    1.0000 </r>
       <r>   -3.1553    1.0000 </r>
       <r>    0.7081    1.0000 </r>
       <r>    1.1556    1.0000 </r>
       <r>    1.5723    1.0000 </r>
       <r>    2.0957    1.0000 </r>
       <r>    2.1887    1.0000 </r>
       <r>    5.0973    0.0000 </r>
       <r>    5.8914    0.0000 </r>
       <r>    8.1378    0.0000 </r>
       <r>    8.7413    0.0000 </r>
       <r>    8.9989    0.0000 </r>
       <r>    9.7317    0.0000 </r>
       <r>   10.3050    0.0000 </r>
       <r>   10.9605    0.0000 </r>
       <r>   11.6216    0.0000 </r>
       <r>   12.0662    0.0000 </r>
       <r>   14.5139    0.0000 </r>
       <r>   14.8295    0.0000 </r>
       <r>   15.0557    0.0000 </r>
       <r>   15.8234    0.0000 </r>
       <r>   16.5646    0.0000 </r>
       <r>   17.4067    0.0000 </r>
      </set>
      <set comment="kpoint 24">
       <r>  -10.9833    1.0000 </r>
       <r>  -10.0302    1.0000 </r>
       <r>   -4.1948    1.0000 </r>
       <r>   -4.1719    1.0000 </r>
       <r>   -4.1600    1.0000 </r>
       <r>   -4.0844    1.0000 </r>
       <r>   -4.0641    1.0000 </r>
       <r>   -3.7268    1.0000 </r>
       <r>   -3.7125    1.0000 </r>
[...]
        <r>  0.0216  0.0007  0.4098 </r>
        <r>  0.0072  0.0211  0.0000 </r>
        <r>  0.0072  0.0211  0.0000 </r>
       </set>
       <set comment="band 13">
        <r>  0.1192  0.0053  0.0776 </r>
        <r>  0.1192  0.0053  0.0776 </r>
        <r>  0.0136  0.1209  0.0000 </r>
        <r>  0.0136  0.1209  0.0000 </r>
       </set>
       <set comment="band 14">
        <r>  0.1192  0.0053  0.0776 </r>
        <r>  0.1192  0.0053  0.0776 </r>
        <r>  0.0136  0.1209  0.0000 </r>
        <r>  0.0136  0.1209  0.0000 </r>
       </set>
       <set comment="band 15">
        <r>  0.0000  0.0596  0.0327 </r>
        <r>  0.0000  0.0596  0.0327 </r>
        <r>  0.0000  0.1541  0.0000 </r>
        <r>  0.0000  0.1541  0.0000 </r>
       </set>
       <set comment="band 16">
        <r>  0.0053  0.0524  0.0531 </r>
        <r>  0.0053  0.0524  0.0531 </r>
        <r>  0.0006  0.1835  0.0000 </r>
        <r>  0.0006  0.1835  0.0000 </r>
       </set>
       <set comment="band 17">
        <r>  0.0053  0.0524  0.0531 </r>
        <r>  0.0053  0.0524  0.0531 </r>
        <r>  0.0006  0.1835  0.0000 </r>
        <r>  0.0006  0.1835  0.0000 </r>
       </set>
       <set comment="band 18">
        <r>  0.0000  0.0510  0.0614 </r>
        <r>  0.0000  0.0510  0.0614 </r>
        <r>  0.0000  0.1845  0.0000 </r>
        <r>  0.0000  0.1845  0.0000 </r>
       </set>
       <set comment="band 19">
        <r>  0.0000  0.0570  0.0329 </r>
        <r>  0.0000  0.0570  0.0329 </r>
        <r>  0.0000  0.0145  0.0000 </r>
        <r>  0.0000  0.0145  0.0000 </r>
       </set>
       <set comment="band 20">
        <r>  0.1405  0.0052  0.0024 </r>
        <r>  0.1405  0.0052  0.0024 </r>
        <r>  0.0079  0.1505  0.0000 </r>
        <r>  0.0079  0.1505  0.0000 </r>
       </set>
       <set comment="band 21">
        <r>  0.1405  0.0052  0.0024 </r>
        <r>  0.1405  0.0052  0.0024 </r>
        <r>  0.0079  0.1505  0.0000 </r>
        <r>  0.0079  0.1505  0.0000 </r>
       </set>
       <set comment="band 22">
        <r>  0.0000  0.0006  0.0511 </r>
        <r>  0.0000  0.0006  0.0511 </r>
        <r>  0.0000  0.1160  0.0000 </r>
        <r>  0.0000  0.1160  0.0000 </r>
       </set>
       <set comment="band 23">
        <r>  0.0040  0.0316  0.0377 </r>
        <r>  0.0040  0.0316  0.0377 </r>
        <r>  0.0038  0.0916  0.0000 </r>
        <r>  0.0038  0.0916  0.0000 </r>
       </set>
       <set comment="band 24">
        <r>  0.0040  0.0316  0.0377 </r>
        <r>  0.0040  0.0316  0.0377 </r>
        <r>  0.0038  0.0916  0.0000 </r>
        <r>  0.0038  0.0916  0.0000 </r>
       </set>
       <set comment="band 25">
        <r>  0.0013  0.1713  0.0096 </r>
        <r>  0.0013  0.1713  0.0096 </r>
        <r>  0.0441  0.0081  0.0000 </r>
        <r>  0.0441  0.0081  0.0000 </r>
       </set>
       <set comment="band 26">
        <r>  0.0013  0.1713  0.0096 </r>
        <r>  0.0013  0.1713  0.0096 </r>
        <r>  0.0441  0.0081  0.0000 </r>
        <r>  0.0441  0.0081  0.0000 </r>
       </set>
       <set comment="band 27">
        <r>  0.0000  0.0005  0.0439 </r>
        <r>  0.0000  0.0005  0.0439 </r>
        <r>  0.0000  0.0668  0.0000 </r>
        <r>  0.0000  0.0668  0.0000 </r>
       </set>
       <set comment="band 28">
        <r>  0.0049  0.1041  0.0411 </r>
        <r>  0.0049  0.1041  0.0411 </r>
        <r>  0.0081  0.0078  0.0000 </r>
        <r>  0.0081  0.0078  0.0000 </r>
       </set>
       <set comment="band 29">
        <r>  0.0049  0.1041  0.0411 </r>
        <r>  0.0049  0.1041  0.0411 </r>
        <r>  0.0081  0.0078  0.0000 </r>
        <r>  0.0081  0.0078  0.0000 </r>
       </set>
       <set comment="band 30">
        <r>  0.0000  0.0782  0.0094 </r>
        <r>  0.0000  0.0782  0.0094 </r>
        <r>  0.0000  0.0123  0.0000 </r>
        <r>  0.0000  0.0123  0.0000 </r>
       </set>
       <set comment="band 31">
        <r>  0.0000  0.0305  0.0282 </r>
        <r>  0.0000  0.0305  0.0282 </r>
        <r>  0.0000  0.0352  0.0000 </r>
        <r>  0.0000  0.0352  0.0000 </r>
       </set>
       <set comment="band 32">
        <r>  0.0000  0.0669  0.0415 </r>
        <r>  0.0000  0.0669  0.0415 </r>
        <r>  0.0000  0.0135  0.0000 </r>
        <r>  0.0000  0.0135  0.0000 </r>
       </set>
       <set comment="band 33">
        <r>  0.0244  0.0426  0.0068 </r>
        <r>  0.0121  0.0424  0.0098 </r>
        <r>  0.0003  0.0128  0.0000 </r>
        <r>  0.0002  0.0208  0.0000 </r>
       </set>
       <set comment="band 34">
        <r>  0.0121  0.0424  0.0099 </r>
        <r>  0.0243  0.0428  0.0068 </r>
        <r>  0.0002  0.0209  0.0000 </r>
        <r>  0.0003  0.0129  0.0000 </r>
       </set>
      </set>
      <set comment="kpoint 275">
       <set comment="band 1">
        <r>  0.0054  0.0166  0.0252 </r>
        <r>  0.0054  0.0166  0.0252 </r>
        <r>  0.3143  0.0002  0.0000 </r>
        <r>  0.3144  0.0002  0.0000 </r>
       </set>
       <set comment="band 2">
        <r>  0.0054  0.0166  0.0252 </r>
        <r>  0.0054  0.0166  0.0252 </r>
        <r>  0.3144  0.0002  0.0000 </r>
        <r>  0.3143  0.0002  0.0000 </r>
       </set>
       <set comment="band 3">
        <r>  0.0000  0.0020  0.4254 </r>
        <r>  0.0000  0.0020  0.4254 </r>
        <r>  0.0000  0.0279  0.0000 </r>
        <r>  0.0000  0.0279  0.0000 </r>
       </set>
       <set comment="band 4">
        <r>  0.0001  0.0032  0.4408 </r>
        <r>  0.0001  0.0032  0.4408 </r>
        <r>  0.0000  0.0243  0.0000 </r>
        <r>  0.0000  0.0243  0.0000 </r>
       </set>
       <set comment="band 5">
        <r>  0.0001  0.0032  0.4408 </r>
        <r>  0.0001  0.0032  0.4408 </r>
        <r>  0.0000  0.0243  0.0000 </r>
        <r>  0.0000  0.0243  0.0000 </r>
       </set>
       <set comment="band 6">
        <r>  0.0000  0.0019  0.4666 </r>
        <r>  0.0000  0.0019  0.4666 </r>
        <r>  0.0000  0.0121  0.0000 </r>
        <r>  0.0000  0.0121  0.0000 </r>
       </set>
       <set comment="band 7">
        <r>  0.0029  0.0002  0.4662 </r>
        <r>  0.0028  0.0002  0.4664 </r>
        <r>  0.0000  0.0035  0.0000 </r>
        <r>  0.0000  0.0035  0.0000 </r>
       </set>
       <set comment="band 8">
        <r>  0.0028  0.0002  0.4664 </r>
        <r>  0.0029  0.0002  0.4662 </r>
        <r>  0.0000  0.0035  0.0000 </r>
        <r>  0.0000  0.0035  0.0000 </r>
       </set>
       <set comment="band 9">
        <r>  0.0000  0.0000  0.4828 </r>
        <r>  0.0000  0.0000  0.4828 </r>
        <r>  0.0000  0.0000  0.0000 </r>
        <r>  0.0000  0.0000  0.0000 </r>
       </set>
       <set comment="band 10">
        <r>  0.0000  0.0014  0.4698 </r>
        <r>  0.0000  0.0014  0.4698 </r>
        <r>  0.0000  0.0040  0.0000 </r>
        <r>  0.0000  0.0040  0.0000 </r>
       </set>
       <set comment="band 11">
        <r>  0.0220  0.0007  0.4086 </r>
        <r>  0.0220  0.0007  0.4086 </r>
        <r>  0.0072  0.0216  0.0000 </r>
        <r>  0.0072  0.0216  0.0000 </r>
       </set>
       <set comment="band 12">
        <r>  0.0220  0.0007  0.4086 </r>
        <r>  0.0220  0.0007  0.4086 </r>
        <r>  0.0072  0.0216  0.0000 </r>
        <r>  0.0072  0.0216  0.0000 </r>
       </set>
       <set comment="band 13">
        <r>  0.1197  0.0052  0.0768 </r>
        <r>  0.1197  0.0052  0.0768 </r>
        <r>  0.0139  0.1212  0.0000 </r>
        <r>  0.0139  0.1212  0.0000 </r>
       </set>
       <set comment="band 14">
        <r>  0.1197  0.0052  0.0768 </r>
        <r>  0.1197  0.0052  0.0768 </r>
        <r>  0.0139  0.1212  0.0000 </r>
        <r>  0.0139  0.1212  0.0000 </r>
       </set>
       <set comment="band 15">
        <r>  0.0000  0.0596  0.0322 </r>
        <r>  0.0000  0.0596  0.0322 </r>
        <r>  0.0000  0.1542  0.0000 </r>
        <r>  0.0000  0.1542  0.0000 </r>
       </set>
       <set comment="band 16">
        <r>  0.0050  0.0525  0.0536 </r>
        <r>  0.0050  0.0525  0.0535 </r>
        <r>  0.0005  0.1826  0.0000 </r>
        <r>  0.0005  0.1827  0.0000 </r>
       </set>
       <set comment="band 17">
        <r>  0.0050  0.0525  0.0536 </r>
        <r>  0.0050  0.0525  0.0536 </r>
        <r>  0.0005  0.1827  0.0000 </r>
        <r>  0.0005  0.1826  0.0000 </r>
       </set>
       <set comment="band 18">
        <r>  0.0000  0.0509  0.0614 </r>
        <r>  0.0000  0.0509  0.0614 </r>
        <r>  0.0000  0.1849  0.0000 </r>
        <r>  0.0000  0.1849  0.0000 </r>
       </set>
       <set comment="band 19">
        <r>  0.0000  0.0571  0.0329 </r>
        <r>  0.0000  0.0571  0.0329 </r>
        <r>  0.0000  0.0138  0.0000 </r>
        <r>  0.0000  0.0138  0.0000 </r>
       </set>
       <set comment="band 20">
        <r>  0.1421  0.0042  0.0015 </r>
        <r>  0.1421  0.0042  0.0015 </r>
        <r>  0.0072  0.1540  0.0000 </r>
        <r>  0.0072  0.1540  0.0000 </r>
       </set>
       <set comment="band 21">
        <r>  0.1421  0.0042  0.0015 </r>
        <r>  0.1421  0.0042  0.0015 </r>
        <r>  0.0072  0.1540  0.0000 </r>
        <r>  0.0072  0.1540  0.0000 </r>
       </set>
       <set comment="band 22">
        <r>  0.0000  0.0004  0.0513 </r>
        <r>  0.0000  0.0004  0.0513 </r>
        <r>  0.0000  0.1158  0.0000 </r>
        <r>  0.0000  0.1158  0.0000 </r>
       </set>
       <set comment="band 23">
        <r>  0.0015  0.0276  0.0400 </r>
        <r>  0.0015  0.0276  0.0400 </r>
        <r>  0.0028  0.0934  0.0000 </r>
        <r>  0.0028  0.0934  0.0000 </r>
       </set>
       <set comment="band 24">
        <r>  0.0015  0.0276  0.0400 </r>
        <r>  0.0015  0.0276  0.0400 </r>
        <r>  0.0028  0.0934  0.0000 </r>
        <r>  0.0028  0.0934  0.0000 </r>
       </set>
       <set comment="band 25">
        <r>  0.0018  0.1747  0.0089 </r>
        <r>  0.0018  0.1747  0.0089 </r>
        <r>  0.0459  0.0027  0.0000 </r>
        <r>  0.0459  0.0027  0.0000 </r>
       </set>
       <set comment="band 26">
        <r>  0.0018  0.1747  0.0089 </r>
        <r>  0.0018  0.1747  0.0089 </r>
        <r>  0.0459  0.0027  0.0000 </r>
        <r>  0.0459  0.0027  0.0000 </r>
       </set>
       <set comment="band 27">
        <r>  0.0000  0.0003  0.0439 </r>
        <r>  0.0000  0.0003  0.0439 </r>
        <r>  0.0000  0.0672  0.0000 </r>
        <r>  0.0000  0.0672  0.0000 </r>
       </set>
       <set comment="band 28">
        <r>  0.0049  0.1064  0.0406 </r>
        <r>  0.0049  0.1064  0.0406 </r>
        <r>  0.0079  0.0083  0.0000 </r>
        <r>  0.0079  0.0083  0.0000 </r>
       </set>
       <set comment="band 29">
        <r>  0.0049  0.1064  0.0406 </r>
        <r>  0.0049  0.1064  0.0406 </r>
        <r>  0.0079  0.0083  0.0000 </r>
        <r>  0.0079  0.0083  0.0000 </r>
       </set>
       <set comment="band 30">
        <r>  0.0000  0.0827  0.0065 </r>
        <r>  0.0000  0.0827  0.0065 </r>
        <r>  0.0000  0.0133  0.0000 </r>
        <r>  0.0000  0.0133  0.0000 </r>
       </set>
       <set comment="band 31">
        <r>  0.0000  0.0258  0.0311 </r>
        <r>  0.0000  0.0258  0.0311 </r>
        <r>  0.0000  0.0342  0.0000 </r>
        <r>  0.0000  0.0342  0.0000 </r>
       </set>
       <set comment="band 32">
        <r>  0.0000  0.0668  0.0416 </r>
        <r>  0.0000  0.0668  0.0416 </r>
        <r>  0.0000  0.0130  0.0000 </r>
        <r>  0.0000  0.0130  0.0000 </r>
       </set>
       <set comment="band 33">
        <r>  0.0036  0.0420  0.0122 </r>
        <r>  0.0343  0.0413  0.0045 </r>
        <r>  0.0000  0.0254  0.0000 </r>
        <r>  0.0005  0.0066  0.0000 </r>
       </set>
       <set comment="band 34">
        <r>  0.0342  0.0413  0.0046 </r>
        <r>  0.0036  0.0420  0.0122 </r>
        <r>  0.0005  0.0067  0.0000 </r>
        <r>  0.0000  0.0254  0.0000 </r>
       </set>
      </set>
      <set comment="kpoint 276">
       <set comment="band 1">
        <r>  0.0054  0.0166  0.0252 </r>
        <r>  0.0054  0.0166  0.0252 </r>
        <r>  0.3143  0.0002  0.0000 </r>
        <r>  0.3144  0.0002  0.0000 </r>
       </set>
       <set comment="band 2">
        <r>  0.0054  0.0166  0.0252 </r>
        <r>  0.0054  0.0166  0.0252 </r>
        <r>  0.3144  0.0002  0.0000 </r>
        <r>  0.3143  0.0002  0.0000 </r>
       </set>
       <set comment="band 3">
        <r>  0.0000  0.0020  0.4254 </r>
        <r>  0.0000  0.0020  0.4254 </r>
        <r>  0.0000  0.0279  0.0000 </r>
        <r>  0.0000  0.0279  0.0000 </r>
       </set>
       <set comment="band 4">
        <r>  0.0000  0.0032  0.4409 </r>
        <r>  0.0000  0.0032  0.4409 </r>
        <r>  0.0000  0.0243  0.0000 </r>
        <r>  0.0000  0.0243  0.0000 </r>
       </set>
       <set comment="band 5">
        <r>  0.0000  0.0032  0.4409 </r>
        <r>  0.0000  0.0032  0.4409 </r>
        <r>  0.0000  0.0243  0.0000 </r>
        <r>  0.0000  0.0243  0.0000 </r>
       </set>
       <set comment="band 6">
        <r>  0.0000  0.0019  0.4668 </r>
        <r>  0.0000  0.0019  0.4668 </r>
        <r>  0.0000  0.0120  0.0000 </r>
        <r>  0.0000  0.0120  0.0000 </r>
       </set>
       <set comment="band 7">
        <r>  0.0028  0.0002  0.4666 </r>
        <r>  0.0028  0.0002  0.4667 </r>
        <r>  0.0000  0.0033  0.0000 </r>
        <r>  0.0000  0.0033  0.0000 </r>
       </set>
       <set comment="band 8">
        <r>  0.0028  0.0002  0.4667 </r>
        <r>  0.0028  0.0002  0.4666 </r>
        <r>  0.0000  0.0033  0.0000 </r>
        <r>  0.0000  0.0033  0.0000 </r>
       </set>
       <set comment="band 9">
        <r>  0.0000  0.0000  0.4829 </r>
        <r>  0.0000  0.0000  0.4829 </r>
        <r>  0.0000  0.0000  0.0000 </r>
        <r>  0.0000  0.0000  0.0000 </r>
       </set>
       <set comment="band 10">
        <r>  0.0000  0.0014  0.4698 </r>
        <r>  0.0000  0.0014  0.4698 </r>
        <r>  0.0000  0.0040  0.0000 </r>
        <r>  0.0000  0.0040  0.0000 </r>
       </set>
       <set comment="band 11">
        <r>  0.0221  0.0007  0.4082 </r>
        <r>  0.0221  0.0007  0.4082 </r>
        <r>  0.0072  0.0218  0.0000 </r>
        <r>  0.0071  0.0218  0.0000 </r>
       </set>
       <set comment="band 12">
        <r>  0.0221  0.0007  0.4082 </r>
        <r>  0.0221  0.0007  0.4082 </r>
        <r>  0.0071  0.0218  0.0000 </r>
        <r>  0.0071  0.0218  0.0000 </r>
       </set>
       <set comment="band 13">
        <r>  0.1199  0.0051  0.0765 </r>
        <r>  0.1199  0.0051  0.0765 </r>
        <r>  0.0140  0.1213  0.0000 </r>
        <r>  0.0140  0.1213  0.0000 </r>
       </set>
       <set comment="band 14">
        <r>  0.1199  0.0051  0.0765 </r>
        <r>  0.1199  0.0051  0.0765 </r>
        <r>  0.0140  0.1214  0.0000 </r>
        <r>  0.0140  0.1214  0.0000 </r>
       </set>
       <set comment="band 15">
        <r>  0.0000  0.0596  0.0320 </r>
        <r>  0.0000  0.0596  0.0320 </r>
        <r>  0.0000  0.1542  0.0000 </r>
        <r>  0.0000  0.1542  0.0000 </r>
       </set>
       <set comment="band 16">
        <r>  0.0049  0.0526  0.0537 </r>
        <r>  0.0049  0.0526  0.0537 </r>
        <r>  0.0004  0.1824  0.0000 </r>
        <r>  0.0004  0.1824  0.0000 </r>
       </set>
       <set comment="band 17">
        <r>  0.0049  0.0526  0.0537 </r>
        <r>  0.0049  0.0526  0.0537 </r>
        <r>  0.0004  0.1824  0.0000 </r>
        <r>  0.0004  0.1824  0.0000 </r>
       </set>
       <set comment="band 18">
        <r>  0.0000  0.0509  0.0615 </r>
        <r>  0.0000  0.0509  0.0615 </r>
        <r>  0.0000  0.1851  0.0000 </r>
        <r>  0.0000  0.1851  0.0000 </r>
       </set>
       <set comment="band 19">
        <r>  0.0000  0.0572  0.0329 </r>
        <r>  0.0000  0.0572  0.0329 </r>
        <r>  0.0000  0.0136  0.0000 </r>
        <r>  0.0000  0.0136  0.0000 </r>
       </set>
       <set comment="band 20">
        <r>  0.1427  0.0039  0.0012 </r>
        <r>  0.1427  0.0039  0.0012 </r>
        <r>  0.0070  0.1552  0.0000 </r>
        <r>  0.0070  0.1552  0.0000 </r>
       </set>
       <set comment="band 21">
        <r>  0.1427  0.0039  0.0012 </r>
        <r>  0.1427  0.0039  0.0012 </r>
        <r>  0.0070  0.1552  0.0000 </r>
        <r>  0.0070  0.1552  0.0000 </r>
       </set>
       <set comment="band 22">
        <r>  0.0000  0.0004  0.0514 </r>
        <r>  0.0000  0.0004  0.0514 </r>
        <r>  0.0000  0.1158  0.0000 </r>
        <r>  0.0000  0.1158  0.0000 </r>
       </set>
       <set comment="band 23">
        <r>  0.0006  0.0259  0.0408 </r>
        <r>  0.0006  0.0259  0.0408 </r>
        <r>  0.0024  0.0942  0.0000 </r>
        <r>  0.0024  0.0942  0.0000 </r>
       </set>
       <set comment="band 24">
        <r>  0.0006  0.0259  0.0408 </r>
        <r>  0.0006  0.0259  0.0408 </r>
        <r>  0.0024  0.0942  0.0000 </r>
        <r>  0.0024  0.0942  0.0000 </r>
       </set>
       <set comment="band 25">
        <r>  0.0020  0.1762  0.0085 </r>
        <r>  0.0020  0.1762  0.0085 </r>
        <r>  0.0467  0.0007  0.0000 </r>
        <r>  0.0467  0.0007  0.0000 </r>
       </set>
       <set comment="band 26">
        <r>  0.0020  0.1762  0.0085 </r>
        <r>  0.0020  0.1762  0.0085 </r>
        <r>  0.0467  0.0007  0.0000 </r>
        <r>  0.0467  0.0007  0.0000 </r>
       </set>
       <set comment="band 27">
        <r>  0.0000  0.0002  0.0438 </r>
        <r>  0.0000  0.0002  0.0438 </r>
        <r>  0.0000  0.0673  0.0000 </r>
        <r>  0.0000  0.0673  0.0000 </r>
       </set>
       <set comment="band 28">
        <r>  0.0048  0.1071  0.0404 </r>
        <r>  0.0048  0.1071  0.0404 </r>
        <r>  0.0079  0.0084  0.0000 </r>
        <r>  0.0079  0.0084  0.0000 </r>
       </set>
       <set comment="band 29">
        <r>  0.0048  0.1071  0.0404 </r>
        <r>  0.0048  0.1071  0.0404 </r>
        <r>  0.0079  0.0084  0.0000 </r>
        <r>  0.0079  0.0084  0.0000 </r>
       </set>
       <set comment="band 30">
        <r>  0.0000  0.0848  0.0052 </r>
        <r>  0.0000  0.0848  0.0052 </r>
        <r>  0.0000  0.0136  0.0000 </r>
        <r>  0.0000  0.0136  0.0000 </r>
       </set>
       <set comment="band 31">
        <r>  0.0000  0.0237  0.0324 </r>
        <r>  0.0000  0.0237  0.0324 </r>
        <r>  0.0000  0.0338  0.0000 </r>
        <r>  0.0000  0.0338  0.0000 </r>
       </set>
       <set comment="band 32">
        <r>  0.0000  0.0667  0.0417 </r>
        <r>  0.0000  0.0667  0.0417 </r>
        <r>  0.0000  0.0128  0.0000 </r>
        <r>  0.0000  0.0128  0.0000 </r>
       </set>
       <set comment="band 33">
        <r>  0.0090  0.0417  0.0110 </r>
        <r>  0.0294  0.0410  0.0058 </r>
        <r>  0.0001  0.0218  0.0000 </r>
        <r>  0.0004  0.0096  0.0000 </r>
       </set>
       <set comment="band 34">
        <r>  0.0293  0.0410  0.0058 </r>
        <r>  0.0090  0.0417  0.0110 </r>
        <r>  0.0004  0.0097  0.0000 </r>
        <r>  0.0001  0.0218  0.0000 </r>
       </set>
      </set>
     </set>
    </set>
   </array>
  </projected>
 </calculation>
 <structure name="finalpos" >
  <crystal>
   <varray name="basis" >
    <v>       3.78158387       0.00000000       0.00000000 </v>
    <v>      -1.89079194       3.27494770       0.00000000 </v>
    <v>       0.00000000       0.00000000       6.20476623 </v>
   </varray>
   <i name="volume">     76.84286172 </i>
   <varray name="rec_basis" >
    <v>       0.26443946       0.15267419      -0.00000000 </v>
    <v>       0.00000000       0.30534839       0.00000000 </v>
    <v>       0.00000000      -0.00000000       0.16116643 </v>
   </varray>
  </crystal>
  <varray name="positions" >
   <v>       0.66666667       0.33333333       0.50040087 </v>
   <v>       0.33333333       0.66666667       0.00040087 </v>
   <v>       0.66666667       0.33333333       0.87459913 </v>
   <v>       0.33333333       0.66666667       0.37459913 </v>
  </varray>
 </structure>
</modeling>
