       N       E                     dE             d eps       ncg     rms           ort
SDA:   1    -0.675032303252E+03   -0.67503E+03    0.00000E+00  2520   0.320E-03   0.000E+00
CGA:   2    -0.675032380999E+03   -0.77747E-04   -0.77730E-04  2520   0.211E-03   0.203E-06
CGA:   3    -0.675032454520E+03   -0.73521E-04   -0.73556E-04  2520   0.822E-04  -0.232E-06
CGA:   4    -0.675032475954E+03   -0.21434E-04   -0.21424E-04  2520   0.129E-04   0.235E-06
CGA:   5    -0.675032479355E+03   -0.34011E-05   -0.34156E-05  2520   0.377E-05  -0.342E-06
   1 F= -.67503248E+03 E0= -.67501550E+03  d E =-.675032E+03  mag=     1.4442
       N       E                     dE             d eps       ncg     rms           ort
SDA:   1    -0.675018617100E+03    0.13859E-01    0.00000E+00  2520   0.310E-01   0.000E+00
CGA:   2    -0.675030694830E+03   -0.12078E-01   -0.12075E-01  2520   0.881E-02   0.161E-04
CGA:   3    -0.675032426429E+03   -0.17316E-02   -0.17266E-02  2520   0.195E-02  -0.231E-04
CGA:   4    -0.675032824775E+03   -0.39835E-03   -0.39846E-03  2520   0.234E-03   0.116E-05
CGA:   5    -0.675032886988E+03   -0.62213E-04   -0.62232E-04  2520   0.542E-04  -0.717E-06
CGA:   6    -0.675032900145E+03   -0.13157E-04   -0.13157E-04  2520   0.132E-04   0.146E-06
CGA:   7    -0.675032903771E+03   -0.36260E-05   -0.36271E-05  2520   0.465E-05  -0.367E-07
   2 F= -.67503290E+03 E0= -.67501591E+03  d E =-.424415E-03  mag=     1.4449
       N       E                     dE             d eps       ncg     rms           ort
SDA:   1    -0.675028727898E+03    0.41722E-02    0.00000E+00  2520   0.921E-02   0.000E+00
CGA:   2    -0.675032316781E+03   -0.35889E-02   -0.35888E-02  2520   0.258E-02   0.390E-06
CGA:   3    -0.675032824709E+03   -0.50793E-03   -0.50697E-03  2520   0.577E-03  -0.210E-05
CGA:   4    -0.675032942364E+03   -0.11765E-03   -0.11769E-03  2520   0.722E-04   0.222E-06
CGA:   5    -0.675032961810E+03   -0.19446E-04   -0.19452E-04  2520   0.172E-04  -0.352E-06
CGA:   6    -0.675032965946E+03   -0.41361E-05   -0.41366E-05  2520   0.439E-05   0.495E-07
   3 F= -.67503297E+03 E0= -.67501596E+03  d E =-.486590E-03  mag=     1.4455
       N       E                     dE             d eps       ncg     rms           ort
SDA:   1    -0.675020712489E+03    0.12249E-01    0.00000E+00  2520   0.274E-01   0.000E+00
CGA:   2    -0.675031075333E+03   -0.10363E-01   -0.10355E-01  2520   0.101E-01   0.495E-04
CGA:   3    -0.675032881643E+03   -0.18063E-02   -0.17904E-02  2520   0.157E-02   0.313E-06
CGA:   4    -0.675033233328E+03   -0.35168E-03   -0.35175E-03  2520   0.221E-03   0.992E-06
CGA:   5    -0.675033289792E+03   -0.56464E-04   -0.56465E-04  2520   0.482E-04  -0.525E-06
CGA:   6    -0.675033301529E+03   -0.11736E-04   -0.11735E-04  2520   0.121E-04  -0.113E-06
CGA:   7    -0.675033304647E+03   -0.31186E-05   -0.31184E-05  2520   0.420E-05   0.644E-07
   4 F= -.67503330E+03 E0= -.67501627E+03  d E =-.338702E-03  mag=     1.4465
