 vasp.6.5.1 10Mar25 (build May 13 2025 11:33:44) complex                         
 executed on              LinuxNV date 2026.05.05  08:38:51
 running    2 mpi-ranks, on    1 nodes
 distrk:  each k-point on    1 cores,    2 groups
 distr:  one band on NCORE=   1 cores,    1 groups
 Offloading initialized ...    2 GPUs detected


--------------------------------------------------------------------------------------------------------


 INCAR:
   ALGO = All
   PREC = Normal
   LREAL = Auto
   EDIFF = 1e-05
   ENCUT = 400.0
   LASPH = True
   NELM = 100
   ISIF = 2
   IBRION = 2
   EDIFFG = -0.03
   NSW = 300
   ISMEAR = 0
   SIGMA = 0.1
   ISPIN = 2
   LWAVE = True
   LCHARG = False
   ISTART = 1
   ICHARGE = 1
   LORBIT = 10
   LHFCALC = True
   PRECFOCK = Fast
   AEXX = 0.36
   HFSCREEN = 0.2
   TIME = 0.4
   NELECT = 960.0
   KPAR = 4

 POTCAR:    PAW_PBE Zn 06Sep2000                  
 POTCAR:    PAW_PBE O 08Apr2002                   
 POTCAR:    PAW_PBE Na 08Apr2002                  
 -----------------------------------------------------------------------------
|                                                                             |
|           W    W    AA    RRRRR   N    N  II  N    N   GGGG   !!!           |
|           W    W   A  A   R    R  NN   N  II  NN   N  G    G  !!!           |
|           W    W  A    A  R    R  N N  N  II  N N  N  G       !!!           |
|           W WW W  AAAAAA  RRRRR   N  N N  II  N  N N  G  GGG   !            |
|           WW  WW  A    A  R   R   N   NN  II  N   NN  G    G                |
|           W    W  A    A  R    R  N    N  II  N    N   GGGG   !!!           |
|                                                                             |
|     You requested a magnetic or noncollinear calculation, but did not       |
|     specify the initial magnetic moment with the MAGMOM tag. Note that      |
|     a default of 1 will be used for all atoms. This ferromagnetic setup     |
|     may break the symmetry of the crystal, in particular it may rule        |
|     out finding an antiferromagnetic solution. Thence, we recommend         |
|     setting the initial magnetic moment manually or verifying carefully     |
|     that this magnetic setup is desired.                                    |
|                                                                             |
 -----------------------------------------------------------------------------

 POTCAR:    PAW_PBE Zn 06Sep2000                  
   SHA256 =  501fddbd8274dd8e9725d4f3de27861d7f1e553a7e18441bc79fed8f346e7f23 Zn/POTCAR             
   COPYR  = (c) Copyright 06Sep2000 Georg Kresse                                                    
   COPYR  = This file is part of the software VASP. Any use, copying, and all other rights are regul
   COPYR  = If you do not have a valid VASP license, you may not use, copy or distribute this file. 
   VRHFIN =Zn: d10 p2                                                                               
   LEXCH  = PE                                                                                      
   EATOM  =  1748.8345 eV,  128.5357 Ry                                                             
                                                                                                    
   TITEL  = PAW_PBE Zn 06Sep2000                                                                    
   LULTRA =        F    use ultrasoft PP ?                                                          
   IUNSCR =        1    unscreen: 0-lin 1-nonlin 2-no                                               
   RPACOR =    2.000    partial core radius                                                         
   POMASS =   65.390; ZVAL   =   12.000    mass and valenz                                          
   RCORE  =    2.300    outmost cutoff radius                                                       
   RWIGS  =    2.400; RWIGS  =    1.270    wigner-seitz radius (au A)                               
   ENMAX  =  276.723; ENMIN  =  207.542 eV                                                          
   RCLOC  =    1.828    cutoff for local pot                                                        
   LCOR   =        T    correct aug charges                                                         
   LPAW   =        T    paw PP                                                                      
   EAUG   =  575.892                                                                                
   DEXC   =    0.000                                                                                
   RMAX   =    2.347    core radius for proj-oper                                                   
   RAUG   =    1.300    factor for augmentation sphere                                              
   RDEP   =    2.324    radius for radial grids                                                     
   RDEPT  =    1.788    core radius for aug-charge                                                  
                                                                                                    
   Atomic configuration                                                                             
    9 entries                                                                                       
     n  l   j            E        occ.                                                              
     1  0  0.50     -9524.6913   2.0000                                                             
     2  0  0.50     -1158.1882   2.0000                                                             
     2  1  1.50     -1003.8506   6.0000                                                             
     3  0  0.50      -129.2194   2.0000                                                             
     3  1  1.50       -83.3890   6.0000                                                             
     3  2  2.50       -10.1410  10.0000                                                             
     4  0  0.50        -5.9785   2.0000                                                             
     4  1  0.50        -4.0817   0.0000                                                             
     4  3  2.50        -1.3606   0.0000                                                             
   Description                                                                                      
     l       E           TYP  RCUT    TYP  RCUT                                                     
     2    -10.1410010     23  2.300                                                                 
     2    -11.5015836     23  2.300                                                                 
     0     -5.9785163     23  2.300                                                                 
     0      1.1858015     23  2.300                                                                 
     1     -2.7211652     23  2.300                                                                 
     1     13.2444212     23  2.300                                                                 
  local pseudopotential read in
  partial core-charges read in
  partial kinetic energy density read in
  atomic valenz-charges read in
  non local Contribution for L=            2  read in
    real space projection operators read in
  non local Contribution for L=            2  read in
    real space projection operators read in
  non local Contribution for L=            0  read in
    real space projection operators read in
  non local Contribution for L=            0  read in
    real space projection operators read in
  non local Contribution for L=            1  read in
    real space projection operators read in
  non local Contribution for L=            1  read in
    real space projection operators read in
    PAW grid and wavefunctions read in
 
   number of l-projection  operators is LMAX  =            6
   number of lm-projection operators is LMMAX =           18
 
 POTCAR:    PAW_PBE O 08Apr2002                   
   SHA256 =  818f92134a0a090dccd8ba1447fa70422a3b330e708bb4f08108d8ae51209ddf O/POTCAR              
   COPYR  = (c) Copyright 08Apr2002 Georg Kresse                                                    
   COPYR  = This file is part of the software VASP. Any use, copying, and all other rights are regul
   COPYR  = If you do not have a valid VASP license, you may not use, copy or distribute this file. 
   VRHFIN =O: s2p4                                                                                  
   LEXCH  = PE                                                                                      
   EATOM  =   432.3788 eV,   31.7789 Ry                                                             
                                                                                                    
   TITEL  = PAW_PBE O 08Apr2002                                                                     
   LULTRA =        F    use ultrasoft PP ?                                                          
   IUNSCR =        1    unscreen: 0-lin 1-nonlin 2-no                                               
   RPACOR =    1.200    partial core radius                                                         
   POMASS =   16.000; ZVAL   =    6.000    mass and valenz                                          
   RCORE  =    1.520    outmost cutoff radius                                                       
   RWIGS  =    1.550; RWIGS  =    0.820    wigner-seitz radius (au A)                               
   ENMAX  =  400.000; ENMIN  =  300.000 eV                                                          
   ICORE  =        2    local potential                                                             
   LCOR   =        T    correct aug charges                                                         
   LPAW   =        T    paw PP                                                                      
   EAUG   =  605.392                                                                                
   DEXC   =    0.000                                                                                
   RMAX   =    1.553    core radius for proj-oper                                                   
   RAUG   =    1.300    factor for augmentation sphere                                              
   RDEP   =    1.550    radius for radial grids                                                     
   RDEPT  =    1.329    core radius for aug-charge                                                  
                                                                                                    
   Atomic configuration                                                                             
    4 entries                                                                                       
     n  l   j            E        occ.                                                              
     1  0  0.50      -514.6923   2.0000                                                             
     2  0  0.50       -23.9615   2.0000                                                             
     2  1  0.50        -9.0305   4.0000                                                             
     3  2  1.50        -9.5241   0.0000                                                             
   Description                                                                                      
     l       E           TYP  RCUT    TYP  RCUT                                                     
     0    -23.9615318     23  1.200                                                                 
     0     -9.5240782     23  1.200                                                                 
     1     -9.0304911     23  1.520                                                                 
     1      8.1634956     23  1.520                                                                 
     2     -9.5240782      7  1.500                                                                 
  local pseudopotential read in
  partial core-charges read in
  partial kinetic energy density read in
  kinetic energy density of atom read in
  atomic valenz-charges read in
  non local Contribution for L=            0  read in
    real space projection operators read in
  non local Contribution for L=            0  read in
    real space projection operators read in
  non local Contribution for L=            1  read in
    real space projection operators read in
  non local Contribution for L=            1  read in
    real space projection operators read in
    PAW grid and wavefunctions read in
 
   number of l-projection  operators is LMAX  =            4
   number of lm-projection operators is LMMAX =            8
 
 POTCAR:    PAW_PBE Na 08Apr2002                  
   SHA256 =  28de979e29d3a0ce6b912090ec41d2d3fb15239b988ee49a7215736a384d2747 Na/POTCAR             
   COPYR  = (c) Copyright 08Apr2002 Georg Kresse                                                    
   COPYR  = This file is part of the software VASP. Any use, copying, and all other rights are regul
   COPYR  = If you do not have a valid VASP license, you may not use, copy or distribute this file. 
   VRHFIN =Na: s1p0                                                                                 
   LEXCH  = PE                                                                                      
   EATOM  =     5.1581 eV,    0.3791 Ry                                                             
                                                                                                    
   TITEL  = PAW_PBE Na 08Apr2002                                                                    
   LULTRA =        F    use ultrasoft PP ?                                                          
   IUNSCR =        1    unscreen: 0-lin 1-nonlin 2-no                                               
   RPACOR =    1.800    partial core radius                                                         
   POMASS =   22.990; ZVAL   =    1.000    mass and valenz                                          
   RCORE  =    2.200    outmost cutoff radius                                                       
   RWIGS  =    3.320; RWIGS  =    1.757    wigner-seitz radius (au A)                               
   ENMAX  =  101.968; ENMIN  =   76.476 eV                                                          
   ICORE  =        2    local potential                                                             
   LCOR   =        T    correct aug charges                                                         
   LPAW   =        T    paw PP                                                                      
   EAUG   =  250.695                                                                                
   DEXC   =    0.000                                                                                
   RMAX   =    2.245    core radius for proj-oper                                                   
   RAUG   =    1.300    factor for augmentation sphere                                              
   RDEP   =    2.259    radius for radial grids                                                     
   RDEPT  =    2.115    core radius for aug-charge                                                  
                                                                                                    
   Atomic configuration                                                                             
    6 entries                                                                                       
     n  l   j            E        occ.                                                              
     1  0  0.50     -1033.6933   2.0000                                                             
     2  0  0.50       -56.7526   2.0000                                                             
     2  1  1.50       -28.6721   6.0000                                                             
     3  0  0.50        -2.7440   1.0000                                                             
     3  1  0.50        -1.3606   0.0000                                                             
     3  2  1.50        -1.3606   0.0000                                                             
   Description                                                                                      
     l       E           TYP  RCUT    TYP  RCUT                                                     
     0     -2.7439560     23  2.200                                                                 
     0     27.2116520     23  2.200                                                                 
     1     -1.3605826     23  2.200                                                                 
     2     -1.3605826     23  2.200                                                                 
  local pseudopotential read in
  partial core-charges read in
  partial kinetic energy density read in
  atomic valenz-charges read in
  non local Contribution for L=            0  read in
    real space projection operators read in
  non local Contribution for L=            0  read in
    real space projection operators read in
  non local Contribution for L=            1  read in
    real space projection operators read in
    PAW grid and wavefunctions read in
 
   number of l-projection  operators is LMAX  =            3
   number of lm-projection operators is LMMAX =            5
 
 Optimization of the real space projectors (new method)

 maximal supplied QI-value         = 16.25
 optimisation between [QCUT,QGAM] = [ 10.24, 20.48] = [ 29.35,117.42] Ry 
 Optimized for a Real-space Cutoff    1.38 Angstroem

   l    n(q)    QCUT    max X(q) W(low)/X(q) W(high)/X(q)  e(spline) 
   2      7    10.239    46.356    0.21E-03    0.48E-03    0.10E-06
   2      7    10.239    41.843    0.21E-03    0.50E-03    0.10E-06
   0      8    10.239    48.958    0.37E-03    0.79E-04    0.11E-06
   0      8    10.239    32.776    0.35E-03    0.73E-04    0.10E-06
   1      8    10.239    17.787    0.49E-03    0.70E-03    0.14E-06
   1      8    10.239    14.435    0.42E-03    0.61E-03    0.13E-06
 Optimization of the real space projectors (new method)

 maximal supplied QI-value         = 24.76
 optimisation between [QCUT,QGAM] = [ 10.15, 20.30] = [ 28.85,115.39] Ry 
 Optimized for a Real-space Cutoff    1.38 Angstroem

   l    n(q)    QCUT    max X(q) W(low)/X(q) W(high)/X(q)  e(spline) 
   0      8    10.150    20.381    0.22E-03    0.32E-03    0.29E-06
   0      8    10.150    15.268    0.23E-03    0.35E-03    0.30E-06
   1      8    10.150     5.964    0.46E-03    0.53E-03    0.21E-06
   1      8    10.150     5.382    0.38E-03    0.45E-03    0.19E-06
 Optimization of the real space projectors (new method)

 maximal supplied QI-value         = 17.01
 optimisation between [QCUT,QGAM] = [ 10.20, 20.41] = [ 29.16,116.64] Ry 
 Optimized for a Real-space Cutoff    1.19 Angstroem

   l    n(q)    QCUT    max X(q) W(low)/X(q) W(high)/X(q)  e(spline) 
   0      7    10.205    45.123    0.22E-03    0.82E-03    0.11E-06
   0      7    10.205    12.364    0.17E-03    0.61E-03    0.75E-07
   1      7    10.205     8.302    0.37E-03    0.15E-03    0.27E-07
  PAW_PBE Zn 06Sep2000                  :
 energy of atom  1       EATOM=-1748.8345
 kinetic energy error for atom=    0.0107 (will be added to EATOM!!)
  PAW_PBE O 08Apr2002                   :
 energy of atom  2       EATOM= -432.3788
 kinetic energy error for atom=    0.1156 (will be added to EATOM!!)
  PAW_PBE Na 08Apr2002                  :
 energy of atom  3       EATOM=   -5.1581
 kinetic energy error for atom=    0.0001 (will be added to EATOM!!)
 
 
 POSCAR: Na1 Zn53 O54
  positions in direct lattice
  velocities in cartesian coordinates


 exchange-correlation table for PE
   RHO(1)=    0.500       N(1)  =     2000
   RHO(2)=  100.500       N(2)  =     4000
 


--------------------------------------------------------------------------------------------------------


 ion  position               nearest neighbor table
   1  0.111  0.222  0.332-  84 1.98  99 1.98  81 1.98  55 2.00
   2  0.110  0.223  0.666- 100 1.96  85 1.96  82 1.98  56 2.02
   3  0.112  0.556  0.000-  86 1.93 104 1.98  57 1.99  89 1.99 108 3.21
   4  0.111  0.556  0.334-  84 1.97 102 1.98  87 1.98  58 1.98
   5  0.111  0.556  0.666- 103 1.97  88 1.97  85 1.97  59 1.98
   6  0.101  0.872  0.004-  89 1.93 107 1.94  60 1.95  83 2.05 108 3.40
   7  0.111  0.888  0.335-  81 1.96  87 1.97 105 1.98  61 1.98
   8  0.110  0.887  0.665- 106 1.96  88 1.96  82 1.98  62 2.00
   9  0.461  0.232  0.004-  92 1.93  95 1.94  63 1.95  83 2.05 108 3.41
  10  0.445  0.222  0.335-  81 1.97  90 1.97  93 1.98  64 1.98
  11  0.446  0.223  0.665-  94 1.96  91 1.96  82 1.98  65 2.00
  12  0.445  0.558  0.001-  86 1.92  98 1.97  66 1.98  95 1.98 108 3.27
  13  0.445  0.556  0.334-  84 1.97  96 1.97  93 1.98  67 1.98
  14  0.445  0.556  0.665-  97 1.97  94 1.97  85 1.97  68 1.98
  15  0.444  0.889  0.000-  98 1.97  92 1.98  89 1.98  69 1.98
  16  0.445  0.889  0.334-  96 1.97  90 1.97  87 1.97  70 1.98
  17  0.445  0.889  0.667-  97 1.97  91 1.97  88 1.97  71 1.99
  18  0.777  0.221  0.000- 101 1.93 104 1.98  72 1.99  92 1.99 108 3.21
  19  0.778  0.223  0.334-  99 1.97 102 1.98  90 1.98  73 1.98
  20  0.778  0.223  0.666- 103 1.97  91 1.97 100 1.97  74 1.98
  21  0.778  0.555  0.000- 104 1.97 107 1.98  95 1.98  75 1.98
  22  0.778  0.555  0.334- 102 1.97  93 1.97 105 1.97  76 1.98
  23  0.778  0.555  0.667- 103 1.97  94 1.97 106 1.97  77 1.99
  24  0.775  0.888  0.001- 101 1.92  98 1.97  78 1.98 107 1.98 108 3.26
  25  0.777  0.888  0.334-  99 1.97  96 1.97 105 1.98  79 1.98
  26  0.777  0.889  0.665-  97 1.97 106 1.97 100 1.97  80 1.98
  27  0.222  0.111  0.170-  54 1.93  81 1.98  60 1.99  63 1.99 108 3.27
  28  0.222  0.111  0.500-  55 1.97  61 1.97  64 1.97  82 2.00
  29  0.222  0.111  0.821-  65 1.94  62 1.94  56 1.94  83 2.09 108 3.41
  30  0.222  0.443  0.169-  54 1.93  57 1.99  66 1.99  84 1.99 108 3.21
  31  0.222  0.444  0.499-  55 1.97  67 1.97  58 1.97  85 1.99
  32  0.224  0.448  0.832-  86 1.94  59 1.97  68 1.97  56 1.99 108 3.25
  33  0.223  0.777  0.168-  57 1.97  69 1.98  87 1.98  60 1.99
  34  0.223  0.778  0.500-  58 1.97  70 1.97  61 1.97  88 1.98
  35  0.222  0.777  0.832-  59 1.97  71 1.97  62 1.98  89 1.99
  36  0.556  0.110  0.168-  72 1.97  69 1.98  90 1.98  63 1.99
  37  0.556  0.111  0.500-  73 1.97  70 1.97  64 1.97  91 1.98
  38  0.556  0.111  0.832-  74 1.97  71 1.97  65 1.98  92 1.99
  39  0.556  0.446  0.168-  66 1.97  93 1.98  75 1.98  63 1.99
  40  0.556  0.445  0.500-  67 1.97  76 1.97  64 1.97  94 1.98
  41  0.556  0.445  0.832-  77 1.97  68 1.97  65 1.98  95 2.00
  42  0.555  0.778  0.168-  66 1.98  78 1.98  69 1.98  96 1.98
  43  0.555  0.778  0.500-  79 1.97  67 1.97  70 1.97  97 1.98
  44  0.556  0.777  0.832-  68 1.97  80 1.97  71 1.97  98 1.99
  45  0.890  0.112  0.169-  54 1.93  72 1.99  78 1.99  99 1.99 108 3.20
  46  0.889  0.111  0.499-  55 1.97  79 1.97  73 1.97 100 1.99
  47  0.885  0.109  0.832- 101 1.94  74 1.97  80 1.97  56 1.99 108 3.24
  48  0.889  0.444  0.167-  57 1.98  72 1.98  75 1.98 102 1.99
  49  0.889  0.445  0.500-  58 1.97  73 1.97  76 1.97 103 1.98
  50  0.889  0.444  0.833-  59 1.97  74 1.97  77 1.97 104 2.00
  51  0.888  0.777  0.168-  78 1.97 105 1.98  75 1.98  60 1.99
  52  0.888  0.777  0.500-  79 1.97  76 1.97  61 1.97 106 1.98
  53  0.888  0.777  0.832-  77 1.97  80 1.97  62 1.98 107 2.00
  54  0.112  0.221  0.139-  27 1.93  30 1.93  45 1.93 108 2.15
  55  0.111  0.222  0.460-  28 1.97  31 1.97  46 1.97   1 2.00
  56  0.110  0.223  0.795-  29 1.94  32 1.99  47 1.99   2 2.02
  57  0.112  0.556  0.127-  33 1.97  48 1.98   3 1.99  30 1.99
  58  0.111  0.556  0.461-  34 1.97  49 1.97  31 1.97   4 1.98
  59  0.110  0.556  0.792-  35 1.97  50 1.97  32 1.97   5 1.98
  60  0.111  0.889  0.128-   6 1.95  51 1.99  33 1.99  27 1.99
  61  0.111  0.889  0.462-  52 1.97  34 1.97  28 1.97   7 1.98
  62  0.110  0.888  0.793-  29 1.94  53 1.98  35 1.98   8 2.00
  63  0.445  0.222  0.128-   9 1.95  39 1.99  36 1.99  27 1.99
  64  0.445  0.222  0.462-  40 1.97  37 1.97  28 1.97  10 1.98
  65  0.446  0.223  0.793-  29 1.94  41 1.98  38 1.98  11 2.00
  66  0.445  0.556  0.128-  39 1.97  12 1.98  42 1.98  30 1.99
  67  0.445  0.556  0.461-  40 1.97  43 1.97  31 1.97  13 1.98
  68  0.446  0.556  0.792-  41 1.97  44 1.97  32 1.97  14 1.98
  69  0.444  0.889  0.127-  33 1.98  36 1.98  42 1.98  15 1.98
  70  0.444  0.889  0.461-  34 1.97  37 1.97  43 1.97  16 1.98
  71  0.444  0.889  0.794-  35 1.97  38 1.97  44 1.97  17 1.99
  72  0.777  0.222  0.127-  36 1.97  48 1.98  18 1.99  45 1.99
  73  0.778  0.222  0.461-  37 1.97  49 1.97  46 1.97  19 1.98
  74  0.777  0.223  0.792-  38 1.97  50 1.97  47 1.97  20 1.98
  75  0.778  0.555  0.127-  51 1.98  39 1.98  21 1.98  48 1.98
  76  0.778  0.555  0.461-  40 1.97  52 1.97  49 1.97  22 1.98
  77  0.778  0.555  0.794-  53 1.97  41 1.97  50 1.97  23 1.99
  78  0.777  0.888  0.128-  51 1.97  24 1.98  42 1.98  45 1.99
  79  0.778  0.888  0.461-  43 1.97  52 1.97  46 1.97  25 1.98
  80  0.777  0.887  0.792-  53 1.97  44 1.97  47 1.97  26 1.98
  81  0.223  0.110  0.297-   7 1.96  10 1.97   1 1.98  27 1.98
  82  0.222  0.111  0.628-   2 1.98   8 1.98  11 1.98  28 2.00
  83  0.238  0.095  0.954-   6 2.05   9 2.05  29 2.09 108 2.32
  84  0.223  0.446  0.296-  13 1.97   4 1.97   1 1.98  30 1.99
  85  0.222  0.445  0.627-   2 1.96  14 1.97   5 1.97  31 1.99
  86  0.234  0.465  0.956-  12 1.92   3 1.93  32 1.94 108 2.15
  87  0.222  0.778  0.295-   7 1.97  16 1.97   4 1.98  33 1.98
  88  0.223  0.778  0.627-   8 1.96   5 1.97  17 1.97  34 1.98
  89  0.222  0.780  0.960-   6 1.93  15 1.98  35 1.99   3 1.99
  90  0.556  0.111  0.295-  10 1.97  16 1.97  19 1.98  36 1.98
  91  0.555  0.110  0.627-  11 1.96  20 1.97  17 1.97  37 1.98
  92  0.553  0.111  0.960-   9 1.93  15 1.98  38 1.99  18 1.99
  93  0.556  0.444  0.295-  22 1.97  10 1.98  39 1.98  13 1.98
  94  0.556  0.445  0.627-  11 1.96  14 1.97  23 1.97  40 1.98
  95  0.555  0.446  0.960-   9 1.94  21 1.98  12 1.98  41 2.00
  96  0.556  0.778  0.294-  16 1.97  13 1.97  25 1.97  42 1.98
  97  0.555  0.778  0.627-  26 1.97  14 1.97  17 1.97  43 1.98
  98  0.555  0.778  0.960-  12 1.97  24 1.97  15 1.97  44 1.99
  99  0.887  0.110  0.296-  25 1.97  19 1.97   1 1.98  45 1.99
 100  0.889  0.111  0.627-   2 1.96  26 1.97  20 1.97  46 1.99
 101  0.867  0.099  0.956-  24 1.92  18 1.93  47 1.94 108 2.15
 102  0.889  0.444  0.294-  22 1.97  19 1.98   4 1.98  48 1.99
 103  0.889  0.445  0.627-   5 1.97  20 1.97  23 1.97  49 1.98
 104  0.889  0.444  0.961-  21 1.97  18 1.98   3 1.98  50 2.00
 105  0.889  0.778  0.295-  22 1.97   7 1.98  51 1.98  25 1.98
 106  0.888  0.777  0.627-   8 1.96  26 1.97  23 1.97  52 1.98
 107  0.887  0.778  0.960-   6 1.94  21 1.98  24 1.98  53 2.00
 108  0.108  0.224  0.001- 101 2.15  86 2.15  54 2.15  83 2.32  45 3.20  30 3.21  18 3.21   3 3.21
                            47 3.24  32 3.25  24 3.26  12 3.27  27 3.27   6 3.40  29 3.41   9 3.41
 
  LATTYP: Found a hexagonal cell.
 ALAT       =     9.7481175735
 C/A-ratio  =     1.6035510008
  
  Lattice vectors:
  
 A1 = (   9.7481175735,   0.0000000000,   0.0000000000)
 A2 = (  -4.8740587867,   8.4421174577,   0.0000000000)
 A3 = (   0.0000000000,   0.0000000000,  15.6316036913)


Analysis of symmetry for initial positions (statically):
=====================================================================
 Subroutine PRICEL returns:
 Original cell was already a primitive cell.
 

 Routine SETGRP: Setting up the symmetry group for a 
 hexagonal supercell.


 Subroutine GETGRP returns: Found  1 space group operations
 (whereof  1 operations were pure point group operations)
 out of a pool of 24 trial point group operations.


The static configuration has the point symmetry C_1 .


Analysis of symmetry for dynamics (positions and initial velocities):
=====================================================================
 Subroutine PRICEL returns:
 Original cell was already a primitive cell.
 

 Routine SETGRP: Setting up the symmetry group for a 
 hexagonal supercell.


 Subroutine GETGRP returns: Found  1 space group operations
 (whereof  1 operations were pure point group operations)
 out of a pool of 24 trial point group operations.


The dynamic configuration has the point symmetry C_1 .


Analysis of structural, dynamic, and magnetic symmetry:
=====================================================================
 Subroutine PRICEL returns:
 Original cell was already a primitive cell.
 

 Routine SETGRP: Setting up the symmetry group for a 
 hexagonal supercell.


 Subroutine GETGRP returns: Found  1 space group operations
 (whereof  1 operations were pure point group operations)
 out of a pool of 24 trial point group operations.


The overall configuration has the point symmetry C_1 .


 Subroutine INISYM returns: Found  1 space group operations
 (whereof  1 operations are pure point group operations),
 and found     1 'primitive' translations


----------------------------------------------------------------------------------------

                                     Primitive cell                                     

  volume of cell :    1286.3990

  direct lattice vectors                    reciprocal lattice vectors
     9.748117574  0.000000000  0.000000000     0.102583908  0.059226847 -0.000000000
    -4.874058787  8.442117458  0.000000000     0.000000000  0.118453694  0.000000000
     0.000000000  0.000000000 15.631603691     0.000000000 -0.000000000  0.063972963

  length of vectors
     9.748117574  9.748117573 15.631603691     0.118453694  0.118453694  0.063972963

  position of ions in fractional coordinates (direct lattice)
     0.111101409  0.222255370  0.332369800
     0.109934596  0.223330653  0.665566311
     0.111622688  0.555900153  0.000087650
     0.110584799  0.555608194  0.334235601
     0.110610776  0.555542472  0.665636901
     0.101226131  0.872031320  0.004011847
     0.110828045  0.888015638  0.334924168
     0.110115844  0.887057764  0.664773757
     0.460721574  0.231618540  0.003962786
     0.445313976  0.222470728  0.334905716
     0.446227391  0.223155982  0.664785223
     0.444833106  0.557579594  0.001278582
     0.444926246  0.556057925  0.334400148
     0.444645378  0.555860071  0.665286171
     0.444047175  0.888977929  0.000122228
     0.444513356  0.888835916  0.333875210
     0.444588670  0.888723250  0.666617429
     0.777070623  0.221399640  0.000087221
     0.777715209  0.222713218  0.334220699
     0.777760077  0.222665310  0.665660908
     0.777653098  0.555393524  0.000392098
     0.777994664  0.555209426  0.333838086
     0.777880198  0.555352329  0.666851543
     0.775236819  0.887954628  0.001324442
     0.777253604  0.888379500  0.334404393
     0.777389850  0.888570041  0.665289361
     0.222044512  0.111056917  0.170055629
     0.221925270  0.111397307  0.500366842
     0.222086728  0.111047841  0.821048112
     0.221540855  0.443488353  0.168592720
     0.222024556  0.444183944  0.499465216
     0.223770442  0.448217954  0.831990671
     0.222936918  0.777023528  0.168099547
     0.222662555  0.777772502  0.500179496
     0.222156248  0.776940799  0.832283822
     0.556273036  0.110349326  0.168072449
     0.555561440  0.110668318  0.500194896
     0.556238646  0.111025071  0.832274568
     0.555798566  0.445626040  0.168359596
     0.556026383  0.444871756  0.500145140
     0.555766703  0.445443128  0.832410956
     0.555302203  0.777852354  0.167696903
     0.555385302  0.777945439  0.500108097
     0.555727732  0.777320505  0.832319617
     0.889703645  0.111594809  0.168597856
     0.889128338  0.111297538  0.499465960
     0.884755360  0.109180981  0.831999947
     0.889370633  0.443896105  0.166878143
     0.888736446  0.444582627  0.500066467
     0.888999752  0.444187266  0.833060497
     0.887525539  0.777241013  0.168421718
     0.888424735  0.777251571  0.500118635
     0.887727955  0.777299125  0.832434162
     0.111826243  0.221383327  0.138551666
     0.111206123  0.222123717  0.460467642
     0.109852942  0.223155330  0.794591275
     0.111586266  0.556022430  0.127146412
     0.110854304  0.555771336  0.461140409
     0.109855208  0.556151616  0.792463673
     0.110836850  0.888539832  0.128269848
     0.111016684  0.888720286  0.461866699
     0.109881196  0.887527297  0.792783581
     0.444575801  0.222293622  0.128216934
     0.444605252  0.222292836  0.461856225
     0.445553163  0.223239371  0.792806343
     0.444782682  0.555847483  0.127673819
     0.444835897  0.555794847  0.461270028
     0.445528900  0.556087991  0.792237614
     0.444351871  0.888868311  0.126999719
     0.444449031  0.888882850  0.460623328
     0.444416453  0.888758319  0.793894342
     0.777286135  0.221673630  0.127130944
     0.777527640  0.222444439  0.461125235
     0.777066946  0.223306499  0.792485363
     0.777678398  0.555429579  0.127262755
     0.777752705  0.555495244  0.460559496
     0.777706630  0.555416800  0.794110342
     0.777347522  0.888319269  0.127703757
     0.777500966  0.888467713  0.461283825
     0.777001376  0.887466967  0.792233168
     0.223478241  0.109823233  0.296836650
     0.221855276  0.111424205  0.628490970
     0.238144576  0.094541924  0.953583803
     0.223235713  0.446420301  0.296054340
     0.222095135  0.444557805  0.626855797
     0.233714055  0.465250854  0.955860166
     0.222202693  0.777799674  0.294568488
     0.222837410  0.777829281  0.627096412
     0.222237051  0.780025305  0.959831844
     0.555534189  0.111120486  0.294551285
     0.555480094  0.110456051  0.627095297
     0.552926456  0.110725775  0.959829053
     0.555646838  0.444413510  0.294795474
     0.556286654  0.445063005  0.627043730
     0.555325521  0.446058145  0.960291759
     0.555514257  0.777793219  0.294349997
     0.555273207  0.777987862  0.626892742
     0.554638218  0.778183100  0.959815884
     0.886916605  0.110071919  0.296063801
     0.888701402  0.111136141  0.626867367
     0.867306339  0.099002149  0.955824666
     0.888837208  0.444444673  0.293929015
     0.888604164  0.444676010  0.626856408
     0.888562332  0.444400600  0.960765597
     0.888862872  0.777595164  0.294840736
     0.888219982  0.776951311  0.627030064
     0.886888789  0.777663770  0.960294767
     0.107795088  0.224454889  0.000853794

  ion indices of the primitive-cell ions
   primitive index   ion index
                 1           1
                 2           2
                 3           3
                 4           4
                 5           5
                 6           6
                 7           7
                 8           8
                 9           9
                10          10
                11          11
                12          12
                13          13
                14          14
                15          15
                16          16
                17          17
                18          18
                19          19
                20          20
                21          21
                22          22
                23          23
                24          24
                25          25
                26          26
                27          27
                28          28
                29          29
                30          30
                31          31
                32          32
                33          33
                34          34
                35          35
                36          36
                37          37
                38          38
                39          39
                40          40
                41          41
                42          42
                43          43
                44          44
                45          45
                46          46
                47          47
                48          48
                49          49
                50          50
                51          51
                52          52
                53          53
                54          54
                55          55
                56          56
                57          57
                58          58
                59          59
                60          60
                61          61
                62          62
                63          63
                64          64
                65          65
                66          66
                67          67
                68          68
                69          69
                70          70
                71          71
                72          72
                73          73
                74          74
                75          75
                76          76
                77          77
                78          78
                79          79
                80          80
                81          81
                82          82
                83          83
                84          84
                85          85
                86          86
                87          87
                88          88
                89          89
                90          90
                91          91
                92          92
                93          93
                94          94
                95          95
                96          96
                97          97
                98          98
                99          99
               100         100
               101         101
               102         102
               103         103
               104         104
               105         105
               106         106
               107         107
               108         108

----------------------------------------------------------------------------------------

 
 
 KPOINTS: Num irrep kpoints: 4                    

Automatic generation of k-mesh.
 Grid dimensions read from file:
 generate k-points for:    2    2    1

 Generating k-lattice:

  Cartesian coordinates                     Fractional coordinates (reciprocal lattice)
     0.051291954  0.029613424 -0.000000000     0.500000000  0.000000000  0.000000000
     0.000000000  0.059226847  0.000000000     0.000000000  0.500000000  0.000000000
     0.000000000 -0.000000000  0.063972963     0.000000000  0.000000000  1.000000000

  Length of vectors
     0.059226847  0.059226847  0.063972963

  Shift w.r.t. Gamma in fractional coordinates (k-lattice)
     0.000000000  0.000000000  0.000000000

 
 Subroutine IBZKPT returns following result:
 ===========================================
 
 Found      4 irreducible k-points:
 
 Following reciprocal coordinates:
            Coordinates               Weight
  0.000000  0.000000  0.000000      1.000000
  0.500000  0.000000  0.000000      1.000000
  0.000000  0.500000  0.000000      1.000000
  0.500000  0.500000  0.000000      1.000000
 
 Following cartesian coordinates:
            Coordinates               Weight
  0.000000  0.000000  0.000000      1.000000
  0.051292  0.029613  0.000000      1.000000
  0.000000  0.059227  0.000000      1.000000
  0.051292  0.088840  0.000000      1.000000
 
 
 Subroutine IBZKPT_HF returns following result:
 ==============================================
 
 Found      4 k-points in 1st BZ
 the following      4 k-points will be used (e.g. in the exchange kernel)
 Following reciprocal coordinates:   # in IRBZ
  0.000000  0.000000  0.000000    0.25000000   1 t-inv F
  0.500000  0.000000  0.000000    0.25000000   2 t-inv F
  0.000000  0.500000  0.000000    0.25000000   3 t-inv F
  0.500000  0.500000  0.000000    0.25000000   4 t-inv F


--------------------------------------------------------------------------------------------------------




 Dimension of arrays:
   k-points           NKPTS =      4   k-points in BZ     NKDIM =      4   number of bands    NBANDS=    630
   number of dos      NEDOS =    301   number of ions     NIONS =    108
   non local maximal  LDIM  =      6   non local SUM 2l+1 LMDIM =     18
   total plane-waves  NPLWV = 184320
   max r-space proj   IRMAX =   1629   max aug-charges    IRDMAX=   7175
   dimension x,y,z NGX =    48 NGY =   48 NGZ =   80
   dimension x,y,z NGXF=    96 NGYF=   96 NGZF=  160
   support grid    NGXF=    96 NGYF=   96 NGZF=  160
   ions per type =              53  54   1
   NGX,Y,Z   is equivalent  to a cutoff of   8.19,  8.19,  8.51 a.u.
   NGXF,Y,Z  is equivalent  to a cutoff of  16.37, 16.37, 17.02 a.u.

 SYSTEM =  unknown system                          
 POSCAR =  Na1 Zn53 O54                            

 Startparameter for this run:
   NWRITE =      2    write-flag & timer
   PREC   = normal    normal or accurate (medium, high low for compatibility)
   ISTART =      1    job   : 0-new  1-cont  2-samecut
   ICHARG =      0    charge: 1-file 2-atom 10-const
   ISPIN  =      2    spin polarized calculation?
   LNONCOLLINEAR =      F non collinear calculations
   LSORBIT =      F    spin-orbit coupling
   INIWAV =      1    electr: 0-lowe 1-rand  2-diag
   LASPH  =      T    aspherical Exc in radial PAW
 Electronic Relaxation 1
   ENCUT  =  400.0 eV  29.40 Ry    5.42 a.u.  15.90 15.90 25.49*2*pi/ulx,y,z
   ENINI  =  400.0     initial cutoff
   ENAUG  =  605.4 eV  augmentation charge cutoff
   NELM   =    100;   NELMIN=  2; NELMDL=  0     # of ELM steps 
   EDIFF  = 0.1E-04   stopping-criterion for ELM
   LREAL  =      T    real-space projection
   NLSPLINE    = F    spline interpolate recip. space projectors
   LCOMPAT=      F    compatible to vasp.4.4
   GGA_COMPAT  = T    GGA compatible to vasp.4.4-vasp.4.6
   LMAXPAW     = -100 max onsite density
   LMAXMIX     =    2 max onsite mixed and CHGCAR
   VOSKOWN=      0    Vosko Wilk Nusair interpolation
   ROPT   =   -0.00050  -0.00050  -0.00050
 Ionic relaxation
   EDIFFG = -.3E-01   stopping-criterion for IOM
   NSW    =    300    number of steps for IOM
   NBLOCK =      1;   KBLOCK =    300    inner block; outer block 
   IBRION =      2    ionic relax: 0-MD 1-quasi-New 2-CG
   NFREE  =      1    steps in history (QN), initial steepest desc. (CG)
   ISIF   =      2    stress and relaxation
   IWAVPR =     11    prediction:  0-non 1-charg 2-wave 3-comb
   ISYM   =      3    0-nonsym 1-usesym 2-fastsym
   LCORR  =      T    Harris-Foulkes like correction to forces

   POTIM  = 0.5000    time-step for ionic-motion
   TEIN   =    0.0    initial temperature
   TEBEG  =    0.0;   TEEND  =   0.0 temperature during run
   SMASS  =  -3.00    Nose mass-parameter (am)
   estimated Nose-frequenzy (Omega)   =  0.10E-29 period in steps = 0.13E+47 mass=  -0.217E-26a.u.
   SCALEE = 1.0000    scale energy and forces
   NPACO  =    256;   APACO  = 10.0  distance and # of slots for P.C.
   PSTRESS=    0.0 pullay stress

  Mass of Ions in am
   POMASS =  65.39 16.00 22.99
  Ionic Valenz
   ZVAL   =  12.00  6.00  1.00
  Atomic Wigner-Seitz radii
   RWIGS  =  -1.00 -1.00 -1.00
  virtual crystal weights 
   VCA    =   1.00  1.00  1.00
   NELECT =     960.0000    total number of electrons
   NUPDOWN=      -1.0000    fix difference up-down

 DOS related values:
   EMIN   =  10.00;   EMAX   =-10.00  energy-range for DOS
   EFERMI =   0.00;   METHOD = LEGACY      
   ISMEAR =     0;   SIGMA  =   0.10  broadening in eV -4-tet -1-fermi 0-gaus
   EFERMI_NEDOS =   21; number of points for ismear=-14 and -15

 Electronic relaxation 2 (details)
   IALGO  =     58    algorithm
   LDIAG  =      T    sub-space diagonalisation (order eigenvalues)
   LSUBROT=      F    optimize rotation matrix (better conditioning)
   LROBUST=      F    robust break criterion during scf (extrapolated energy error)
   ISEARCH=      0    line search for conjugate gradient (0, 1=use gradient)
   TURBO    =      0    0=normal 1=particle mesh
   IRESTART =      0    0=no restart 2=restart with 2 vectors
   NREBOOT  =      0    no. of reboots
   NMIN     =      0    reboot dimension
   EREF     =   0.00    reference energy to select bands
   IMIX   =      4    mixing-type and parameters
     AMIX     =   0.40;   BMIX     =  1.00
     AMIX_MAG =   1.60;   BMIX_MAG =  1.00
     AMIN     =   0.10
     WC   =   100.;   INIMIX=   1;  MIXPRE=   1;  MAXMIX= -45

 Intra band minimization:
   WEIMIN = 0.0010     energy-eigenvalue tresh-hold
   EBREAK =  0.40E-08  absolut break condition
   DEPER  =   0.30     relativ break condition  

   TIME   =   0.40     timestep for ELM

  volume/ion in A,a.u.               =      11.91        80.38
  Fermi-wavevector in a.u.,A,eV,Ry     =   1.484932  2.806115 30.001176  2.205024
  Thomas-Fermi vector in A             =   2.598407
 
 Write flags
   LWAVE        =      T    write WAVECAR
   LDOWNSAMPLE  =      F    k-point downsampling of WAVECAR
   LCHARG       =      F    write CHGCAR
   LVTOT        =      F    write LOCPOT, total local potential
   LVHAR        =      F    write LOCPOT, Hartree potential only
   WRT_POTENTIAL= false  ! write potential to hdf5 file
   LELF         =      F    write electronic localiz. function (ELF)
   LORBIT       =     10    0 simple, 1 ext, 2 COOP (PROOUT), +10 PAW based schemes


 Python interface
   PLUGINS active      =      F    recompile with -DPLUGINS to activate
 
 Dipole corrections
   LMONO      =      F    monopole corrections only (constant potential shift)
   LDIPOL     =      F    correct potential (dipole corrections)
   IDIPOL     =      0    1-x, 2-y, 3-z, 4-all directions 
   EPSILON    =  1.0000000 bulk dielectric constant
   LVACPOTAV  =      F  vacuum potentials using an averaging scheme for the charge density
   VACPOTFLAT =  0.1000000 required flatness to determine vacuum potential
 
Coulomb truncation method
  LTRUNCATE          =      F  Coulomb kernel truncation to be used

 
 Exchange correlation treatment:
   GGA     = PE    functional components
   XC_C    = 1    coefficients multiplying the functional components
   LIBXC   =     F    Libxc                    
   VOSKOWN =     0    Vosko Wilk Nusair interpolation
   EXXOEP  =     0    0=HF, 1=EXX-LHF (local Hartree Fock) 2=EXX OEP
   LHFCALC =     T    Hartree Fock is set to
   LSYMGRAD=     F    symmetrize gradient (conserves proper symmetry)
   PRECFOCK=fast      Normal, Fast or Accurate (Low or Medium for compatibility)
   LRHFCALC=     F    long range Hartree Fock
   LRSCOR  =     F    long range correlation only (use DFT for short range part)
   LTHOMAS =     F    Thomas Fermi screening in HF
   LMODELHF=     F    short range full HF, long range fraction AEXX
   FOCKCORR=     1    mode to apply convergence corrections
   LFOCKACE=     T    use Adeptively-Compressed-Exchange operator
   ENCUT4O =  -1.0   cutoff for four orbital integrals eV
   LMAXFOCK=     4    L truncation for augmentation on plane wave grid
   LMAXFOCKAE=  -1    L truncation for all-electron charge restoration on plane wave grid
   NMAXFOCKAE=   1    number of basis functions for all-electron charge restoration
   LFOCKAEDFT=     F  apply the AE augmentation even for DFT
   NKREDX  =     1    reduce k-point grid by
   NKREDY  =     1    reduce k-point grid by
   NKREDZ  =     1    reduce k-point grid by
   SHIFTRED=     F    shift reduced grid of Gamma
   HFKIDENT=     F    idential grid for each k-point
   ODDONLY =     F    use only odd q-grid points
   EVENONLY=     F    use only even q-grid points
   HFALPHA =   -1.0000 decay constant for conv. correction
   MCALPHA =    0.0000 extent of test-charge in conv. correction in multipole expansion
   AEXX    =    0.3600 exact exchange contribution
   HFSCREEN=    0.2000 screening length (either q_TF or 0.3 A-1)
   HFSCREENC=   0.2000 screening length for correlation (either q_TF or 0.3 A-1)
   HFRCUT  =    0.0000 spherical cutoff for potential kernel
   ALDAX   =    0.6400 LDA exchange part
   AGGAX   =    0.6400 GGA exchange part
   AMGGAX  =    0.6400 meta-GGA exchange part
   ALDAC   =    1.0000 LDA correlation
   AGGAC   =    1.0000 GGA correlation
   AMGGAC  =    1.0000 meta-GGA correlation
   ENCUTFOCK=  -1.0 apply spherical cutoff to Coloumb kernel
   NBANDSGWLOW=     1    first orbital included in HF term
   NBLOCK_FOCK=    64    blocking factor in FOCK_ACC

 Parameters of functionals:
   PE:
     No parameter
 
 Van der Waals corrections
   IVDW    =     0    specifies the selected vdW correction

 Linear response parameters
   LEPSILON=     F    determine dielectric tensor
   LRPA    =     F    only Hartree local field effects (RPA)
   LNABLA  =     F    use nabla operator in PAW spheres
   LVEL    =     F    velocity operator in full k-point grid
   CSHIFT  =0.1000    complex shift for real part using Kramers Kronig
   OMEGAMAX=  -1.0    maximum frequency
   DEG_THRESHOLD= 0.2000000E-02 threshold for treating states as degnerate
   RTIME   =   -0.100 relaxation time in fs
  (WPLASMAI=    0.000 imaginary part of plasma frequency in eV, 0.658/RTIME)
   DFIELD  = 0.0000000 0.0000000 0.0000000 field for delta impulse in time
 
  Optional k-point grid parameters
   LKPOINTS_OPT  =     F    use optional k-point grid
   KPOINTS_OPT_MODE=     1    mode for optional k-point grid
 
 Orbital magnetization related:
   ORBITALMAG=     F  switch on orbital magnetization
   LCHIMAG   =     F  perturbation theory with respect to B field
   DQ        =  0.001000  dq finite difference perturbation B field
   LLRAUG    =     F  two centre corrections for induced B field
   LBONE     =     F  B-component reconstruction in AE one-centre
   LVGVCALC  =     T  calculate vGv susceptibility
   LVGVAPPL  =     F  apply vGv susceptibility instead of pGv for G=0

 Random number generation:
   RANDOM_GENERATOR = DEFAULT
   PCG_SEED         = not used


--------------------------------------------------------------------------------------------------------


 conjugate gradient relaxation of ions
 charge density and potential will be updated during run
 spin polarized calculation
 Conjugate gradient for all bands (Freysoldt, et al. PRB 79, 241103 (2009))
 preconditioned conjugated gradient                                        
 perform sub-space diagonalisation
    before iterative eigenvector-optimisation
 modified Broyden-mixing scheme, WC =      100.0
 initial mixing is a Kerker type mixing with AMIX =  0.4000 and BMIX =      1.0000
 Hartree-type preconditioning will be used
 using additional bands           150
 real space projection scheme for non local part
 use partial core corrections
 no Harris-corrections to forces 
 use gradient corrections 
 use of overlap-Matrix (Vanderbilt PP)
 Gauss-broadening in eV      SIGMA  =   0.10


--------------------------------------------------------------------------------------------------------


  energy-cutoff  :      400.00
  volume of cell :     1286.40
      direct lattice vectors                 reciprocal lattice vectors
     9.748117574  0.000000000  0.000000000     0.102583908  0.059226847 -0.000000000
    -4.874058787  8.442117458  0.000000000     0.000000000  0.118453694  0.000000000
     0.000000000  0.000000000 15.631603691     0.000000000 -0.000000000  0.063972963

  length of vectors
     9.748117574  9.748117573 15.631603691     0.118453694  0.118453694  0.063972963


 
 old parameters found on file WAVECAR:
  energy-cutoff  :      400.00
  volume of cell :     1286.40
      direct lattice vectors                 reciprocal lattice vectors
     9.748117574  0.000000000  0.000000000     0.102583908  0.059226847 -0.000000000
    -4.874058787  8.442117458  0.000000000     0.000000000  0.118453694  0.000000000
     0.000000000  0.000000000 15.631603691     0.000000000 -0.000000000  0.063972963

  length of vectors

 
 k-points in units of 2pi/SCALE and weight: Num irrep kpoints: 4                    
   0.00000000  0.00000000  0.00000000       0.250
   0.05129195  0.02961342  0.00000000       0.250
   0.00000000  0.05922685  0.00000000       0.250
   0.05129195  0.08884027  0.00000000       0.250
 
 k-points in reciprocal lattice and weights: Num irrep kpoints: 4                    
   0.00000000  0.00000000  0.00000000       0.250
   0.50000000  0.00000000  0.00000000       0.250
   0.00000000  0.50000000  0.00000000       0.250
   0.50000000  0.50000000  0.00000000       0.250
 
 position of ions in fractional coordinates (direct lattice) 
   0.11110141  0.22225537  0.33236980
   0.10993460  0.22333065  0.66556631
   0.11162269  0.55590015  0.00008765
   0.11058480  0.55560819  0.33423560
   0.11061078  0.55554247  0.66563690
   0.10122613  0.87203132  0.00401185
   0.11082804  0.88801564  0.33492417
   0.11011584  0.88705776  0.66477376
   0.46072157  0.23161854  0.00396279
   0.44531398  0.22247073  0.33490572
   0.44622739  0.22315598  0.66478522
   0.44483311  0.55757959  0.00127858
   0.44492625  0.55605793  0.33440015
   0.44464538  0.55586007  0.66528617
   0.44404717  0.88897793  0.00012223
   0.44451336  0.88883592  0.33387521
   0.44458867  0.88872325  0.66661743
   0.77707062  0.22139964  0.00008722
   0.77771521  0.22271322  0.33422070
   0.77776008  0.22266531  0.66566091
   0.77765310  0.55539352  0.00039210
   0.77799466  0.55520943  0.33383809
   0.77788020  0.55535233  0.66685154
   0.77523682  0.88795463  0.00132444
   0.77725360  0.88837950  0.33440439
   0.77738985  0.88857004  0.66528936
   0.22204451  0.11105692  0.17005563
   0.22192527  0.11139731  0.50036684
   0.22208673  0.11104784  0.82104811
   0.22154085  0.44348835  0.16859272
   0.22202456  0.44418394  0.49946522
   0.22377044  0.44821795  0.83199067
   0.22293692  0.77702353  0.16809955
   0.22266255  0.77777250  0.50017950
   0.22215625  0.77694080  0.83228382
   0.55627304  0.11034933  0.16807245
   0.55556144  0.11066832  0.50019490
   0.55623865  0.11102507  0.83227457
   0.55579857  0.44562604  0.16835960
   0.55602638  0.44487176  0.50014514
   0.55576670  0.44544313  0.83241096
   0.55530220  0.77785235  0.16769690
   0.55538530  0.77794544  0.50010810
   0.55572773  0.77732051  0.83231962
   0.88970365  0.11159481  0.16859786
   0.88912834  0.11129754  0.49946596
   0.88475536  0.10918098  0.83199995
   0.88937063  0.44389611  0.16687814
   0.88873645  0.44458263  0.50006647
   0.88899975  0.44418727  0.83306050
   0.88752554  0.77724101  0.16842172
   0.88842473  0.77725157  0.50011864
   0.88772796  0.77729912  0.83243416
   0.11182624  0.22138333  0.13855167
   0.11120612  0.22212372  0.46046764
   0.10985294  0.22315533  0.79459128
   0.11158627  0.55602243  0.12714641
   0.11085430  0.55577134  0.46114041
   0.10985521  0.55615162  0.79246367
   0.11083685  0.88853983  0.12826985
   0.11101668  0.88872029  0.46186670
   0.10988120  0.88752730  0.79278358
   0.44457580  0.22229362  0.12821693
   0.44460525  0.22229284  0.46185623
   0.44555316  0.22323937  0.79280634
   0.44478268  0.55584748  0.12767382
   0.44483590  0.55579485  0.46127003
   0.44552890  0.55608799  0.79223761
   0.44435187  0.88886831  0.12699972
   0.44444903  0.88888285  0.46062333
   0.44441645  0.88875832  0.79389434
   0.77728614  0.22167363  0.12713094
   0.77752764  0.22244444  0.46112524
   0.77706695  0.22330650  0.79248536
   0.77767840  0.55542958  0.12726275
   0.77775271  0.55549524  0.46055950
   0.77770663  0.55541680  0.79411034
   0.77734752  0.88831927  0.12770376
   0.77750097  0.88846771  0.46128383
   0.77700138  0.88746697  0.79223317
   0.22347824  0.10982323  0.29683665
   0.22185528  0.11142421  0.62849097
   0.23814458  0.09454192  0.95358380
   0.22323571  0.44642030  0.29605434
   0.22209513  0.44455781  0.62685580
   0.23371405  0.46525085  0.95586017
   0.22220269  0.77779967  0.29456849
   0.22283741  0.77782928  0.62709641
   0.22223705  0.78002531  0.95983184
   0.55553419  0.11112049  0.29455129
   0.55548009  0.11045605  0.62709530
   0.55292646  0.11072578  0.95982905
   0.55564684  0.44441351  0.29479547
   0.55628665  0.44506300  0.62704373
   0.55532552  0.44605814  0.96029176
   0.55551426  0.77779322  0.29435000
   0.55527321  0.77798786  0.62689274
   0.55463822  0.77818310  0.95981588
   0.88691660  0.11007192  0.29606380
   0.88870140  0.11113614  0.62686737
   0.86730634  0.09900215  0.95582467
   0.88883721  0.44444467  0.29392902
   0.88860416  0.44467601  0.62685641
   0.88856233  0.44440060  0.96076560
   0.88886287  0.77759516  0.29484074
   0.88821998  0.77695131  0.62703006
   0.88688879  0.77766377  0.96029477
   0.10779509  0.22445489  0.00085379
 
 position of ions in cartesian coordinates  (Angst):
  -0.00025614  1.87630594  5.19547299
  -0.01687136  1.88538360 10.40386880
  -1.62137894  4.69297438  0.00137011
  -1.63007338  4.69050963  5.22463846
  -1.62949981  4.68995480 10.40497225
  -3.26356769  7.36179083  0.06271160
  -3.24787561  7.49673232  5.23540187
  -3.25014950  7.48864584 10.39147991
   3.36224570  1.95535092  0.06194470
   3.25663759  1.87812401  5.23511343
   3.26220170  1.88390901 10.39165915
   1.61860970  4.70715242  0.01998628
   1.62693434  4.69430632  5.22721059
   1.62516076  4.69263601 10.39948977
  -0.00430662  7.50485610  0.00191063
   0.00092995  7.50365720  5.21900496
   0.00221326  7.50270606 10.42029947
   6.49586094  1.86908176  0.00136340
   6.49574197  1.88017115  5.22440552
   6.49641286  1.87976670 10.40534751
   4.87363315  4.68869736  0.00612912
   4.87786008  4.68714319  5.21842466
   4.87604773  4.68834959 10.42395904
   3.22915660  7.49621727  0.02070315
   3.24674561  7.49980409  5.22727694
   3.24714504  7.50141266 10.39953963
   1.62321807  0.93755553  2.65824220
   1.62039660  0.94042915  7.82153618
   1.62367383  0.93747892 12.83429870
  -0.00198200  3.74398076  2.63537458
  -0.00065717  3.74985303  7.80744231
  -0.00330008  3.78390862 13.00534844
  -1.61404307  6.55972389  2.62766550
  -1.62036813  6.56604681  7.81860765
  -1.62124990  6.55902548 13.00993087
   4.88476585  0.93158197  2.62724192
   4.87627435  0.93427494  7.81884839
   4.88113699  0.93728669 13.00978621
   3.24598226  3.76202737  2.63173048
   3.25187946  3.75565962  7.81807061
   3.24656318  3.76048321 13.01191817
   1.62185307  6.56672094  2.62137152
   1.62220942  6.56750677  7.81749157
   1.62859343  6.56223101 13.01049040
   8.12901608  0.94209649  2.63545487
   8.12485683  0.93958688  7.80745394
   8.09254475  0.92171867 13.00549344
   6.50611378  3.74742306  2.60857300
   6.49658551  3.75321876  7.81684083
   6.50107926  3.74988107 13.02207155
   4.86338492  6.56155992  2.63270155
   4.87209892  6.56164906  7.81765630
   4.86507485  6.56205051 13.01228092
   0.01106002  1.86894405  2.16578473
   0.00140630  1.87519451  7.19784769
  -0.01681281  1.88390351 12.42073591
  -1.62232997  4.69400666  1.98750233
  -1.62824137  4.69188690  7.20836412
  -1.63983419  4.69509726 12.38747808
  -3.25034473  7.50115763  2.00506342
  -3.24947123  7.50268104  7.21971720
  -3.25472540  7.49260969 12.39247876
   3.25030500  1.87662887  2.00423630
   3.25059592  1.87662223  7.21955347
   3.25522280  1.88461299 12.39283455
   1.62656057  4.69252974  1.99574655
   1.62733587  4.69208538  7.21039027
   1.63266254  4.69456013 12.38394441
  -0.00080212  7.50393069  1.98520928
   0.00007415  7.50405342  7.20028132
   0.00036354  7.50300212 12.40984173
   6.49662633  1.87139482  1.98726054
   6.49522358  1.87790208  7.20812693
   6.48653095  1.88517970 12.38781713
   4.87370403  4.68900175  1.98932095
   4.87410834  4.68955609  7.19928352
   4.87404153  4.68889386 12.41321815
   3.24795470  7.49929561  1.99621453
   3.24872696  7.50054879  7.21060595
   3.24873460  7.49210038 12.38387491
   1.64320727  0.92714064  4.64003288
   1.61958319  0.94065623  9.82432177
   1.86065843  0.79813403 14.90604409
   0.00024918  3.76873262  4.62780412
  -0.00179139  3.75300921  9.79876139
   0.01061207  3.92770236 14.94162730
  -1.62498336  6.56627621  4.60457787
  -1.61894037  6.56652615  9.80252260
  -1.63549629  6.58506524 15.00371099
   4.87380481  0.93809220  4.60430896
   4.87651598  0.93248295  9.80250515
   4.85030817  0.93476000 15.00366737
   3.25041314  3.75179105  4.60812602
   3.25348446  3.75727416  9.80169909
   3.23926485  3.76567525 15.01090021
   1.62420842  6.56622171  4.60116250
   1.62090994  6.56786491  9.79933890
   1.61376839  6.56951314 15.00346151
   8.10927034  0.92924007  4.62795200
   8.12148167  0.93822435  9.79894225
   7.97206187  0.83578777 14.94107238
   6.49824014  3.75205413  4.59458188
   6.49484086  3.75400710  9.79877093
   6.49577544  3.75168206 15.01830705
   4.87469524  6.56454971  4.60883353
   4.87156645  6.55911423  9.80148547
   4.85511726  6.56512889 15.01094722
  -0.04320713  1.89487453  0.01334616
 


--------------------------------------------------------------------------------------------------------


 k-point     1 :   0.0000 0.0000 0.0000  plane waves:   23295
 k-point     2 :   0.5000 0.0000 0.0000  plane waves:   23392
 k-point     3 :   0.0000 0.5000 0.0000  plane waves:   23392
 k-point     4 :   0.5000 0.5000 0.0000  plane waves:   23392

 maximum and minimum number of plane-waves per node :     23392    23295

 maximum number of plane-waves:     23392
 maximum index in each direction: 
   IXMAX=   15   IYMAX=   15   IZMAX=   25
   IXMIN=  -16   IYMIN=  -16   IZMIN=  -25


 serial   3D FFT for wavefunctions
 parallel 3D FFT for charge:
    minimum data exchange during FFTs selected (reduces bandwidth)


 FFT grid for exact exchange (Hartree Fock) 
  NGX = 36; NGY = 36; NGZ = 54

 
 Radii for the augmentation spheres in the non-local exchange
 for species   1 augmentation radius   1.285 (default was   0.952)
       energy cutoff for augmentation   1600.0
 for species   2 augmentation radius   0.974 (default was   0.722)
       energy cutoff for augmentation   1600.0
 for species   3 augmentation radius   1.514 (default was   1.121)
       energy cutoff for augmentation   1600.0
 Maximum index for augmentation-charges in exchange           804
  SETUP_FOCK is finished

 total amount of memory used by VASP MPI-rank0  6255729. kBytes
=======================================================================

   base                                    :      30000. kBytes
   nonlr-proj                              :      29970. kBytes
   fftplans                                :      50796. kBytes
   grid                                    :     145907. kBytes
   one-center                              :       3359. kBytes
   HF                                      :        194. kBytes
   wavefun                                 :    5995503. kBytes
 
     INWAV:  cpu time      0.9661: real time      1.0819
 Broyden mixing: mesh for mixing (old mesh)
   NGX = 31   NGY = 31   NGZ = 51
  (NGX  = 96   NGY  = 96   NGZ  =160)
  gives a total of  49011 points

 charge density for first step will be calculated from the start-wavefunctions


--------------------------------------------------------------------------------------------------------


 Maximum index for non-local projection operator          1560
 Maximum index for augmentation-charges          6772 (set IRDMAX)


--------------------------------------------------------------------------------------------------------


 initial charge from wavefunction
 First call to EWALD:  gamma=   0.163
 Maximum number of real-space cells   3x   3x   2
 Maximum number of reciprocal cells   3x   3x   4

    FEWALD:  cpu time      0.3511: real time      0.3523


--------------------------------------- Ionic step        1  -------------------------------------------




--------------------------------------- Iteration      1(   1)  ---------------------------------------


    POTLOK:  cpu time      2.5614: real time      2.5694
    SETDIJ:  cpu time     16.2095: real time     16.2639
    TRIAL :  cpu time    104.6595: real time    107.6021
    CORREC:  cpu time    121.7723: real time    122.1810
    CHARGE:  cpu time      0.2656: real time      0.2665
    --------------------------------------------
      LOOP:  cpu time    246.2421: real time    249.6679

 eigenvalue-minimisations  :     0
 total energy-change (2. order) :-0.6750323E+03  (-0.7773008E-04)
 number of electron     960.0001144 magnetization       1.4428984
 augmentation part      469.0068620 magnetization       0.4665154

 Free energy of the ion-electron system (eV)
  ---------------------------------------------------
  alpha Z        PSCENC =      6142.85744291
  Ewald energy   TEWEN  =    -77712.26046191
  -Hartree energ DENC   =    -36362.55124320
  -exchange      EXHF   =      4062.30356740
  -V(xc)+E(xc)   XCENC  =      2995.88920581
  PAW double counting   =    116415.06631821  -125027.20524990
  entropy T*S    EENTRO =        -0.03396804
  eigenvalues    EBANDS =     -6857.39089376
  atomic energy  EATOM  =    115668.29297923
  ---------------------------------------------------
  free energy    TOTEN  =      -675.03230325 eV

  energy without entropy =     -674.99833521  energy(sigma->0) =     -675.01531923
  exchange ACFDT corr.  =        -0.02106933  see jH, gK, PRB 81, 115126


--------------------------------------------------------------------------------------------------------




--------------------------------------- Iteration      1(   2)  ---------------------------------------


    POTLOK:  cpu time      2.6225: real time      2.6307
    SETDIJ:  cpu time     16.4029: real time     16.4574
    TRIAL :  cpu time    104.4384: real time    105.1384
    CORREC:  cpu time    121.7653: real time    122.1821
    CHARGE:  cpu time      0.2641: real time      0.2652
    --------------------------------------------
      LOOP:  cpu time    245.4962: real time    246.6777

 eigenvalue-minimisations  :     0
 total energy-change (2. order) :-0.7774682E-04  (-0.7355582E-04)
 number of electron     960.0001144 magnetization       1.4438815
 augmentation part      469.0070763 magnetization       0.4667696

 Free energy of the ion-electron system (eV)
  ---------------------------------------------------
  alpha Z        PSCENC =      6142.85744291
  Ewald energy   TEWEN  =    -77712.26046191
  -Hartree energ DENC   =    -36362.42231918
  -exchange      EXHF   =      4062.30337162
  -V(xc)+E(xc)   XCENC  =      2995.88916169
  PAW double counting   =    116415.05164117  -125027.18486398
  entropy T*S    EENTRO =        -0.03385571
  eigenvalues    EBANDS =     -6857.52547682
  atomic energy  EATOM  =    115668.29297923
  ---------------------------------------------------
  free energy    TOTEN  =      -675.03238100 eV

  energy without entropy =     -674.99852528  energy(sigma->0) =     -675.01545314
  exchange ACFDT corr.  =        -0.02085039  see jH, gK, PRB 81, 115126


--------------------------------------------------------------------------------------------------------




--------------------------------------- Iteration      1(   3)  ---------------------------------------


    POTLOK:  cpu time      2.5670: real time      2.5749
    SETDIJ:  cpu time     16.6303: real time     16.6868
    TRIAL :  cpu time    104.3061: real time    105.0311
    CORREC:  cpu time    121.7315: real time    122.2017
    CHARGE:  cpu time      0.2655: real time      0.2706
    --------------------------------------------
      LOOP:  cpu time    245.5026: real time    246.7693

 eigenvalue-minimisations  :     0
 total energy-change (2. order) :-0.7352093E-04  (-0.2142445E-04)
 number of electron     960.0001144 magnetization       1.4439234
 augmentation part      469.0068326 magnetization       0.4668014

 Free energy of the ion-electron system (eV)
  ---------------------------------------------------
  alpha Z        PSCENC =      6142.85744291
  Ewald energy   TEWEN  =    -77712.26046191
  -Hartree energ DENC   =    -36362.58256569
  -exchange      EXHF   =      4062.30550455
  -V(xc)+E(xc)   XCENC  =      2995.89026725
  PAW double counting   =    116415.10427639  -125027.25007712
  entropy T*S    EENTRO =        -0.03393347
  eigenvalues    EBANDS =     -6857.35588666
  atomic energy  EATOM  =    115668.29297923
  ---------------------------------------------------
  free energy    TOTEN  =      -675.03245452 eV

  energy without entropy =     -674.99852105  energy(sigma->0) =     -675.01548779
  exchange ACFDT corr.  =        -0.02103016  see jH, gK, PRB 81, 115126


--------------------------------------------------------------------------------------------------------




--------------------------------------- Iteration      1(   4)  ---------------------------------------


    POTLOK:  cpu time      2.5570: real time      2.5691
    SETDIJ:  cpu time     16.4231: real time     16.4829
    TRIAL :  cpu time    104.8710: real time    105.2483
    CORREC:  cpu time    121.8363: real time    124.0028
    CHARGE:  cpu time      0.2681: real time      0.2753
    --------------------------------------------
      LOOP:  cpu time    245.9565: real time    248.6268

 eigenvalue-minimisations  :     0
 total energy-change (2. order) :-0.2143447E-04  (-0.3415551E-05)
 number of electron     960.0001144 magnetization       1.4440304
 augmentation part      469.0069770 magnetization       0.4668549

 Free energy of the ion-electron system (eV)
  ---------------------------------------------------
  alpha Z        PSCENC =      6142.85744291
  Ewald energy   TEWEN  =    -77712.26046191
  -Hartree energ DENC   =    -36362.52470753
  -exchange      EXHF   =      4062.30415526
  -V(xc)+E(xc)   XCENC  =      2995.88928177
  PAW double counting   =    116415.10260640  -125027.23386144
  entropy T*S    EENTRO =        -0.03393942
  eigenvalues    EBANDS =     -6857.42597121
  atomic energy  EATOM  =    115668.29297923
  ---------------------------------------------------
  free energy    TOTEN  =      -675.03247595 eV

  energy without entropy =     -674.99853653  energy(sigma->0) =     -675.01550624
  exchange ACFDT corr.  =        -0.02102222  see jH, gK, PRB 81, 115126


--------------------------------------------------------------------------------------------------------




--------------------------------------- Iteration      1(   5)  ---------------------------------------


    POTLOK:  cpu time      2.5708: real time      2.7366
    SETDIJ:  cpu time     16.4421: real time     16.4958
    TRIAL :  cpu time    104.2103: real time    104.6009
    CORREC:  cpu time    121.6731: real time    122.8569
    EDDIAG:  cpu time    101.8324: real time    102.3795
    CHARGE:  cpu time      0.2660: real time      0.2727
    --------------------------------------------
      LOOP:  cpu time    346.9954: real time    349.3744

 eigenvalue-minimisations  :     0
 total energy-change (2. order) :-0.3401139E-05  (-0.9701065E-06)
 number of electron     960.0001144 magnetization       1.4441542
 augmentation part      469.0069277 magnetization       0.4669060

 Free energy of the ion-electron system (eV)
  ---------------------------------------------------
  alpha Z        PSCENC =      6142.85744291
  Ewald energy   TEWEN  =    -77712.26046191
  -Hartree energ DENC   =    -36362.53371477
  -exchange      EXHF   =      4062.30487264
  -V(xc)+E(xc)   XCENC  =      2995.88981954
  PAW double counting   =    116415.10225890  -125027.24386452
  entropy T*S    EENTRO =        -0.03394591
  eigenvalues    EBANDS =     -6857.40786002
  atomic energy  EATOM  =    115668.29297923
  ---------------------------------------------------
  free energy    TOTEN  =      -675.03247936 eV

  energy without entropy =     -674.99853345  energy(sigma->0) =     -675.01550640
  exchange ACFDT corr.  =        -0.02103354  see jH, gK, PRB 81, 115126


--------------------------------------------------------------------------------------------------------


  average scaling for gradient   0.9767


 average (electrostatic) potential at core
  the test charge radii are     0.9521  0.7215  1.1212
  (the norm of the test charge is              1.0000)
       1 -24.8358       2 -24.9740       3 -24.9523       4 -24.8715       5 -24.8607
       6 -25.4349       7 -24.8785       8 -24.9344       9 -25.4324      10 -24.8785
      11 -24.9361      12 -25.0278      13 -24.8727      14 -24.8717      15 -25.0536
      16 -24.8994      17 -24.8821      18 -24.9509      19 -24.8711      20 -24.8613
      21 -25.0483      22 -24.8965      23 -24.8800      24 -25.0292      25 -24.8732
      26 -24.8709      27 -24.8026      28 -24.9094      29 -25.4083      30 -24.7718
      31 -24.8805      32 -24.8809      33 -24.9437      34 -24.8825      35 -24.9506
      36 -24.9447      37 -24.8821      38 -24.9509      39 -24.9578      40 -24.8796
      41 -24.9644      42 -24.9382      43 -24.8748      44 -24.9765      45 -24.7735
      46 -24.8807      47 -24.8804      48 -24.9092      49 -24.8711      50 -24.8948
      51 -24.9584      52 -24.8795      53 -24.9639      54 -63.5119      55 -64.1371
      56 -64.4110      57 -64.1827      58 -64.1727      59 -64.1508      60 -64.3151
      61 -64.1798      62 -64.3089      63 -64.3135      64 -64.1793      65 -64.3099
      66 -64.2273      67 -64.1744      68 -64.2122      69 -64.2255      70 -64.1855
      71 -64.2033      72 -64.1831      73 -64.1722      74 -64.1509      75 -64.2233
      76 -64.1790      77 -64.1884      78 -64.2283      79 -64.1745      80 -64.2109
      81 -64.1204      82 -64.2185      83 -66.6478      84 -64.1069      85 -64.1849
      86 -63.9494      87 -64.1968      88 -64.1791      89 -64.4046      90 -64.1974
      91 -64.1804      92 -64.4016      93 -64.2051      94 -64.1783      95 -64.3862
      96 -64.1957      97 -64.1642      98 -64.5238      99 -64.1071     100 -64.1842
     101 -63.9495     102 -64.1908     103 -64.1575     104 -64.2855     105 -64.2055
     106 -64.1764     107 -64.3899     108 -34.5578
 
 
 
 E-fermi :  -0.6042     XC(G=0):  -7.9915     alpha+bet : -7.9439

 val. band max:       -0.6811582089   @ k =   0.0000   0.0000   0.0000
 cond. band min:      -0.5980925314   @ k =   0.0000   0.0000   0.0000
 fundamental gap:      0.0830656775
 Fermi energy:        -0.6041536506

 spin component 1

 k-point     1 :       0.0000    0.0000    0.0000
  band No.  band energies     occupation 
      1     -22.5642      1.00000
      2     -20.7809      1.00000
      3     -20.6130      1.00000
      4     -20.5805      1.00000
      5     -20.4102      1.00000
      6     -20.3888      1.00000
      7     -20.3601      1.00000
      8     -20.3053      1.00000
      9     -20.2805      1.00000
     10     -20.2612      1.00000
     11     -20.2182      1.00000
     12     -20.2107      1.00000
     13     -20.2078      1.00000
     14     -20.2002      1.00000
     15     -20.1960      1.00000
     16     -20.1953      1.00000
     17     -20.1707      1.00000
     18     -20.1704      1.00000
     19     -20.1469      1.00000
     20     -20.1363      1.00000
     21     -20.1325      1.00000
     22     -20.1284      1.00000
     23     -20.1246      1.00000
     24     -20.0513      1.00000
     25     -20.0388      1.00000
     26     -20.0334      1.00000
     27     -20.0135      1.00000
     28     -19.9983      1.00000
     29     -19.9850      1.00000
     30     -19.9741      1.00000
     31     -19.9497      1.00000
     32     -19.9488      1.00000
     33     -19.9334      1.00000
     34     -19.9305      1.00000
     35     -19.9255      1.00000
     36     -19.9190      1.00000
     37     -19.9011      1.00000
     38     -19.8871      1.00000
     39     -19.8712      1.00000
     40     -19.8658      1.00000
     41     -19.8584      1.00000
     42     -19.8573      1.00000
     43     -19.8529      1.00000
     44     -19.8471      1.00000
     45     -19.8410      1.00000
     46     -19.8392      1.00000
     47     -19.8380      1.00000
     48     -19.8244      1.00000
     49     -19.8214      1.00000
     50     -19.8164      1.00000
     51     -19.8148      1.00000
     52     -19.7820      1.00000
     53     -19.7676      1.00000
     54     -19.3396      1.00000
     55      -8.2095      1.00000
     56      -8.1404      1.00000
     57      -8.1310      1.00000
     58      -7.9630      1.00000
     59      -7.9624      1.00000
     60      -7.9604      1.00000
     61      -7.9109      1.00000
     62      -7.9010      1.00000
     63      -7.8905      1.00000
     64      -7.8694      1.00000
     65      -7.8550      1.00000
     66      -7.8477      1.00000
     67      -7.8416      1.00000
     68      -7.8131      1.00000
     69      -7.8074      1.00000
     70      -7.7829      1.00000
     71      -7.7782      1.00000
     72      -7.7711      1.00000
     73      -7.7675      1.00000
     74      -7.7627      1.00000
     75      -7.7596      1.00000
     76      -7.7584      1.00000
     77      -7.7579      1.00000
     78      -7.7550      1.00000
     79      -7.7385      1.00000
     80      -7.7195      1.00000
     81      -7.7185      1.00000
     82      -7.7082      1.00000
     83      -7.7017      1.00000
     84      -7.6986      1.00000
     85      -7.6910      1.00000
     86      -7.6864      1.00000
     87      -7.6863      1.00000
     88      -7.6786      1.00000
     89      -7.6764      1.00000
     90      -7.6726      1.00000
     91      -7.6681      1.00000
     92      -7.6614      1.00000
     93      -7.6567      1.00000
     94      -7.6460      1.00000
     95      -7.6406      1.00000
     96      -7.6378      1.00000
     97      -7.6208      1.00000
     98      -7.6170      1.00000
     99      -7.5962      1.00000
    100      -7.5952      1.00000
    101      -7.5933      1.00000
    102      -7.5833      1.00000
    103      -7.5819      1.00000
    104      -7.5728      1.00000
    105      -7.5708      1.00000
    106      -7.5700      1.00000
    107      -7.5604      1.00000
    108      -7.5552      1.00000
    109      -7.5423      1.00000
    110      -7.5287      1.00000
    111      -7.5223      1.00000
    112      -7.5178      1.00000
    113      -7.5119      1.00000
    114      -7.5111      1.00000
    115      -7.5069      1.00000
    116      -7.5013      1.00000
    117      -7.4947      1.00000
    118      -7.4909      1.00000
    119      -7.4804      1.00000
    120      -7.4732      1.00000
    121      -7.4672      1.00000
    122      -7.4664      1.00000
    123      -7.4573      1.00000
    124      -7.4380      1.00000
    125      -7.4369      1.00000
    126      -7.4328      1.00000
    127      -7.4294      1.00000
    128      -7.4248      1.00000
    129      -7.4226      1.00000
    130      -7.4182      1.00000
    131      -7.4172      1.00000
    132      -7.4097      1.00000
    133      -7.4092      1.00000
    134      -7.4084      1.00000
    135      -7.4028      1.00000
    136      -7.3954      1.00000
    137      -7.3898      1.00000
    138      -7.3811      1.00000
    139      -7.3680      1.00000
    140      -7.3580      1.00000
    141      -7.3571      1.00000
    142      -7.3404      1.00000
    143      -7.3223      1.00000
    144      -7.3219      1.00000
    145      -7.3099      1.00000
    146      -7.3041      1.00000
    147      -7.2966      1.00000
    148      -7.2869      1.00000
    149      -7.2860      1.00000
    150      -7.2826      1.00000
    151      -7.2771      1.00000
    152      -7.2676      1.00000
    153      -7.2657      1.00000
    154      -7.2642      1.00000
    155      -7.2552      1.00000
    156      -7.2548      1.00000
    157      -7.2504      1.00000
    158      -7.2463      1.00000
    159      -7.2428      1.00000
    160      -7.2349      1.00000
    161      -7.2288      1.00000
    162      -7.2216      1.00000
    163      -7.2165      1.00000
    164      -7.2140      1.00000
    165      -7.2134      1.00000
[...]
      3.22986      7.49627      0.02100         0.001323     -0.000810      0.003201
      3.24747      7.50105      5.22695        -0.002380     -0.001173     -0.002735
      3.24714      7.50132     10.40016        -0.001027     -0.002238     -0.002655
      1.62296      0.93799      2.65756        -0.000844     -0.000160     -0.005919
      1.62037      0.94042      7.82126        -0.000141      0.000158      0.004472
      1.62380      0.93720     12.83344         0.012675     -0.005367     -0.000596
     -0.00144      3.74315      2.63392        -0.000813     -0.002642     -0.010134
     -0.00083      3.74975      7.80902        -0.001072      0.004187      0.001219
     -0.00277      3.78432     13.00530         0.000471     -0.002114      0.001435
     -1.61444      6.55965      2.62806        -0.001178     -0.004323      0.001555
     -1.62111      6.56576      7.81834         0.001503     -0.000900     -0.002610
     -1.62151      6.55783     13.00978        -0.003399     -0.000753      0.005209
      4.88420      0.93174      2.62751         0.002242      0.002277      0.003143
      4.87602      0.93497      7.81834         0.002503      0.000041     -0.000751
      4.88191      0.93802     13.01012        -0.001748      0.001383      0.001496
      3.24636      3.76117      2.63217        -0.003033      0.004968      0.003348
      3.25176      3.75529      7.81746         0.000307      0.002239     -0.001347
      3.24593      3.76097     13.01259         0.000080     -0.002014      0.002575
      1.62030      6.56756      2.62138        -0.001035     -0.000568      0.005034
      1.62257      6.56717      7.81745        -0.002243      0.001784     -0.000246
      1.62823      6.56273     13.01021        -0.008078      0.002931      0.003202
      8.12975      0.94194      2.63414         0.002979      0.002913     -0.008021
      8.12490      0.93964      7.80910        -0.003988     -0.000988      0.000418
      8.09243      0.92107     13.00504         0.000341      0.002546      0.002319
      6.50516      3.74782      2.60838        -0.000002     -0.002443      0.000888
      6.49685      3.75292      7.81800         0.003416     -0.000394     -0.004196
      6.50105      3.74968     13.02204        -0.002130      0.000952      0.003847
      4.86411      6.56206      2.63271        -0.006043      0.001419      0.001592
      4.87235      6.56188      7.81731        -0.001587     -0.000950     -0.001884
      4.86391      6.56258     13.01249         0.001568     -0.000580      0.003302
      0.01157      1.86838      2.16236        -0.000943      0.000149     -0.019175
      0.00107      1.87526      7.19904        -0.000637      0.000586      0.000867
     -0.01509      1.88288     12.42100        -0.006412      0.003312      0.005264
     -1.62293      4.69396      1.98733         0.001776     -0.000425      0.002732
     -1.62776      4.69153      7.20739        -0.001111     -0.001110      0.001806
     -1.63990      4.69476     12.38785         0.001941     -0.004982     -0.001893
     -3.25064      7.50075      2.00439         0.002773      0.003661      0.004232
     -3.24942      7.50307      7.21929        -0.001106      0.000540     -0.003049
     -3.25478      7.49208     12.39305        -0.001916     -0.003492      0.000766
      3.25052      1.87699      2.00403        -0.001514     -0.001603      0.001649
      3.25012      1.87636      7.21914        -0.000549      0.000580     -0.003454
      3.25607      1.88512     12.39316        -0.000684      0.001405      0.002794
      1.62714      4.69331      1.99573         0.000435     -0.000950      0.002075
      1.62662      4.69164      7.20998         0.000545     -0.000065      0.001133
      1.63307      4.69506     12.38424        -0.002525      0.002580      0.002077
     -0.00122      7.50436      1.98612        -0.006871      0.001708     -0.001350
     -0.00027      7.50420      7.20041         0.000754     -0.000364      0.000347
     -0.00080      7.50368     12.41080        -0.000727      0.000018      0.002059
      6.49609      1.87157      1.98737        -0.000274     -0.000947      0.000929
      6.49595      1.87780      7.20731        -0.000531     -0.000247      0.001683
      6.48615      1.88535     12.38794         0.006308     -0.000627     -0.001392
      4.87327      4.68935      1.98981        -0.002400      0.001458     -0.000133
      4.87457      4.68943      7.19891         0.000162     -0.000600     -0.000444
      4.87358      4.68899     12.41407        -0.000248      0.001185      0.004123
      3.24730      7.49858      1.99615        -0.000140     -0.000499      0.001773
      3.24896      7.50148      7.20999        -0.000925     -0.001603      0.002206
      3.24824      7.49158     12.38409        -0.003560      0.002122      0.000227
      1.64206      0.92774      4.63953        -0.001660      0.000167     -0.006855
      1.61960      0.94061      9.82450        -0.003638      0.000942      0.001916
      1.85997      0.79940     14.90588         0.005003     -0.000967     -0.000792
      0.00024      3.76792      4.62678         0.001133     -0.006313     -0.010121
     -0.00166      3.75305      9.79952        -0.002812      0.001656      0.007005
      0.01042      3.92849     14.94229         0.004259     -0.002398     -0.003128
     -1.62520      6.56608      4.60486        -0.002465      0.002214     -0.000449
     -1.61975      6.56747      9.80254         0.000727     -0.003590      0.000073
     -1.63484      6.58552     15.00382         0.002465     -0.000628      0.001713
      4.87380      0.93831      4.60442        -0.003304      0.001232      0.001521
      4.87515      0.93276      9.80272         0.002392     -0.001103     -0.002043
      4.85018      0.93450     15.00371         0.002655     -0.000379      0.003106
      3.25008      3.75161      4.60837         0.001129     -0.002294      0.000770
      3.25321      3.75642      9.80187         0.001567      0.006958     -0.002594
      3.23904      3.76521     15.01107         0.002863      0.001477      0.002120
      1.62436      6.56610      4.60113        -0.000206     -0.000639      0.003992
      1.62070      6.56792      9.79980        -0.002242      0.001237      0.000388
      1.61438      6.56945     15.00373         0.002149     -0.001688      0.000405
      8.10992      0.92944      4.62681         0.004809      0.002030     -0.009067
      8.12138      0.93803      9.79953        -0.003487      0.000956      0.007553
      7.97142      0.83555     14.94173         0.005411      0.001034     -0.003453
      6.49904      3.75175      4.59458        -0.000011     -0.000936     -0.002507
      6.49458      3.75400      9.79947        -0.001763      0.001698      0.001963
      6.49663      3.75172     15.01875        -0.006068      0.002074     -0.000096
      4.87460      6.56493      4.60894         0.002211     -0.000066     -0.001177
      4.87188      6.55977      9.80166        -0.004681     -0.005396     -0.001441
      4.85564      6.56547     15.01110         0.001661     -0.001191      0.001452
     -0.03767      1.89276      0.00944         0.016470     -0.007143     -0.019393
 -----------------------------------------------------------------------------------
    total drift:                                0.041000     -0.019673      0.864213


--------------------------------------------------------------------------------------------------------



  FREE ENERGIE OF THE ION-ELECTRON SYSTEM (eV)
  ---------------------------------------------------
  free  energy   TOTEN  =      -675.03330465 eV

  energy  without entropy=     -674.99922738  energy(sigma->0) =     -675.01626601
 d Force = 0.3384627E-03[ 0.254E-03, 0.423E-03]  d Energy = 0.3387016E-03-0.239E-06
 d Force = 0.1211413E+01[ 0.121E+01, 0.121E+01]  d Ewald  = 0.1211415E+01-0.249E-05
 


--------------------------------------------------------------------------------------------------------


    POTLOK:  cpu time     18.9876: real time     19.2072


--------------------------------------------------------------------------------------------------------


 Conjugate gradient step on ions:
 trial-energy change:   -0.000339  1 .order   -0.000338   -0.000423   -0.000254
  (g-gl).g = 0.379E-03      g.g   = 0.404E-03  gl.gl    = 0.610E-03
 g(Force)  = 0.404E-03   g(Stress)= 0.000E+00 ortho     = 0.250E-04
 gamma     =   0.62136
 trial     =   1.00868
 opt step  =   2.51595  (harmonic =   2.51595) maximal distance =0.00642905
 next E    =  -675.033494   (d E  =  -0.00053)


--------------------------------------------------------------------------------------------------------


  
 reached required accuracy - stopping structural energy minimisation
 writing wavefunctions
     LOOP+:  cpu time   2129.2000: real time   2145.1778
    4ORBIT:  cpu time      0.0002: real time      0.0521



 total charge

# of ion       s       p       d       tot
------------------------------------------
    1        0.406   0.468   9.944  10.818
    2        0.411   0.476   9.946  10.833
    3        0.416   0.487   9.946  10.848
    4        0.412   0.481   9.948  10.841
    5        0.412   0.481   9.949  10.842
    6        0.425   0.496   9.945  10.865
    7        0.412   0.481   9.948  10.840
    8        0.412   0.480   9.949  10.841
    9        0.425   0.496   9.945  10.865
   10        0.412   0.481   9.948  10.840
   11        0.412   0.480   9.949  10.841
   12        0.423   0.497   9.943  10.862
   13        0.412   0.481   9.948  10.841
   14        0.411   0.481   9.949  10.842
   15        0.408   0.476   9.945  10.828
   16        0.411   0.479   9.947  10.837
   17        0.411   0.479   9.948  10.838
   18        0.416   0.487   9.946  10.848
   19        0.412   0.481   9.948  10.841
   20        0.412   0.481   9.949  10.842
   21        0.411   0.478   9.947  10.836
   22        0.411   0.480   9.948  10.839
   23        0.410   0.479   9.948  10.837
   24        0.423   0.497   9.943  10.862
   25        0.412   0.481   9.948  10.841
   26        0.411   0.481   9.949  10.842
   27        0.415   0.488   9.949  10.852
   28        0.409   0.474   9.945  10.828
   29        0.423   0.487   9.943  10.852
   30        0.413   0.481   9.946  10.841
   31        0.410   0.477   9.947  10.834
   32        0.415   0.489   9.948  10.851
   33        0.410   0.477   9.947  10.834
   34        0.412   0.481   9.948  10.840
   35        0.409   0.476   9.948  10.833
   36        0.410   0.477   9.947  10.834
   37        0.412   0.481   9.948  10.840
   38        0.409   0.476   9.948  10.833
   39        0.410   0.476   9.946  10.832
   40        0.412   0.481   9.948  10.840
   41        0.409   0.477   9.948  10.833
   42        0.411   0.478   9.946  10.836
   43        0.412   0.481   9.948  10.841
   44        0.409   0.477   9.945  10.831
   45        0.414   0.481   9.946  10.841
   46        0.410   0.478   9.947  10.834
   47        0.415   0.489   9.948  10.851
   48        0.409   0.474   9.946  10.828
   49        0.412   0.481   9.948  10.841
   50        0.410   0.477   9.947  10.834
   51        0.410   0.476   9.946  10.832
   52        0.412   0.481   9.948  10.840
   53        0.409   0.477   9.948  10.833
   54        1.574   3.533   0.000   5.107
   55        1.575   3.522   0.000   5.096
   56        1.575   3.516   0.000   5.091
   57        1.574   3.521   0.000   5.095
   58        1.575   3.524   0.000   5.099
   59        1.574   3.529   0.000   5.102
   60        1.574   3.523   0.000   5.098
   61        1.575   3.524   0.000   5.099
   62        1.574   3.527   0.000   5.102
   63        1.574   3.523   0.000   5.098
   64        1.575   3.524   0.000   5.099
   65        1.574   3.527   0.000   5.102
   66        1.575   3.520   0.000   5.095
   67        1.575   3.525   0.000   5.099
   68        1.575   3.525   0.000   5.100
   69        1.574   3.523   0.000   5.097
   70        1.574   3.525   0.000   5.099
   71        1.574   3.526   0.000   5.100
   72        1.574   3.521   0.000   5.095
   73        1.575   3.524   0.000   5.099
   74        1.574   3.529   0.000   5.102
   75        1.574   3.520   0.000   5.095
   76        1.574   3.525   0.000   5.099
   77        1.574   3.527   0.000   5.101
   78        1.575   3.520   0.000   5.095
   79        1.575   3.525   0.000   5.099
   80        1.575   3.525   0.000   5.100
   81        1.575   3.528   0.000   5.102
   82        1.575   3.520   0.000   5.095
   83        1.616   3.303   0.000   4.919
   84        1.575   3.525   0.000   5.100
   85        1.574   3.525   0.000   5.100
   86        1.580   3.513   0.000   5.093
   87        1.574   3.524   0.000   5.099
   88        1.574   3.527   0.000   5.102
   89        1.576   3.522   0.000   5.098
   90        1.574   3.524   0.000   5.099
   91        1.574   3.527   0.000   5.101
   92        1.576   3.522   0.000   5.098
   93        1.574   3.524   0.000   5.098
   94        1.574   3.527   0.000   5.102
   95        1.574   3.527   0.000   5.101
   96        1.574   3.524   0.000   5.098
   97        1.574   3.527   0.000   5.102
   98        1.580   3.504   0.000   5.084
   99        1.575   3.525   0.000   5.100
  100        1.574   3.525   0.000   5.100
  101        1.580   3.513   0.000   5.093
  102        1.574   3.523   0.000   5.097
  103        1.574   3.527   0.000   5.101
  104        1.575   3.517   0.000   5.092
  105        1.574   3.524   0.000   5.098
  106        1.574   3.527   0.000   5.102
  107        1.574   3.527   0.000   5.101
  108        0.094   0.065   0.000   0.159
--------------------------------------------------
tot        107.024 215.614 527.185 849.823



 magnetization (x)

# of ion       s       p       d       tot
------------------------------------------
    1        0.000   0.000  -0.001  -0.000
    2       -0.000  -0.000   0.000  -0.000
    3       -0.002  -0.002   0.007   0.003
    4        0.000   0.000  -0.001  -0.000
    5        0.000  -0.000  -0.000  -0.000
    6       -0.005  -0.006   0.012   0.001
    7        0.000   0.000  -0.001  -0.000
    8       -0.000   0.000  -0.000  -0.000
    9       -0.005  -0.006   0.012   0.001
   10        0.000   0.000  -0.001  -0.000
   11       -0.000   0.000  -0.000  -0.000
   12       -0.006  -0.001   0.018   0.011
   13        0.000   0.000  -0.001  -0.000
   14       -0.000  -0.000   0.000  -0.000
   15       -0.002  -0.002   0.005   0.000
   16        0.000   0.000  -0.001  -0.000
   17        0.000  -0.000  -0.000  -0.000
   18       -0.002  -0.002   0.007   0.003
   19        0.000   0.000  -0.001  -0.000
   20        0.000  -0.000  -0.000  -0.000
   21       -0.001  -0.000   0.001   0.000
   22        0.000   0.000  -0.000  -0.000
   23        0.000   0.000  -0.000  -0.000
   24       -0.006  -0.001   0.018   0.011
   25        0.000   0.000  -0.001  -0.000
   26       -0.000  -0.000   0.000  -0.000
   27       -0.000  -0.000   0.000  -0.000
   28        0.000   0.000  -0.001  -0.000
   29       -0.004  -0.006   0.011   0.001
   30       -0.001   0.000   0.001   0.001
   31        0.000   0.000  -0.001  -0.000
   32       -0.002  -0.002   0.007   0.002
   33       -0.000   0.000  -0.000  -0.000
   34        0.000   0.000  -0.001  -0.000
   35       -0.000  -0.001   0.001  -0.000
   36       -0.000   0.000  -0.000  -0.000
   37        0.000   0.000  -0.001  -0.000
   38       -0.000  -0.001   0.001  -0.000
   39       -0.000  -0.000   0.000  -0.000
   40        0.000   0.000  -0.001  -0.000
   41       -0.000  -0.000   0.001   0.000
   42       -0.001   0.000   0.001   0.001
   43        0.000   0.000  -0.001  -0.000
   44       -0.002  -0.002   0.005   0.001
   45       -0.001   0.000   0.001   0.001
   46        0.000   0.000  -0.001  -0.000
   47       -0.002  -0.002   0.007   0.002
   48       -0.000   0.000  -0.000   0.000
   49        0.000   0.000  -0.001  -0.000
   50       -0.000  -0.000   0.001   0.000
   51       -0.000  -0.000   0.000  -0.000
   52        0.000   0.000  -0.001  -0.000
   53       -0.000  -0.000   0.001   0.000
   54        0.000   0.011   0.000   0.011
   55       -0.000  -0.003   0.000  -0.003
   56        0.000   0.022   0.000   0.022
   57       -0.000   0.000   0.000   0.000
   58       -0.000  -0.003   0.000  -0.003
   59       -0.000   0.001   0.000   0.001
   60       -0.000  -0.001   0.000  -0.001
   61       -0.000  -0.003   0.000  -0.003
   62        0.000   0.008   0.000   0.008
   63       -0.000  -0.001   0.000  -0.001
   64       -0.000  -0.003   0.000  -0.003
   65        0.000   0.008   0.000   0.008
   66        0.000   0.008   0.000   0.008
   67       -0.000  -0.003   0.000  -0.003
   68        0.000   0.015   0.000   0.015
   69       -0.000  -0.000   0.000  -0.000
   70       -0.000  -0.003   0.000  -0.003
   71       -0.000   0.001   0.000   0.001
   72       -0.000   0.000   0.000   0.000
   73       -0.000  -0.003   0.000  -0.003
   74       -0.000   0.001   0.000   0.001
   75       -0.000   0.001   0.000   0.001
   76       -0.000  -0.003   0.000  -0.003
   77        0.000   0.002   0.000   0.002
   78        0.000   0.008   0.000   0.008
   79       -0.000  -0.003   0.000  -0.003
   80        0.000   0.015   0.000   0.015
   81       -0.000  -0.002   0.000  -0.002
   82       -0.000  -0.002   0.000  -0.002
   83        0.014   0.710   0.000   0.724
   84       -0.000  -0.002   0.000  -0.002
   85       -0.000  -0.000   0.000  -0.000
   86        0.003   0.119   0.000   0.122
   87       -0.000  -0.002   0.000  -0.002
   88       -0.000  -0.001   0.000  -0.001
   89        0.001   0.042   0.000   0.043
   90       -0.000  -0.002   0.000  -0.002
   91       -0.000  -0.001   0.000  -0.001
   92        0.001   0.042   0.000   0.043
   93       -0.000  -0.002   0.000  -0.002
   94       -0.000  -0.001   0.000  -0.001
   95       -0.000   0.003   0.000   0.002
   96       -0.000  -0.002   0.000  -0.002
   97       -0.000  -0.000   0.000  -0.000
   98        0.002   0.103   0.000   0.105
   99       -0.000  -0.002   0.000  -0.002
  100       -0.000  -0.000   0.000  -0.000
  101        0.003   0.119   0.000   0.122
  102       -0.000  -0.002   0.000  -0.002
  103       -0.000  -0.001   0.000  -0.001
  104        0.000   0.014   0.000   0.014
  105       -0.000  -0.002   0.000  -0.002
  106       -0.000  -0.001   0.000  -0.001
  107       -0.000   0.003   0.000   0.002
  108       -0.003   0.003   0.000   0.000
--------------------------------------------------
tot         -0.020   1.175   0.105   1.260
 

 total amount of memory used by VASP MPI-rank0  6504783. kBytes
=======================================================================

   base                                    :      30000. kBytes
   nonlr-proj                              :      84942. kBytes
   fftplans                                :      50796. kBytes
   grid                                    :     145907. kBytes
   one-center                              :       3359. kBytes
   HF                                      :        194. kBytes
   wavefun                                 :    5995503. kBytes
   fock_wrk                                :     194082. kBytes
 
  
  
 General timing and accounting informations for this job:
 ========================================================
  
                  Total CPU time used (sec):     8166.707
                            User time (sec):     8152.917
                          System time (sec):       13.789
                         Elapsed time (sec):     8230.679
  
                   Maximum memory used (kb):     9846844.
                   Average memory used (kb):          N/A
  
                          Minor page faults:       346001
                          Major page faults:        23880
                 Voluntary context switches:       261067
