       N       E                     dE             d eps       ncg     rms          rms(c)
DAV:   1     0.173713392433E+03    0.17371E+03   -0.12343E+04  1848   0.126E+03
DAV:   2    -0.230598958433E+01   -0.17602E+03   -0.17236E+03  2028   0.285E+02
DAV:   3    -0.157284576754E+02   -0.13422E+02   -0.13384E+02  2196   0.867E+01
DAV:   4    -0.159491411915E+02   -0.22068E+00   -0.22057E+00  2178   0.116E+01
DAV:   5    -0.159530266570E+02   -0.38855E-02   -0.38853E-02  2232   0.149E+00    0.100E+01
DAV:   6    -0.151295267914E+02    0.82350E+00   -0.21683E+00  2600   0.438E+01    0.764E+00
DAV:   7    -0.151617853413E+02   -0.32259E-01   -0.19096E+00  1920   0.758E+00    0.328E+00
DAV:   8    -0.151405555302E+02    0.21230E-01   -0.97533E-02  2496   0.424E+00    0.102E+00
DAV:   9    -0.151400241926E+02    0.53134E-03   -0.22609E-02  2536   0.246E+00    0.255E-01
DAV:  10    -0.151401404537E+02   -0.11626E-03   -0.11467E-03  2124   0.347E-01    0.190E-01
DAV:  11    -0.151402509278E+02   -0.11047E-03   -0.12439E-04  2346   0.103E-01    0.411E-02
DAV:  12    -0.151402658945E+02   -0.14967E-04   -0.27645E-05  2132   0.396E-02    0.264E-02
DAV:  13    -0.151402659767E+02   -0.82228E-07   -0.12557E-06  1494   0.102E-02
   1 F= -.15140266E+02 E0= -.15140266E+02  d E =0.000000E+00
 Linear response reoptimize wavefunctions
DAV:   1    -0.151402664866E+02   -0.50994E-06   -0.17879E-06  2130   0.684E-03
DAV:   2    -0.151402664969E+02   -0.10233E-07   -0.10233E-07  2204   0.275E-03
DAV:   3    -0.151402664969E+02   -0.73214E-10   -0.73225E-10  1500   0.185E-04
 Linear response G [H, r] |phi>, progress :
  Direction:   1
       N       E                     dE             d eps       ncg     rms
RMM:   1    -0.835376148021E+02   -0.83538E+02    0.44228E+02  3701   0.982E+01
RMM:   2    -0.902705782829E+02   -0.67330E+01   -0.31301E+01  3010   0.348E+01
RMM:   3    -0.908567718373E+02   -0.58619E+00   -0.14081E+00  3155   0.760E+00
RMM:   4    -0.908892229691E+02   -0.32451E-01   -0.38089E-02  3223   0.146E+00
RMM:   5    -0.908937453262E+02   -0.45224E-02    0.41927E-03  3287   0.388E-01
RMM:   6    -0.908949821738E+02   -0.12368E-02    0.19783E-03  3394   0.116E-01
RMM:   7    -0.908953258219E+02   -0.34365E-03    0.14412E-04  3418   0.409E-02
RMM:   8    -0.908953839870E+02   -0.58165E-04   -0.43799E-04  2903   0.177E-02
RMM:   9    -0.908953841388E+02   -0.15178E-06   -0.99893E-04  2426   0.105E-02
RMM:  10    -0.908953867790E+02   -0.26402E-05   -0.94522E-04  2168   0.799E-03
RMM:  11    -0.908953821446E+02    0.46344E-05   -0.87497E-04  2090   0.716E-03
RMM:  12    -0.908953814921E+02    0.65256E-06   -0.98150E-04  2067   0.684E-03
RMM:  13    -0.908953803165E+02    0.11755E-05   -0.78262E-04  2003   0.672E-03
RMM:  14    -0.908953783439E+02    0.19726E-05   -0.69584E-04  1964   0.670E-03
 Linear response G [H, r] |phi>, progress :
  Direction:   2
       N       E                     dE             d eps       ncg     rms
RMM:   1    -0.993291418761E+02   -0.99329E+02    0.25266E+02  3731   0.948E+01
RMM:   2    -0.101739416555E+03   -0.24103E+01   -0.24130E+01  2982   0.327E+01
RMM:   3    -0.102169767256E+03   -0.43035E+00   -0.91869E-01  3158   0.670E+00
RMM:   4    -0.102215846294E+03   -0.46079E-01   -0.18702E-01  3207   0.130E+00
RMM:   5    -0.102227277712E+03   -0.11431E-01   -0.23965E-01  3284   0.353E-01
RMM:   6    -0.102217494645E+03    0.97831E-02   -0.13390E-01  3398   0.108E-01
RMM:   7    -0.102207385845E+03    0.10109E-01   -0.31624E-02  3424   0.400E-02
RMM:   8    -0.102207696236E+03   -0.31039E-03   -0.35314E-02  2892   0.184E-02
RMM:   9    -0.102205184992E+03    0.25112E-02   -0.10293E-02  2415   0.111E-02
RMM:  10    -0.102205047400E+03    0.13759E-03   -0.87930E-03  2166   0.860E-03
RMM:  11    -0.102204482426E+03    0.56497E-03   -0.33283E-03  2083   0.769E-03
RMM:  12    -0.102204445050E+03    0.37375E-04   -0.28027E-03  2019   0.736E-03
RMM:  13    -0.102204301382E+03    0.14367E-03   -0.15290E-03  1983   0.722E-03
RMM:  14    -0.102204294563E+03    0.68190E-05   -0.14103E-03  1939   0.716E-03
 Linear response G [H, r] |phi>, progress :
  Direction:   3
       N       E                     dE             d eps       ncg     rms
RMM:   1    -0.919293528946E+02   -0.91929E+02    0.32310E+02  3524   0.950E+01
RMM:   2    -0.961244321490E+02   -0.41951E+01   -0.23882E+01  3028   0.323E+01
RMM:   3    -0.965966961569E+02   -0.47226E+00   -0.10098E+00  3145   0.648E+00
RMM:   4    -0.966112480611E+02   -0.14552E-01   -0.54659E-02  3197   0.132E+00
RMM:   5    -0.966124558991E+02   -0.12078E-02   -0.71812E-03  3267   0.372E-01
RMM:   6    -0.966126492912E+02   -0.19339E-03   -0.48433E-04  3356   0.116E-01
RMM:   7    -0.966127181189E+02   -0.68828E-04   -0.24331E-05  3340   0.431E-02
RMM:   8    -0.966127469651E+02   -0.28846E-04   -0.15829E-04  2735   0.178E-02
RMM:   9    -0.966127542583E+02   -0.72932E-05   -0.93075E-05  2329   0.976E-03
RMM:  10    -0.966127582113E+02   -0.39530E-05   -0.16004E-04  2089   0.694E-03
RMM:  11    -0.966127573056E+02    0.90571E-06   -0.15909E-04  2011   0.615E-03
RMM:  12    -0.966127597138E+02   -0.24082E-05   -0.93509E-05  1954   0.569E-03
RMM:  13    -0.966127575239E+02    0.21898E-05   -0.18279E-04  1891   0.560E-03
RMM:  14    -0.966127600079E+02   -0.24840E-05   -0.11203E-04  1834   0.553E-03
RMM:  15    -0.966127582450E+02    0.17629E-05   -0.17336E-04  1797   0.556E-03
 Linear response to external field (no local field effect), progress :
  Direction:   1
       N       E                     dE             d eps       ncg     rms          rms(c)
RMM:   1    -0.909073220410E+00   -0.90907E+00   -0.33006E+00  2744   0.475E+00
RMM:   2    -0.949938186779E+00   -0.40865E-01   -0.32567E-02  3165   0.106E+00
RMM:   3    -0.951064524305E+00   -0.11263E-02   -0.14684E-03  3181   0.174E-01
RMM:   4    -0.951118463835E+00   -0.53940E-04   -0.62248E-05  3195   0.315E-02
RMM:   5    -0.951120770614E+00   -0.23068E-05   -0.66802E-06  3177   0.775E-03
RMM:   6    -0.951121132533E+00   -0.36192E-06   -0.11588E-06  1852   0.236E-03
 Linear response to external field (no local field effect), progress :
  Direction:   2
       N       E                     dE             d eps       ncg     rms          rms(c)
RMM:   1    -0.129083492015E+01   -0.12908E+01   -0.50301E+00  2703   0.503E+00
RMM:   2    -0.134271984554E+01   -0.51885E-01   -0.40365E-02  3181   0.108E+00
RMM:   3    -0.134399450511E+01   -0.12747E-02   -0.18211E-03  3181   0.180E-01
RMM:   4    -0.134408916455E+01   -0.94659E-04   -0.12669E-04  3203   0.348E-02
RMM:   5    -0.134409479940E+01   -0.56348E-05   -0.18953E-05  3142   0.951E-03
RMM:   6    -0.134409574586E+01   -0.94646E-06   -0.30688E-06  1804   0.310E-03
 Linear response to external field (no local field effect), progress :
  Direction:   3
       N       E                     dE             d eps       ncg     rms          rms(c)
RMM:   1    -0.112701873121E+01   -0.11270E+01   -0.43606E+00  2729   0.479E+00
RMM:   2    -0.116515037387E+01   -0.38132E-01   -0.36257E-02  3153   0.103E+00
RMM:   3    -0.116650574811E+01   -0.13554E-02   -0.19834E-03  3141   0.178E-01
RMM:   4    -0.116660210061E+01   -0.96352E-04   -0.12528E-04  3173   0.331E-02
RMM:   5    -0.116660590277E+01   -0.38022E-05   -0.16257E-05  3071   0.889E-03
RMM:   6    -0.116660707834E+01   -0.11756E-05   -0.38296E-06  1705   0.285E-03
RMM:   7    -0.116660710624E+01   -0.27899E-07   -0.45991E-07  1314   0.140E-03
 Linear response to external field, progress :
  Direction:   1
       N       E                     dE             d eps       ncg     rms          rms(c)
RMM:   1    -0.110104962351E+01   -0.11010E+01   -0.41763E+00 10627   0.486E+00
RMM:   2    -0.114629761601E+01   -0.45248E-01   -0.35345E-02 12478   0.105E+00    0.209E+00
RMM:   3    -0.107643477700E+01    0.69863E-01   -0.10714E-01 12187   0.142E+00    0.107E+00
RMM:   4    -0.109444216599E+01   -0.18007E-01   -0.79336E-02 12425   0.125E+00    0.280E-01
RMM:   5    -0.111324585404E+01   -0.18804E-01   -0.55259E-03 12565   0.378E-01    0.552E-02
RMM:   6    -0.111320638540E+01    0.39469E-04   -0.73225E-04 12544   0.133E-01    0.219E-02
RMM:   7    -0.111412312564E+01   -0.91674E-03   -0.43045E-05 12764   0.373E-02    0.125E-02
RMM:   8    -0.111435196896E+01   -0.22884E-03   -0.35561E-05 12432   0.225E-02    0.405E-03
RMM:   9    -0.111431494109E+01    0.37028E-04    0.16752E-06 11965   0.611E-03    0.105E-03
RMM:  10    -0.111431992397E+01   -0.49829E-05   -0.53116E-07 11597   0.267E-03    0.515E-04
RMM:  11    -0.111432890395E+01   -0.89800E-05    0.60993E-07  6646   0.835E-04    0.161E-04
RMM:  12    -0.111433040623E+01   -0.15023E-05   -0.32883E-07  6382   0.680E-04    0.340E-05
RMM:  13    -0.111433027956E+01    0.12667E-06   -0.53165E-07  3985   0.485E-04    0.106E-05
 Linear response to external field, progress :
  Direction:   2
       N       E                     dE             d eps       ncg     rms          rms(c)
RMM:   1    -0.110191768639E+01   -0.11019E+01   -0.41850E+00 10714   0.483E+00
RMM:   2    -0.114631379131E+01   -0.44396E-01   -0.35018E-02 12474   0.104E+00    0.209E+00
RMM:   3    -0.107653644832E+01    0.69777E-01   -0.10732E-01 12181   0.142E+00    0.107E+00
RMM:   4    -0.109451785662E+01   -0.17981E-01   -0.79376E-02 12435   0.125E+00    0.279E-01
RMM:   5    -0.111303094960E+01   -0.18513E-01   -0.53514E-03 12546   0.373E-01    0.524E-02
RMM:   6    -0.111326513181E+01   -0.23418E-03   -0.68555E-04 12549   0.130E-01    0.219E-02
RMM:   7    -0.111415368857E+01   -0.88856E-03   -0.37404E-05 12736   0.353E-02    0.102E-02
RMM:   8    -0.111435123178E+01   -0.19754E-03   -0.21979E-05 12415   0.177E-02    0.335E-03
RMM:   9    -0.111431616662E+01    0.35065E-04   -0.11094E-07 11459   0.472E-03    0.884E-04
RMM:  10    -0.111432523909E+01   -0.90725E-05    0.37289E-07 10878   0.224E-03    0.392E-04
RMM:  11    -0.111433293483E+01   -0.76957E-05   -0.51767E-07  6278   0.705E-04    0.110E-04
RMM:  12    -0.111433366855E+01   -0.73372E-06   -0.20316E-07  5280   0.590E-04    0.213E-05
 Linear response to external field, progress :
  Direction:   3
       N       E                     dE             d eps       ncg     rms          rms(c)
RMM:   1    -0.112701873121E+01   -0.11270E+01   -0.43606E+00  2729   0.479E+00
RMM:   2    -0.116515032806E+01   -0.38132E-01   -0.36257E-02  3153   0.103E+00    0.210E+00
RMM:   3    -0.109690668492E+01    0.68244E-01   -0.10887E-01  3043   0.140E+00    0.108E+00
RMM:   4    -0.111537692574E+01   -0.18470E-01   -0.80290E-02  3153   0.121E+00    0.283E-01
RMM:   5    -0.113349968266E+01   -0.18123E-01   -0.47640E-03  3141   0.354E-01    0.527E-02
RMM:   6    -0.113347219779E+01    0.27485E-04   -0.84664E-04  3156   0.121E-01    0.206E-02
RMM:   7    -0.113435929600E+01   -0.88710E-03   -0.89199E-05  3230   0.329E-02    0.103E-02
RMM:   8    -0.113457494383E+01   -0.21565E-03    0.46779E-07  3140   0.174E-02    0.298E-03
RMM:   9    -0.113455391647E+01    0.21027E-04   -0.14352E-06  2894   0.466E-03    0.822E-04
RMM:  10    -0.113456067968E+01   -0.67632E-05   -0.11944E-06  2659   0.199E-03    0.323E-04
RMM:  11    -0.113456765316E+01   -0.69735E-05    0.76944E-07  1438   0.612E-04    0.117E-04
RMM:  12    -0.113456816918E+01   -0.51602E-06    0.11016E-07  1434   0.634E-04    0.279E-05
 Linear response DOF=            4
 Linear response progress:
  Degree of freedom:   1/  4
       N       E                     dE             d eps       ncg     rms          rms(c)
RMM:   1    -0.210967671024E+00   -0.21097E+00   -0.38856E-03 20462   0.195E+00
RMM:   2    -0.208734737762E+00    0.22329E-02   -0.41324E-03 21038   0.430E-01    0.127E-01
RMM:   3    -0.208558735670E+00    0.17600E-03   -0.12925E-04 22794   0.659E-02    0.756E-02
RMM:   4    -0.208303848031E+00    0.25489E-03   -0.17119E-05 22552   0.262E-02    0.289E-03
RMM:   5    -0.208303128746E+00    0.71928E-06   -0.68759E-07 23203   0.419E-03    0.185E-03
 Linear response progress:
  Degree of freedom:   2/  4
       N       E                     dE             d eps       ncg     rms          rms(c)
RMM:   1    -0.217663731668E+00   -0.21766E+00   -0.35881E-03  4508   0.197E+00
RMM:   2    -0.214705935669E+00    0.29578E-02   -0.43218E-03  4637   0.450E-01    0.149E-01
RMM:   3    -0.214412787279E+00    0.29315E-03   -0.23471E-04  4972   0.842E-02    0.810E-02
RMM:   4    -0.214118268885E+00    0.29452E-03   -0.13744E-04  4932   0.483E-02    0.187E-02
RMM:   5    -0.214057203540E+00    0.61065E-04   -0.15161E-05  5095   0.176E-02    0.651E-03
RMM:   6    -0.214061156992E+00   -0.39535E-05   -0.69677E-08  4957   0.500E-03    0.372E-03
RMM:   7    -0.214067013727E+00   -0.58567E-05   -0.11908E-06  4879   0.224E-03    0.692E-04
RMM:   8    -0.214068593216E+00   -0.15795E-05   -0.11004E-07  4711   0.850E-04    0.201E-04
RMM:   9    -0.214068275908E+00    0.31731E-06   -0.70554E-08  5178   0.325E-04    0.549E-05
 Linear response progress:
  Degree of freedom:   3/  4
       N       E                     dE             d eps       ncg     rms          rms(c)
RMM:   1    -0.105743859070E+00   -0.10574E+00    0.50142E-02 32303   0.213E+00
RMM:   2    -0.102891231012E+00    0.28526E-02   -0.70750E-03 20477   0.624E-01    0.162E-01
RMM:   3    -0.103210348707E+00   -0.31912E-03   -0.36719E-04 22467   0.125E-01    0.819E-02
RMM:   4    -0.103531621534E+00   -0.32127E-03   -0.90245E-05 22228   0.487E-02    0.171E-02
RMM:   5    -0.103560851298E+00   -0.29230E-04   -0.53786E-06 23006   0.130E-02    0.872E-03
RMM:   6    -0.103544581639E+00    0.16270E-04   -0.62895E-07 22527   0.402E-03    0.372E-03
RMM:   7    -0.103553272037E+00   -0.86904E-05   -0.28268E-07 21367   0.181E-03    0.638E-04
RMM:   8    -0.103552081230E+00    0.11908E-05    0.40598E-08 23357   0.649E-04    0.836E-05
RMM:   9    -0.103551268958E+00    0.81227E-06    0.18670E-08 22398   0.302E-04    0.549E-05
 Linear response progress:
  Degree of freedom:   4/  4
       N       E                     dE             d eps       ncg     rms          rms(c)
RMM:   1    -0.125752289476E+00   -0.12575E+00    0.60123E-02  7326   0.216E+00
RMM:   2    -0.121549718240E+00    0.42026E-02   -0.74994E-03  4293   0.716E-01    0.188E-01
RMM:   3    -0.121744220321E+00   -0.19450E-03   -0.80452E-04  4968   0.165E-01    0.943E-02
RMM:   4    -0.121927346464E+00   -0.18313E-03   -0.14290E-04  4566   0.597E-02    0.293E-02
RMM:   5    -0.121946410002E+00   -0.19064E-04   -0.13962E-05  4857   0.216E-02    0.842E-03
RMM:   6    -0.121939615013E+00    0.67950E-05   -0.16054E-06  5027   0.490E-03    0.478E-03
RMM:   7    -0.121943635611E+00   -0.40206E-05   -0.61560E-07  5074   0.166E-03    0.995E-04
RMM:   8    -0.121944658625E+00   -0.10230E-05   -0.62532E-07  4506   0.987E-04    0.191E-04
RMM:   9    -0.121944687661E+00   -0.29037E-07   -0.24907E-07  5123   0.331E-04    0.854E-05
 Linear response finished
