 vasp.6.5.1 10Mar25 (build May 13 2025 11:33:44) complex                         
 executed on              LinuxNV date 2026.05.15  18:25:31
 running    2 mpi-ranks, on    1 nodes
 distrk:  each k-point on    1 cores,    2 groups
 distr:  one band on NCORE=   1 cores,    1 groups
 Offloading initialized ...    2 GPUs detected


--------------------------------------------------------------------------------------------------------


 INCAR:
   ALGO = Normal
   PREC = Normal
   LREAL = False
   EDIFF = 1e-06
   ENCUT = 276.723
   LASPH = True
   NELM = 100
   ISIF = 0
   IBRION = 8
   NSW = 1
   ISMEAR = -5
   SIGMA = 0.1
   LWAVE = False
   LCHARG = False
   LORBIT = 10
   LEPSILON = True
   GGA = Ps
   KPAR = 4

 POTCAR:    PAW_PBE Zn 06Sep2000                  
 POTCAR:    PAW_PBE S 06Sep2000                   
 POTCAR:    PAW_PBE Zn 06Sep2000                  
   SHA256 =  501fddbd8274dd8e9725d4f3de27861d7f1e553a7e18441bc79fed8f346e7f23 Zn/POTCAR             
   COPYR  = (c) Copyright 06Sep2000 Georg Kresse                                                    
   COPYR  = This file is part of the software VASP. Any use, copying, and all other rights are regul
   COPYR  = If you do not have a valid VASP license, you may not use, copy or distribute this file. 
   VRHFIN =Zn: d10 p2                                                                               
   LEXCH  = PE                                                                                      
   EATOM  =  1748.8345 eV,  128.5357 Ry                                                             
                                                                                                    
   TITEL  = PAW_PBE Zn 06Sep2000                                                                    
   LULTRA =        F    use ultrasoft PP ?                                                          
   IUNSCR =        1    unscreen: 0-lin 1-nonlin 2-no                                               
   RPACOR =    2.000    partial core radius                                                         
   POMASS =   65.390; ZVAL   =   12.000    mass and valenz                                          
   RCORE  =    2.300    outmost cutoff radius                                                       
   RWIGS  =    2.400; RWIGS  =    1.270    wigner-seitz radius (au A)                               
   ENMAX  =  276.723; ENMIN  =  207.542 eV                                                          
   RCLOC  =    1.828    cutoff for local pot                                                        
   LCOR   =        T    correct aug charges                                                         
   LPAW   =        T    paw PP                                                                      
   EAUG   =  575.892                                                                                
   DEXC   =    0.000                                                                                
   RMAX   =    2.347    core radius for proj-oper                                                   
   RAUG   =    1.300    factor for augmentation sphere                                              
   RDEP   =    2.324    radius for radial grids                                                     
   RDEPT  =    1.788    core radius for aug-charge                                                  
                                                                                                    
   Atomic configuration                                                                             
    9 entries                                                                                       
     n  l   j            E        occ.                                                              
     1  0  0.50     -9524.6913   2.0000                                                             
     2  0  0.50     -1158.1882   2.0000                                                             
     2  1  1.50     -1003.8506   6.0000                                                             
     3  0  0.50      -129.2194   2.0000                                                             
     3  1  1.50       -83.3890   6.0000                                                             
     3  2  2.50       -10.1410  10.0000                                                             
     4  0  0.50        -5.9785   2.0000                                                             
     4  1  0.50        -4.0817   0.0000                                                             
     4  3  2.50        -1.3606   0.0000                                                             
   Description                                                                                      
     l       E           TYP  RCUT    TYP  RCUT                                                     
     2    -10.1410010     23  2.300                                                                 
     2    -11.5015836     23  2.300                                                                 
     0     -5.9785163     23  2.300                                                                 
     0      1.1858015     23  2.300                                                                 
     1     -2.7211652     23  2.300                                                                 
     1     13.2444212     23  2.300                                                                 
  local pseudopotential read in
  partial core-charges read in
  partial kinetic energy density read in
  atomic valenz-charges read in
  non local Contribution for L=            2  read in
    real space projection operators read in
  non local Contribution for L=            2  read in
    real space projection operators read in
  non local Contribution for L=            0  read in
    real space projection operators read in
  non local Contribution for L=            0  read in
    real space projection operators read in
  non local Contribution for L=            1  read in
    real space projection operators read in
  non local Contribution for L=            1  read in
    real space projection operators read in
    PAW grid and wavefunctions read in
 
   number of l-projection  operators is LMAX  =            6
   number of lm-projection operators is LMMAX =           18
 
 POTCAR:    PAW_PBE S 06Sep2000                   
   SHA256 =  0fc7481fb0695f01bdc6462160264c5c84044ae9ec85a907d398b887a2bc3132 S/POTCAR              
   COPYR  = (c) Copyright 06Sep2000 Georg Kresse                                                    
   COPYR  = This file is part of the software VASP. Any use, copying, and all other rights are regul
   COPYR  = If you do not have a valid VASP license, you may not use, copy or distribute this file. 
   VRHFIN =S : s2p4                                                                                 
   LEXCH  = PE                                                                                      
   EATOM  =   276.8230 eV,   20.3459 Ry                                                             
                                                                                                    
   TITEL  = PAW_PBE S 06Sep2000                                                                     
   LULTRA =        F    use ultrasoft PP ?                                                          
   IUNSCR =        1    unscreen: 0-lin 1-nonlin 2-no                                               
   RPACOR =    1.500    partial core radius                                                         
   POMASS =   32.066; ZVAL   =    6.000    mass and valenz                                          
   RCORE  =    1.900    outmost cutoff radius                                                       
   RWIGS  =    2.200; RWIGS  =    1.164    wigner-seitz radius (au A)                               
   ENMAX  =  258.689; ENMIN  =  194.016 eV                                                          
   ICORE  =        2    local potential                                                             
   LCOR   =        T    correct aug charges                                                         
   LPAW   =        T    paw PP                                                                      
   EAUG   =  335.092                                                                                
   DEXC   =    0.000                                                                                
   RMAX   =    1.942    core radius for proj-oper                                                   
   RAUG   =    1.300    factor for augmentation sphere                                              
   RDEP   =    1.954    radius for radial grids                                                     
   RDEPT  =    1.744    core radius for aug-charge                                                  
                                                                                                    
   Atomic configuration                                                                             
    6 entries                                                                                       
     n  l   j            E        occ.                                                              
     1  0  0.50     -2405.8406   2.0000                                                             
     2  0  0.50      -211.7007   2.0000                                                             
     2  1  1.50      -156.4958   6.0000                                                             
     3  0  0.50       -17.2562   2.0000                                                             
     3  1  0.50        -7.0085   4.0000                                                             
     3  2  1.50        -6.8029   0.0000                                                             
   Description                                                                                      
     l       E           TYP  RCUT    TYP  RCUT                                                     
     0    -17.2561641     23  1.900                                                                 
     0    -15.8743224     23  1.900                                                                 
     1     -7.0085400     23  1.900                                                                 
     1     -2.7779785     23  1.900                                                                 
     2     -6.8029130     23  1.900                                                                 
  local pseudopotential read in
  partial core-charges read in
  partial kinetic energy density read in
  atomic valenz-charges read in
  non local Contribution for L=            0  read in
    real space projection operators read in
  non local Contribution for L=            0  read in
    real space projection operators read in
  non local Contribution for L=            1  read in
    real space projection operators read in
  non local Contribution for L=            1  read in
    real space projection operators read in
    PAW grid and wavefunctions read in
 
   number of l-projection  operators is LMAX  =            4
   number of lm-projection operators is LMMAX =            8
 
 -----------------------------------------------------------------------------
|                                                                             |
|               ----> ADVICE to this user running VASP <----                  |
|                                                                             |
|     You enforced a specific xc type in the INCAR file but a different       |
|     type was found in the POTCAR file.                                      |
|     I HOPE YOU KNOW WHAT YOU ARE DOING!                                     |
|                                                                             |
 -----------------------------------------------------------------------------

  PAW_PBE Zn 06Sep2000                  :
 energy of atom  1       EATOM=-1748.8345
 kinetic energy error for atom=    0.0338 (will be added to EATOM!!)
  PAW_PBE S 06Sep2000                   :
 energy of atom  2       EATOM= -276.8230
 kinetic energy error for atom=    0.0137 (will be added to EATOM!!)
 
 
 POSCAR: Zn2 S2
  positions in direct lattice
  No initial velocities read in


 exchange-correlation table for PS
   RHO(1)=    0.500       N(1)  =     2000
   RHO(2)=  100.500       N(2)  =     4000
 


--------------------------------------------------------------------------------------------------------


 ion  position               nearest neighbor table
   1  0.667  0.333  0.500-   4 2.32   4 2.32   4 2.32   3 2.32
   2  0.333  0.667  0.000-   3 2.32   3 2.32   3 2.32   4 2.32
   3  0.667  0.333  0.875-   2 2.32   2 2.32   2 2.32   1 2.32
   4  0.333  0.667  0.375-   1 2.32   1 2.32   1 2.32   2 2.32
 
  LATTYP: Found a hexagonal cell.
 ALAT       =     3.7815838737
 C/A-ratio  =     1.6407850361
  
  Lattice vectors:
  
 A1 = (   3.7815838737,   0.0000000000,   0.0000000000)
 A2 = (  -1.8907919369,   3.2749477012,   0.0000000000)
 A3 = (   0.0000000000,   0.0000000000,   6.2047662326)


Analysis of symmetry for initial positions (statically):
=====================================================================
 Subroutine PRICEL returns:
 Original cell was already a primitive cell.
 

 Routine SETGRP: Setting up the symmetry group for a 
 hexagonal supercell.


 Subroutine GETGRP returns: Found 12 space group operations
 (whereof  6 operations were pure point group operations)
 out of a pool of 24 trial point group operations.


The static configuration has the point symmetry C_3v.
 The point group associated with its full space group is C_6v.


Analysis of symmetry for dynamics (positions and initial velocities):
=====================================================================
 Subroutine PRICEL returns:
 Original cell was already a primitive cell.
 

 Routine SETGRP: Setting up the symmetry group for a 
 hexagonal supercell.


 Subroutine GETGRP returns: Found 12 space group operations
 (whereof  6 operations were pure point group operations)
 out of a pool of 24 trial point group operations.


The dynamic configuration has the point symmetry C_3v.
 The point group associated with its full space group is C_6v.


 Subroutine INISYM returns: Found 12 space group operations
 (whereof  6 operations are pure point group operations),
 and found     1 'primitive' translations


----------------------------------------------------------------------------------------

                                     Primitive cell                                     

  volume of cell :      76.8429

  direct lattice vectors                    reciprocal lattice vectors
     3.781583874  0.000000000  0.000000000     0.264439461  0.152674194 -0.000000000
    -1.890791937  3.274947701  0.000000000     0.000000000  0.305348388  0.000000000
     0.000000000  0.000000000  6.204766233     0.000000000 -0.000000000  0.161166426

  length of vectors
     3.781583874  3.781583874  6.204766233     0.305348388  0.305348388  0.161166426

  position of ions in fractional coordinates (direct lattice)
     0.666666667  0.333333333  0.500400868
     0.333333333  0.666666667  0.000400868
     0.666666667  0.333333333  0.874599132
     0.333333333  0.666666667  0.374599132

  ion indices of the primitive-cell ions
   primitive index   ion index
                 1           1
                 2           2
                 3           3
                 4           4

----------------------------------------------------------------------------------------

 
 
 KPOINTS: Num irrep kpoints: 42                   

Automatic generation of k-mesh.
 Grid dimensions read from file:
 generate k-points for:   10   10    6

 Generating k-lattice:

  Cartesian coordinates                     Fractional coordinates (reciprocal lattice)
     0.026443946  0.015267419 -0.000000000     0.100000000  0.000000000  0.000000000
     0.000000000  0.030534839  0.000000000     0.000000000  0.100000000  0.000000000
     0.000000000 -0.000000000  0.026861071     0.000000000  0.000000000  0.166666667

  Length of vectors
     0.030534839  0.030534839  0.026861071

  Shift w.r.t. Gamma in fractional coordinates (k-lattice)
     0.000000000  0.000000000  0.500000000

 TETIRR: Found    530 inequivalent tetrahedra from     3600
 
 Subroutine IBZKPT returns following result:
 ===========================================
 
 Found     42 irreducible k-points:
 
 Following reciprocal coordinates:
            Coordinates               Weight
  0.000000  0.000000  0.083333      2.000000
  0.100000  0.000000  0.083333     12.000000
  0.200000  0.000000  0.083333     12.000000
  0.300000  0.000000  0.083333     12.000000
  0.400000  0.000000  0.083333     12.000000
  0.500000  0.000000  0.083333      6.000000
  0.100000  0.100000  0.083333     12.000000
  0.200000  0.100000  0.083333     24.000000
  0.300000  0.100000  0.083333     24.000000
  0.400000  0.100000  0.083333     24.000000
  0.200000  0.200000  0.083333     12.000000
  0.300000  0.200000  0.083333     24.000000
  0.400000  0.200000  0.083333     12.000000
  0.300000  0.300000  0.083333     12.000000
  0.000000  0.000000  0.250000      2.000000
  0.100000  0.000000  0.250000     12.000000
  0.200000  0.000000  0.250000     12.000000
  0.300000  0.000000  0.250000     12.000000
  0.400000  0.000000  0.250000     12.000000
  0.500000  0.000000  0.250000      6.000000
  0.100000  0.100000  0.250000     12.000000
  0.200000  0.100000  0.250000     24.000000
  0.300000  0.100000  0.250000     24.000000
  0.400000  0.100000  0.250000     24.000000
  0.200000  0.200000  0.250000     12.000000
  0.300000  0.200000  0.250000     24.000000
  0.400000  0.200000  0.250000     12.000000
  0.300000  0.300000  0.250000     12.000000
  0.000000  0.000000  0.416667      2.000000
  0.100000  0.000000  0.416667     12.000000
  0.200000  0.000000  0.416667     12.000000
  0.300000  0.000000  0.416667     12.000000
  0.400000  0.000000  0.416667     12.000000
  0.500000  0.000000  0.416667      6.000000
  0.100000  0.100000  0.416667     12.000000
  0.200000  0.100000  0.416667     24.000000
  0.300000  0.100000  0.416667     24.000000
  0.400000  0.100000  0.416667     24.000000
  0.200000  0.200000  0.416667     12.000000
  0.300000  0.200000  0.416667     24.000000
  0.400000  0.200000  0.416667     12.000000
  0.300000  0.300000  0.416667     12.000000
 
 Following cartesian coordinates:
            Coordinates               Weight
  0.000000  0.000000  0.013431      2.000000
  0.026444  0.015267  0.013431     12.000000
  0.052888  0.030535  0.013431     12.000000
  0.079332  0.045802  0.013431     12.000000
  0.105776  0.061070  0.013431     12.000000
  0.132220  0.076337  0.013431      6.000000
  0.026444  0.045802  0.013431     12.000000
  0.052888  0.061070  0.013431     24.000000
  0.079332  0.076337  0.013431     24.000000
  0.105776  0.091605  0.013431     24.000000
  0.052888  0.091605  0.013431     12.000000
  0.079332  0.106872  0.013431     24.000000
  0.105776  0.122139  0.013431     12.000000
  0.079332  0.137407  0.013431     12.000000
  0.000000  0.000000  0.040292      2.000000
  0.026444  0.015267  0.040292     12.000000
  0.052888  0.030535  0.040292     12.000000
  0.079332  0.045802  0.040292     12.000000
  0.105776  0.061070  0.040292     12.000000
  0.132220  0.076337  0.040292      6.000000
  0.026444  0.045802  0.040292     12.000000
  0.052888  0.061070  0.040292     24.000000
  0.079332  0.076337  0.040292     24.000000
  0.105776  0.091605  0.040292     24.000000
  0.052888  0.091605  0.040292     12.000000
  0.079332  0.106872  0.040292     24.000000
  0.105776  0.122139  0.040292     12.000000
  0.079332  0.137407  0.040292     12.000000
  0.000000  0.000000  0.067153      2.000000
  0.026444  0.015267  0.067153     12.000000
  0.052888  0.030535  0.067153     12.000000
  0.079332  0.045802  0.067153     12.000000
  0.105776  0.061070  0.067153     12.000000
  0.132220  0.076337  0.067153      6.000000
  0.026444  0.045802  0.067153     12.000000
  0.052888  0.061070  0.067153     24.000000
  0.079332  0.076337  0.067153     24.000000
  0.105776  0.091605  0.067153     24.000000
  0.052888  0.091605  0.067153     12.000000
  0.079332  0.106872  0.067153     24.000000
  0.105776  0.122139  0.067153     12.000000
  0.079332  0.137407  0.067153     12.000000
 
 
 Subroutine IBZKPT_HF returns following result:
 ==============================================
 
 Found    600 k-points in 1st BZ
 the following    600 k-points will be used (e.g. in the exchange kernel)
 Following reciprocal coordinates:   # in IRBZ
  0.000000  0.000000  0.083333    0.00166667   1 t-inv F
  0.100000  0.000000  0.083333    0.00166667   2 t-inv F
  0.200000  0.000000  0.083333    0.00166667   3 t-inv F
  0.300000  0.000000  0.083333    0.00166667   4 t-inv F
  0.400000  0.000000  0.083333    0.00166667   5 t-inv F
  0.500000  0.000000  0.083333    0.00166667   6 t-inv F
  0.100000  0.100000  0.083333    0.00166667   7 t-inv F
  0.200000  0.100000  0.083333    0.00166667   8 t-inv F
  0.300000  0.100000  0.083333    0.00166667   9 t-inv F
  0.400000  0.100000  0.083333    0.00166667  10 t-inv F
  0.200000  0.200000  0.083333    0.00166667  11 t-inv F
  0.300000  0.200000  0.083333    0.00166667  12 t-inv F
  0.400000  0.200000  0.083333    0.00166667  13 t-inv F
  0.300000  0.300000  0.083333    0.00166667  14 t-inv F
  0.000000  0.000000  0.250000    0.00166667  15 t-inv F
  0.100000  0.000000  0.250000    0.00166667  16 t-inv F
  0.200000  0.000000  0.250000    0.00166667  17 t-inv F
  0.300000  0.000000  0.250000    0.00166667  18 t-inv F
  0.400000  0.000000  0.250000    0.00166667  19 t-inv F
  0.500000  0.000000  0.250000    0.00166667  20 t-inv F
  0.100000  0.100000  0.250000    0.00166667  21 t-inv F
  0.200000  0.100000  0.250000    0.00166667  22 t-inv F
  0.300000  0.100000  0.250000    0.00166667  23 t-inv F
  0.400000  0.100000  0.250000    0.00166667  24 t-inv F
  0.200000  0.200000  0.250000    0.00166667  25 t-inv F
  0.300000  0.200000  0.250000    0.00166667  26 t-inv F
  0.400000  0.200000  0.250000    0.00166667  27 t-inv F
  0.300000  0.300000  0.250000    0.00166667  28 t-inv F
  0.000000  0.000000  0.416667    0.00166667  29 t-inv F
  0.100000  0.000000  0.416667    0.00166667  30 t-inv F
  0.200000  0.000000  0.416667    0.00166667  31 t-inv F
  0.300000  0.000000  0.416667    0.00166667  32 t-inv F
  0.400000  0.000000  0.416667    0.00166667  33 t-inv F
  0.500000  0.000000  0.416667    0.00166667  34 t-inv F
  0.100000  0.100000  0.416667    0.00166667  35 t-inv F
  0.200000  0.100000  0.416667    0.00166667  36 t-inv F
  0.300000  0.100000  0.416667    0.00166667  37 t-inv F
  0.400000  0.100000  0.416667    0.00166667  38 t-inv F
  0.200000  0.200000  0.416667    0.00166667  39 t-inv F
  0.300000  0.200000  0.416667    0.00166667  40 t-inv F
  0.400000  0.200000  0.416667    0.00166667  41 t-inv F
  0.300000  0.300000  0.416667    0.00166667  42 t-inv F
 -0.100000  0.100000  0.083333    0.00166667   2 t-inv F
  0.000000 -0.100000  0.083333    0.00166667   2 t-inv F
 -0.000000  0.100000  0.083333    0.00166667   2 t-inv F
 -0.100000 -0.000000  0.083333    0.00166667   2 t-inv F
  0.100000 -0.100000  0.083333    0.00166667   2 t-inv F
 -0.200000  0.200000  0.083333    0.00166667   3 t-inv F
  0.000000 -0.200000  0.083333    0.00166667   3 t-inv F
 -0.000000  0.200000  0.083333    0.00166667   3 t-inv F
 -0.200000 -0.000000  0.083333    0.00166667   3 t-inv F
  0.200000 -0.200000  0.083333    0.00166667   3 t-inv F
 -0.300000  0.300000  0.083333    0.00166667   4 t-inv F
  0.000000 -0.300000  0.083333    0.00166667   4 t-inv F
 -0.000000  0.300000  0.083333    0.00166667   4 t-inv F
 -0.300000 -0.000000  0.083333    0.00166667   4 t-inv F
  0.300000 -0.300000  0.083333    0.00166667   4 t-inv F
 -0.400000  0.400000  0.083333    0.00166667   5 t-inv F
  0.000000 -0.400000  0.083333    0.00166667   5 t-inv F
 -0.000000  0.400000  0.083333    0.00166667   5 t-inv F
 -0.400000 -0.000000  0.083333    0.00166667   5 t-inv F
  0.400000 -0.400000  0.083333    0.00166667   5 t-inv F
 -0.500000  0.500000  0.083333    0.00166667   6 t-inv F
  0.000000 -0.500000  0.083333    0.00166667   6 t-inv F
 -0.200000  0.100000  0.083333    0.00166667   7 t-inv F
  0.100000 -0.200000  0.083333    0.00166667   7 t-inv F
 -0.100000  0.200000  0.083333    0.00166667   7 t-inv F
  0.200000 -0.100000  0.083333    0.00166667   7 t-inv F
 -0.100000 -0.100000  0.083333    0.00166667   7 t-inv F
 -0.300000  0.200000  0.083333    0.00166667   8 t-inv F
  0.100000 -0.300000  0.083333    0.00166667   8 t-inv F
 -0.200000  0.300000  0.083333    0.00166667   8 t-inv F
  0.300000 -0.100000  0.083333    0.00166667   8 t-inv F
 -0.100000 -0.200000  0.083333    0.00166667   8 t-inv F
 -0.100000  0.300000  0.083333    0.00166667   8 t-inv F
 -0.200000 -0.100000  0.083333    0.00166667   8 t-inv F
  0.300000 -0.200000  0.083333    0.00166667   8 t-inv F
  0.100000  0.200000  0.083333    0.00166667   8 t-inv F
  0.200000 -0.300000  0.083333    0.00166667   8 t-inv F
 -0.300000  0.100000  0.083333    0.00166667   8 t-inv F
 -0.400000  0.300000  0.083333    0.00166667   9 t-inv F
  0.100000 -0.400000  0.083333    0.00166667   9 t-inv F
 -0.300000  0.400000  0.083333    0.00166667   9 t-inv F
  0.400000 -0.100000  0.083333    0.00166667   9 t-inv F
 -0.100000 -0.300000  0.083333    0.00166667   9 t-inv F
 -0.100000  0.400000  0.083333    0.00166667   9 t-inv F
 -0.300000 -0.100000  0.083333    0.00166667   9 t-inv F
  0.400000 -0.300000  0.083333    0.00166667   9 t-inv F
  0.100000  0.300000  0.083333    0.00166667   9 t-inv F
  0.300000 -0.400000  0.083333    0.00166667   9 t-inv F
 -0.400000  0.100000  0.083333    0.00166667   9 t-inv F
 -0.500000  0.400000  0.083333    0.00166667  10 t-inv F
  0.100000 -0.500000  0.083333    0.00166667  10 t-inv F
 -0.400000  0.500000  0.083333    0.00166667  10 t-inv F
  0.500000 -0.100000  0.083333    0.00166667  10 t-inv F
 -0.100000 -0.400000  0.083333    0.00166667  10 t-inv F
 -0.100000  0.500000  0.083333    0.00166667  10 t-inv F
 -0.400000 -0.100000  0.083333    0.00166667  10 t-inv F
  0.500000 -0.400000  0.083333    0.00166667  10 t-inv F
  0.100000  0.400000  0.083333    0.00166667  10 t-inv F
  0.400000 -0.500000  0.083333    0.00166667  10 t-inv F
 -0.500000  0.100000  0.083333    0.00166667  10 t-inv F
 -0.400000  0.200000  0.083333    0.00166667  11 t-inv F
  0.200000 -0.400000  0.083333    0.00166667  11 t-inv F
 -0.200000  0.400000  0.083333    0.00166667  11 t-inv F
  0.400000 -0.200000  0.083333    0.00166667  11 t-inv F
 -0.200000 -0.200000  0.083333    0.00166667  11 t-inv F
 -0.500000  0.300000  0.083333    0.00166667  12 t-inv F
  0.200000 -0.500000  0.083333    0.00166667  12 t-inv F
 -0.300000  0.500000  0.083333    0.00166667  12 t-inv F
  0.500000 -0.200000  0.083333    0.00166667  12 t-inv F
 -0.200000 -0.300000  0.083333    0.00166667  12 t-inv F
 -0.200000  0.500000  0.083333    0.00166667  12 t-inv F
 -0.300000 -0.200000  0.083333    0.00166667  12 t-inv F
  0.500000 -0.300000  0.083333    0.00166667  12 t-inv F
  0.200000  0.300000  0.083333    0.00166667  12 t-inv F
  0.300000 -0.500000  0.083333    0.00166667  12 t-inv F
 -0.500000  0.200000  0.083333    0.00166667  12 t-inv F
 -0.600000  0.400000  0.083333    0.00166667  13 t-inv F
  0.200000 -0.600000  0.083333    0.00166667  13 t-inv F
 -0.400000  0.600000  0.083333    0.00166667  13 t-inv F
  0.600000 -0.200000  0.083333    0.00166667  13 t-inv F
 -0.200000 -0.400000  0.083333    0.00166667  13 t-inv F
 -0.600000  0.300000  0.083333    0.00166667  14 t-inv F
  0.300000 -0.600000  0.083333    0.00166667  14 t-inv F
 -0.300000  0.600000  0.083333    0.00166667  14 t-inv F
  0.600000 -0.300000  0.083333    0.00166667  14 t-inv F
 -0.300000 -0.300000  0.083333    0.00166667  14 t-inv F
 -0.100000  0.100000  0.250000    0.00166667  16 t-inv F
  0.000000 -0.100000  0.250000    0.00166667  16 t-inv F
 -0.000000  0.100000  0.250000    0.00166667  16 t-inv F
 -0.100000 -0.000000  0.250000    0.00166667  16 t-inv F
  0.100000 -0.100000  0.250000    0.00166667  16 t-inv F
 -0.200000  0.200000  0.250000    0.00166667  17 t-inv F
  0.000000 -0.200000  0.250000    0.00166667  17 t-inv F
 -0.000000  0.200000  0.250000    0.00166667  17 t-inv F
 -0.200000 -0.000000  0.250000    0.00166667  17 t-inv F
  0.200000 -0.200000  0.250000    0.00166667  17 t-inv F
 -0.300000  0.300000  0.250000    0.00166667  18 t-inv F
  0.000000 -0.300000  0.250000    0.00166667  18 t-inv F
 -0.000000  0.300000  0.250000    0.00166667  18 t-inv F
 -0.300000 -0.000000  0.250000    0.00166667  18 t-inv F
  0.300000 -0.300000  0.250000    0.00166667  18 t-inv F
 -0.400000  0.400000  0.250000    0.00166667  19 t-inv F
  0.000000 -0.400000  0.250000    0.00166667  19 t-inv F
 -0.000000  0.400000  0.250000    0.00166667  19 t-inv F
 -0.400000 -0.000000  0.250000    0.00166667  19 t-inv F
  0.400000 -0.400000  0.250000    0.00166667  19 t-inv F
 -0.500000  0.500000  0.250000    0.00166667  20 t-inv F
  0.000000 -0.500000  0.250000    0.00166667  20 t-inv F
 -0.200000  0.100000  0.250000    0.00166667  21 t-inv F
  0.100000 -0.200000  0.250000    0.00166667  21 t-inv F
 -0.100000  0.200000  0.250000    0.00166667  21 t-inv F
  0.200000 -0.100000  0.250000    0.00166667  21 t-inv F
 -0.100000 -0.100000  0.250000    0.00166667  21 t-inv F
 -0.300000  0.200000  0.250000    0.00166667  22 t-inv F
  0.100000 -0.300000  0.250000    0.00166667  22 t-inv F
 -0.200000  0.300000  0.250000    0.00166667  22 t-inv F
  0.300000 -0.100000  0.250000    0.00166667  22 t-inv F
 -0.100000 -0.200000  0.250000    0.00166667  22 t-inv F
 -0.100000  0.300000  0.250000    0.00166667  22 t-inv F
 -0.200000 -0.100000  0.250000    0.00166667  22 t-inv F
  0.300000 -0.200000  0.250000    0.00166667  22 t-inv F
  0.100000  0.200000  0.250000    0.00166667  22 t-inv F
  0.200000 -0.300000  0.250000    0.00166667  22 t-inv F
 -0.300000  0.100000  0.250000    0.00166667  22 t-inv F
 -0.400000  0.300000  0.250000    0.00166667  23 t-inv F
  0.100000 -0.400000  0.250000    0.00166667  23 t-inv F
 -0.300000  0.400000  0.250000    0.00166667  23 t-inv F
  0.400000 -0.100000  0.250000    0.00166667  23 t-inv F
 -0.100000 -0.300000  0.250000    0.00166667  23 t-inv F
 -0.100000  0.400000  0.250000    0.00166667  23 t-inv F
 -0.300000 -0.100000  0.250000    0.00166667  23 t-inv F
  0.400000 -0.300000  0.250000    0.00166667  23 t-inv F
  0.100000  0.300000  0.250000    0.00166667  23 t-inv F
  0.300000 -0.400000  0.250000    0.00166667  23 t-inv F
 -0.400000  0.100000  0.250000    0.00166667  23 t-inv F
 -0.500000  0.400000  0.250000    0.00166667  24 t-inv F
  0.100000 -0.500000  0.250000    0.00166667  24 t-inv F
 -0.400000  0.500000  0.250000    0.00166667  24 t-inv F
  0.500000 -0.100000  0.250000    0.00166667  24 t-inv F
 -0.100000 -0.400000  0.250000    0.00166667  24 t-inv F
 -0.100000  0.500000  0.250000    0.00166667  24 t-inv F
 -0.400000 -0.100000  0.250000    0.00166667  24 t-inv F
  0.500000 -0.400000  0.250000    0.00166667  24 t-inv F
  0.100000  0.400000  0.250000    0.00166667  24 t-inv F
  0.400000 -0.500000  0.250000    0.00166667  24 t-inv F
 -0.500000  0.100000  0.250000    0.00166667  24 t-inv F
 -0.400000  0.200000  0.250000    0.00166667  25 t-inv F
  0.200000 -0.400000  0.250000    0.00166667  25 t-inv F
 -0.200000  0.400000  0.250000    0.00166667  25 t-inv F
  0.400000 -0.200000  0.250000    0.00166667  25 t-inv F
 -0.200000 -0.200000  0.250000    0.00166667  25 t-inv F
 -0.500000  0.300000  0.250000    0.00166667  26 t-inv F
  0.200000 -0.500000  0.250000    0.00166667  26 t-inv F
 -0.300000  0.500000  0.250000    0.00166667  26 t-inv F
  0.500000 -0.200000  0.250000    0.00166667  26 t-inv F
 -0.200000 -0.300000  0.250000    0.00166667  26 t-inv F
 -0.200000  0.500000  0.250000    0.00166667  26 t-inv F
 -0.300000 -0.200000  0.250000    0.00166667  26 t-inv F
  0.500000 -0.300000  0.250000    0.00166667  26 t-inv F
  0.200000  0.300000  0.250000    0.00166667  26 t-inv F
  0.300000 -0.500000  0.250000    0.00166667  26 t-inv F
 -0.500000  0.200000  0.250000    0.00166667  26 t-inv F
 -0.600000  0.400000  0.250000    0.00166667  27 t-inv F
  0.200000 -0.600000  0.250000    0.00166667  27 t-inv F
 -0.400000  0.600000  0.250000    0.00166667  27 t-inv F
  0.600000 -0.200000  0.250000    0.00166667  27 t-inv F
 -0.200000 -0.400000  0.250000    0.00166667  27 t-inv F
 -0.600000  0.300000  0.250000    0.00166667  28 t-inv F
  0.300000 -0.600000  0.250000    0.00166667  28 t-inv F
 -0.300000  0.600000  0.250000    0.00166667  28 t-inv F
  0.600000 -0.300000  0.250000    0.00166667  28 t-inv F
 -0.300000 -0.300000  0.250000    0.00166667  28 t-inv F
 -0.100000  0.100000  0.416667    0.00166667  30 t-inv F
  0.000000 -0.100000  0.416667    0.00166667  30 t-inv F
 -0.000000  0.100000  0.416667    0.00166667  30 t-inv F
 -0.100000 -0.000000  0.416667    0.00166667  30 t-inv F
  0.100000 -0.100000  0.416667    0.00166667  30 t-inv F
 -0.200000  0.200000  0.416667    0.00166667  31 t-inv F
  0.000000 -0.200000  0.416667    0.00166667  31 t-inv F
 -0.000000  0.200000  0.416667    0.00166667  31 t-inv F
 -0.200000 -0.000000  0.416667    0.00166667  31 t-inv F
  0.200000 -0.200000  0.416667    0.00166667  31 t-inv F
 -0.300000  0.300000  0.416667    0.00166667  32 t-inv F
  0.000000 -0.300000  0.416667    0.00166667  32 t-inv F
 -0.000000  0.300000  0.416667    0.00166667  32 t-inv F
 -0.300000 -0.000000  0.416667    0.00166667  32 t-inv F
  0.300000 -0.300000  0.416667    0.00166667  32 t-inv F
 -0.400000  0.400000  0.416667    0.00166667  33 t-inv F
  0.000000 -0.400000  0.416667    0.00166667  33 t-inv F
 -0.000000  0.400000  0.416667    0.00166667  33 t-inv F
 -0.400000 -0.000000  0.416667    0.00166667  33 t-inv F
  0.400000 -0.400000  0.416667    0.00166667  33 t-inv F
 -0.500000  0.500000  0.416667    0.00166667  34 t-inv F
  0.000000 -0.500000  0.416667    0.00166667  34 t-inv F
 -0.200000  0.100000  0.416667    0.00166667  35 t-inv F
  0.100000 -0.200000  0.416667    0.00166667  35 t-inv F
 -0.100000  0.200000  0.416667    0.00166667  35 t-inv F
  0.200000 -0.100000  0.416667    0.00166667  35 t-inv F
 -0.100000 -0.100000  0.416667    0.00166667  35 t-inv F
 -0.300000  0.200000  0.416667    0.00166667  36 t-inv F
  0.100000 -0.300000  0.416667    0.00166667  36 t-inv F
 -0.200000  0.300000  0.416667    0.00166667  36 t-inv F
  0.300000 -0.100000  0.416667    0.00166667  36 t-inv F
 -0.100000 -0.200000  0.416667    0.00166667  36 t-inv F
 -0.100000  0.300000  0.416667    0.00166667  36 t-inv F
 -0.200000 -0.100000  0.416667    0.00166667  36 t-inv F
  0.300000 -0.200000  0.416667    0.00166667  36 t-inv F
  0.100000  0.200000  0.416667    0.00166667  36 t-inv F
  0.200000 -0.300000  0.416667    0.00166667  36 t-inv F
 -0.300000  0.100000  0.416667    0.00166667  36 t-inv F
 -0.400000  0.300000  0.416667    0.00166667  37 t-inv F
  0.100000 -0.400000  0.416667    0.00166667  37 t-inv F
 -0.300000  0.400000  0.416667    0.00166667  37 t-inv F
  0.400000 -0.100000  0.416667    0.00166667  37 t-inv F
 -0.100000 -0.300000  0.416667    0.00166667  37 t-inv F
 -0.100000  0.400000  0.416667    0.00166667  37 t-inv F
 -0.300000 -0.100000  0.416667    0.00166667  37 t-inv F
  0.400000 -0.300000  0.416667    0.00166667  37 t-inv F
  0.100000  0.300000  0.416667    0.00166667  37 t-inv F
  0.300000 -0.400000  0.416667    0.00166667  37 t-inv F
 -0.400000  0.100000  0.416667    0.00166667  37 t-inv F
 -0.500000  0.400000  0.416667    0.00166667  38 t-inv F
  0.100000 -0.500000  0.416667    0.00166667  38 t-inv F
 -0.400000  0.500000  0.416667    0.00166667  38 t-inv F
  0.500000 -0.100000  0.416667    0.00166667  38 t-inv F
 -0.100000 -0.400000  0.416667    0.00166667  38 t-inv F
 -0.100000  0.500000  0.416667    0.00166667  38 t-inv F
 -0.400000 -0.100000  0.416667    0.00166667  38 t-inv F
  0.500000 -0.400000  0.416667    0.00166667  38 t-inv F
  0.100000  0.400000  0.416667    0.00166667  38 t-inv F
  0.400000 -0.500000  0.416667    0.00166667  38 t-inv F
 -0.500000  0.100000  0.416667    0.00166667  38 t-inv F
 -0.400000  0.200000  0.416667    0.00166667  39 t-inv F
  0.200000 -0.400000  0.416667    0.00166667  39 t-inv F
 -0.200000  0.400000  0.416667    0.00166667  39 t-inv F
  0.400000 -0.200000  0.416667    0.00166667  39 t-inv F
 -0.200000 -0.200000  0.416667    0.00166667  39 t-inv F
 -0.500000  0.300000  0.416667    0.00166667  40 t-inv F
  0.200000 -0.500000  0.416667    0.00166667  40 t-inv F
 -0.300000  0.500000  0.416667    0.00166667  40 t-inv F
  0.500000 -0.200000  0.416667    0.00166667  40 t-inv F
 -0.200000 -0.300000  0.416667    0.00166667  40 t-inv F
 -0.200000  0.500000  0.416667    0.00166667  40 t-inv F
 -0.300000 -0.200000  0.416667    0.00166667  40 t-inv F
  0.500000 -0.300000  0.416667    0.00166667  40 t-inv F
  0.200000  0.300000  0.416667    0.00166667  40 t-inv F
  0.300000 -0.500000  0.416667    0.00166667  40 t-inv F
 -0.500000  0.200000  0.416667    0.00166667  40 t-inv F
 -0.600000  0.400000  0.416667    0.00166667  41 t-inv F
  0.200000 -0.600000  0.416667    0.00166667  41 t-inv F
 -0.400000  0.600000  0.416667    0.00166667  41 t-inv F
  0.600000 -0.200000  0.416667    0.00166667  41 t-inv F
 -0.200000 -0.400000  0.416667    0.00166667  41 t-inv F
 -0.600000  0.300000  0.416667    0.00166667  42 t-inv F
  0.300000 -0.600000  0.416667    0.00166667  42 t-inv F
 -0.300000  0.600000  0.416667    0.00166667  42 t-inv F
  0.600000 -0.300000  0.416667    0.00166667  42 t-inv F
 -0.300000 -0.300000  0.416667    0.00166667  42 t-inv F
 -0.000000 -0.000000 -0.083333    0.00166667   1 t-inv T
 -0.100000 -0.000000 -0.083333    0.00166667   2 t-inv T
  0.100000 -0.100000 -0.083333    0.00166667   2 t-inv T
 -0.000000  0.100000 -0.083333    0.00166667   2 t-inv T
  0.000000 -0.100000 -0.083333    0.00166667   2 t-inv T
  0.100000  0.000000 -0.083333    0.00166667   2 t-inv T
 -0.100000  0.100000 -0.083333    0.00166667   2 t-inv T
 -0.200000 -0.000000 -0.083333    0.00166667   3 t-inv T
  0.200000 -0.200000 -0.083333    0.00166667   3 t-inv T
 -0.000000  0.200000 -0.083333    0.00166667   3 t-inv T
  0.000000 -0.200000 -0.083333    0.00166667   3 t-inv T
  0.200000  0.000000 -0.083333    0.00166667   3 t-inv T
 -0.200000  0.200000 -0.083333    0.00166667   3 t-inv T
 -0.300000 -0.000000 -0.083333    0.00166667   4 t-inv T
  0.300000 -0.300000 -0.083333    0.00166667   4 t-inv T
 -0.000000  0.300000 -0.083333    0.00166667   4 t-inv T
  0.000000 -0.300000 -0.083333    0.00166667   4 t-inv T
  0.300000  0.000000 -0.083333    0.00166667   4 t-inv T
 -0.300000  0.300000 -0.083333    0.00166667   4 t-inv T
 -0.400000 -0.000000 -0.083333    0.00166667   5 t-inv T
  0.400000 -0.400000 -0.083333    0.00166667   5 t-inv T
 -0.000000  0.400000 -0.083333    0.00166667   5 t-inv T
  0.000000 -0.400000 -0.083333    0.00166667   5 t-inv T
  0.400000  0.000000 -0.083333    0.00166667   5 t-inv T
 -0.400000  0.400000 -0.083333    0.00166667   5 t-inv T
 -0.500000 -0.000000 -0.083333    0.00166667   6 t-inv T
  0.500000 -0.500000 -0.083333    0.00166667   6 t-inv T
 -0.000000  0.500000 -0.083333    0.00166667   6 t-inv T
 -0.100000 -0.100000 -0.083333    0.00166667   7 t-inv T
  0.200000 -0.100000 -0.083333    0.00166667   7 t-inv T
 -0.100000  0.200000 -0.083333    0.00166667   7 t-inv T
  0.100000 -0.200000 -0.083333    0.00166667   7 t-inv T
 -0.200000  0.100000 -0.083333    0.00166667   7 t-inv T
  0.100000  0.100000 -0.083333    0.00166667   7 t-inv T
 -0.200000 -0.100000 -0.083333    0.00166667   8 t-inv T
  0.300000 -0.200000 -0.083333    0.00166667   8 t-inv T
 -0.100000  0.300000 -0.083333    0.00166667   8 t-inv T
  0.200000 -0.300000 -0.083333    0.00166667   8 t-inv T
 -0.300000  0.100000 -0.083333    0.00166667   8 t-inv T
  0.100000  0.200000 -0.083333    0.00166667   8 t-inv T
  0.100000 -0.300000 -0.083333    0.00166667   8 t-inv T
  0.200000  0.100000 -0.083333    0.00166667   8 t-inv T
 -0.300000  0.200000 -0.083333    0.00166667   8 t-inv T
 -0.100000 -0.200000 -0.083333    0.00166667   8 t-inv T
 -0.200000  0.300000 -0.083333    0.00166667   8 t-inv T
  0.300000 -0.100000 -0.083333    0.00166667   8 t-inv T
 -0.300000 -0.100000 -0.083333    0.00166667   9 t-inv T
  0.400000 -0.300000 -0.083333    0.00166667   9 t-inv T
 -0.100000  0.400000 -0.083333    0.00166667   9 t-inv T
  0.300000 -0.400000 -0.083333    0.00166667   9 t-inv T
 -0.400000  0.100000 -0.083333    0.00166667   9 t-inv T
  0.100000  0.300000 -0.083333    0.00166667   9 t-inv T
  0.100000 -0.400000 -0.083333    0.00166667   9 t-inv T
  0.300000  0.100000 -0.083333    0.00166667   9 t-inv T
 -0.400000  0.300000 -0.083333    0.00166667   9 t-inv T
 -0.100000 -0.300000 -0.083333    0.00166667   9 t-inv T
 -0.300000  0.400000 -0.083333    0.00166667   9 t-inv T
  0.400000 -0.100000 -0.083333    0.00166667   9 t-inv T
 -0.400000 -0.100000 -0.083333    0.00166667  10 t-inv T
  0.500000 -0.400000 -0.083333    0.00166667  10 t-inv T
 -0.100000  0.500000 -0.083333    0.00166667  10 t-inv T
  0.400000 -0.500000 -0.083333    0.00166667  10 t-inv T
 -0.500000  0.100000 -0.083333    0.00166667  10 t-inv T
  0.100000  0.400000 -0.083333    0.00166667  10 t-inv T
  0.100000 -0.500000 -0.083333    0.00166667  10 t-inv T
  0.400000  0.100000 -0.083333    0.00166667  10 t-inv T
 -0.500000  0.400000 -0.083333    0.00166667  10 t-inv T
 -0.100000 -0.400000 -0.083333    0.00166667  10 t-inv T
 -0.400000  0.500000 -0.083333    0.00166667  10 t-inv T
  0.500000 -0.100000 -0.083333    0.00166667  10 t-inv T
 -0.200000 -0.200000 -0.083333    0.00166667  11 t-inv T
  0.400000 -0.200000 -0.083333    0.00166667  11 t-inv T
 -0.200000  0.400000 -0.083333    0.00166667  11 t-inv T
  0.200000 -0.400000 -0.083333    0.00166667  11 t-inv T
 -0.400000  0.200000 -0.083333    0.00166667  11 t-inv T
  0.200000  0.200000 -0.083333    0.00166667  11 t-inv T
 -0.300000 -0.200000 -0.083333    0.00166667  12 t-inv T
  0.500000 -0.300000 -0.083333    0.00166667  12 t-inv T
 -0.200000  0.500000 -0.083333    0.00166667  12 t-inv T
  0.300000 -0.500000 -0.083333    0.00166667  12 t-inv T
 -0.500000  0.200000 -0.083333    0.00166667  12 t-inv T
  0.200000  0.300000 -0.083333    0.00166667  12 t-inv T
  0.200000 -0.500000 -0.083333    0.00166667  12 t-inv T
  0.300000  0.200000 -0.083333    0.00166667  12 t-inv T
 -0.500000  0.300000 -0.083333    0.00166667  12 t-inv T
 -0.200000 -0.300000 -0.083333    0.00166667  12 t-inv T
 -0.300000  0.500000 -0.083333    0.00166667  12 t-inv T
  0.500000 -0.200000 -0.083333    0.00166667  12 t-inv T
 -0.400000 -0.200000 -0.083333    0.00166667  13 t-inv T
  0.600000 -0.400000 -0.083333    0.00166667  13 t-inv T
 -0.200000  0.600000 -0.083333    0.00166667  13 t-inv T
  0.400000 -0.600000 -0.083333    0.00166667  13 t-inv T
 -0.600000  0.200000 -0.083333    0.00166667  13 t-inv T
  0.200000  0.400000 -0.083333    0.00166667  13 t-inv T
 -0.300000 -0.300000 -0.083333    0.00166667  14 t-inv T
  0.600000 -0.300000 -0.083333    0.00166667  14 t-inv T
 -0.300000  0.600000 -0.083333    0.00166667  14 t-inv T
  0.300000 -0.600000 -0.083333    0.00166667  14 t-inv T
 -0.600000  0.300000 -0.083333    0.00166667  14 t-inv T
  0.300000  0.300000 -0.083333    0.00166667  14 t-inv T
 -0.000000 -0.000000 -0.250000    0.00166667  15 t-inv T
 -0.100000 -0.000000 -0.250000    0.00166667  16 t-inv T
  0.100000 -0.100000 -0.250000    0.00166667  16 t-inv T
 -0.000000  0.100000 -0.250000    0.00166667  16 t-inv T
  0.000000 -0.100000 -0.250000    0.00166667  16 t-inv T
  0.100000  0.000000 -0.250000    0.00166667  16 t-inv T
 -0.100000  0.100000 -0.250000    0.00166667  16 t-inv T
 -0.200000 -0.000000 -0.250000    0.00166667  17 t-inv T
  0.200000 -0.200000 -0.250000    0.00166667  17 t-inv T
 -0.000000  0.200000 -0.250000    0.00166667  17 t-inv T
  0.000000 -0.200000 -0.250000    0.00166667  17 t-inv T
  0.200000  0.000000 -0.250000    0.00166667  17 t-inv T
 -0.200000  0.200000 -0.250000    0.00166667  17 t-inv T
 -0.300000 -0.000000 -0.250000    0.00166667  18 t-inv T
  0.300000 -0.300000 -0.250000    0.00166667  18 t-inv T
 -0.000000  0.300000 -0.250000    0.00166667  18 t-inv T
  0.000000 -0.300000 -0.250000    0.00166667  18 t-inv T
  0.300000  0.000000 -0.250000    0.00166667  18 t-inv T
 -0.300000  0.300000 -0.250000    0.00166667  18 t-inv T
 -0.400000 -0.000000 -0.250000    0.00166667  19 t-inv T
  0.400000 -0.400000 -0.250000    0.00166667  19 t-inv T
 -0.000000  0.400000 -0.250000    0.00166667  19 t-inv T
  0.000000 -0.400000 -0.250000    0.00166667  19 t-inv T
  0.400000  0.000000 -0.250000    0.00166667  19 t-inv T
 -0.400000  0.400000 -0.250000    0.00166667  19 t-inv T
 -0.500000 -0.000000 -0.250000    0.00166667  20 t-inv T
  0.500000 -0.500000 -0.250000    0.00166667  20 t-inv T
 -0.000000  0.500000 -0.250000    0.00166667  20 t-inv T
 -0.100000 -0.100000 -0.250000    0.00166667  21 t-inv T
  0.200000 -0.100000 -0.250000    0.00166667  21 t-inv T
 -0.100000  0.200000 -0.250000    0.00166667  21 t-inv T
  0.100000 -0.200000 -0.250000    0.00166667  21 t-inv T
 -0.200000  0.100000 -0.250000    0.00166667  21 t-inv T
  0.100000  0.100000 -0.250000    0.00166667  21 t-inv T
 -0.200000 -0.100000 -0.250000    0.00166667  22 t-inv T
  0.300000 -0.200000 -0.250000    0.00166667  22 t-inv T
 -0.100000  0.300000 -0.250000    0.00166667  22 t-inv T
  0.200000 -0.300000 -0.250000    0.00166667  22 t-inv T
 -0.300000  0.100000 -0.250000    0.00166667  22 t-inv T
  0.100000  0.200000 -0.250000    0.00166667  22 t-inv T
  0.100000 -0.300000 -0.250000    0.00166667  22 t-inv T
  0.200000  0.100000 -0.250000    0.00166667  22 t-inv T
 -0.300000  0.200000 -0.250000    0.00166667  22 t-inv T
 -0.100000 -0.200000 -0.250000    0.00166667  22 t-inv T
 -0.200000  0.300000 -0.250000    0.00166667  22 t-inv T
  0.300000 -0.100000 -0.250000    0.00166667  22 t-inv T
 -0.300000 -0.100000 -0.250000    0.00166667  23 t-inv T
  0.400000 -0.300000 -0.250000    0.00166667  23 t-inv T
 -0.100000  0.400000 -0.250000    0.00166667  23 t-inv T
  0.300000 -0.400000 -0.250000    0.00166667  23 t-inv T
 -0.400000  0.100000 -0.250000    0.00166667  23 t-inv T
  0.100000  0.300000 -0.250000    0.00166667  23 t-inv T
  0.100000 -0.400000 -0.250000    0.00166667  23 t-inv T
  0.300000  0.100000 -0.250000    0.00166667  23 t-inv T
 -0.400000  0.300000 -0.250000    0.00166667  23 t-inv T
 -0.100000 -0.300000 -0.250000    0.00166667  23 t-inv T
 -0.300000  0.400000 -0.250000    0.00166667  23 t-inv T
  0.400000 -0.100000 -0.250000    0.00166667  23 t-inv T
 -0.400000 -0.100000 -0.250000    0.00166667  24 t-inv T
  0.500000 -0.400000 -0.250000    0.00166667  24 t-inv T
 -0.100000  0.500000 -0.250000    0.00166667  24 t-inv T
  0.400000 -0.500000 -0.250000    0.00166667  24 t-inv T
 -0.500000  0.100000 -0.250000    0.00166667  24 t-inv T
  0.100000  0.400000 -0.250000    0.00166667  24 t-inv T
  0.100000 -0.500000 -0.250000    0.00166667  24 t-inv T
  0.400000  0.100000 -0.250000    0.00166667  24 t-inv T
 -0.500000  0.400000 -0.250000    0.00166667  24 t-inv T
 -0.100000 -0.400000 -0.250000    0.00166667  24 t-inv T
 -0.400000  0.500000 -0.250000    0.00166667  24 t-inv T
  0.500000 -0.100000 -0.250000    0.00166667  24 t-inv T
 -0.200000 -0.200000 -0.250000    0.00166667  25 t-inv T
  0.400000 -0.200000 -0.250000    0.00166667  25 t-inv T
 -0.200000  0.400000 -0.250000    0.00166667  25 t-inv T
  0.200000 -0.400000 -0.250000    0.00166667  25 t-inv T
 -0.400000  0.200000 -0.250000    0.00166667  25 t-inv T
  0.200000  0.200000 -0.250000    0.00166667  25 t-inv T
 -0.300000 -0.200000 -0.250000    0.00166667  26 t-inv T
  0.500000 -0.300000 -0.250000    0.00166667  26 t-inv T
 -0.200000  0.500000 -0.250000    0.00166667  26 t-inv T
  0.300000 -0.500000 -0.250000    0.00166667  26 t-inv T
 -0.500000  0.200000 -0.250000    0.00166667  26 t-inv T
  0.200000  0.300000 -0.250000    0.00166667  26 t-inv T
  0.200000 -0.500000 -0.250000    0.00166667  26 t-inv T
  0.300000  0.200000 -0.250000    0.00166667  26 t-inv T
 -0.500000  0.300000 -0.250000    0.00166667  26 t-inv T
 -0.200000 -0.300000 -0.250000    0.00166667  26 t-inv T
 -0.300000  0.500000 -0.250000    0.00166667  26 t-inv T
  0.500000 -0.200000 -0.250000    0.00166667  26 t-inv T
 -0.400000 -0.200000 -0.250000    0.00166667  27 t-inv T
  0.600000 -0.400000 -0.250000    0.00166667  27 t-inv T
 -0.200000  0.600000 -0.250000    0.00166667  27 t-inv T
  0.400000 -0.600000 -0.250000    0.00166667  27 t-inv T
 -0.600000  0.200000 -0.250000    0.00166667  27 t-inv T
  0.200000  0.400000 -0.250000    0.00166667  27 t-inv T
 -0.300000 -0.300000 -0.250000    0.00166667  28 t-inv T
  0.600000 -0.300000 -0.250000    0.00166667  28 t-inv T
 -0.300000  0.600000 -0.250000    0.00166667  28 t-inv T
  0.300000 -0.600000 -0.250000    0.00166667  28 t-inv T
 -0.600000  0.300000 -0.250000    0.00166667  28 t-inv T
  0.300000  0.300000 -0.250000    0.00166667  28 t-inv T
 -0.000000 -0.000000 -0.416667    0.00166667  29 t-inv T
 -0.100000 -0.000000 -0.416667    0.00166667  30 t-inv T
  0.100000 -0.100000 -0.416667    0.00166667  30 t-inv T
 -0.000000  0.100000 -0.416667    0.00166667  30 t-inv T
  0.000000 -0.100000 -0.416667    0.00166667  30 t-inv T
  0.100000  0.000000 -0.416667    0.00166667  30 t-inv T
 -0.100000  0.100000 -0.416667    0.00166667  30 t-inv T
 -0.200000 -0.000000 -0.416667    0.00166667  31 t-inv T
  0.200000 -0.200000 -0.416667    0.00166667  31 t-inv T
 -0.000000  0.200000 -0.416667    0.00166667  31 t-inv T
  0.000000 -0.200000 -0.416667    0.00166667  31 t-inv T
  0.200000  0.000000 -0.416667    0.00166667  31 t-inv T
 -0.200000  0.200000 -0.416667    0.00166667  31 t-inv T
 -0.300000 -0.000000 -0.416667    0.00166667  32 t-inv T
  0.300000 -0.300000 -0.416667    0.00166667  32 t-inv T
 -0.000000  0.300000 -0.416667    0.00166667  32 t-inv T
  0.000000 -0.300000 -0.416667    0.00166667  32 t-inv T
  0.300000  0.000000 -0.416667    0.00166667  32 t-inv T
 -0.300000  0.300000 -0.416667    0.00166667  32 t-inv T
 -0.400000 -0.000000 -0.416667    0.00166667  33 t-inv T
  0.400000 -0.400000 -0.416667    0.00166667  33 t-inv T
 -0.000000  0.400000 -0.416667    0.00166667  33 t-inv T
  0.000000 -0.400000 -0.416667    0.00166667  33 t-inv T
  0.400000  0.000000 -0.416667    0.00166667  33 t-inv T
 -0.400000  0.400000 -0.416667    0.00166667  33 t-inv T
 -0.500000 -0.000000 -0.416667    0.00166667  34 t-inv T
  0.500000 -0.500000 -0.416667    0.00166667  34 t-inv T
 -0.000000  0.500000 -0.416667    0.00166667  34 t-inv T
 -0.100000 -0.100000 -0.416667    0.00166667  35 t-inv T
  0.200000 -0.100000 -0.416667    0.00166667  35 t-inv T
 -0.100000  0.200000 -0.416667    0.00166667  35 t-inv T
  0.100000 -0.200000 -0.416667    0.00166667  35 t-inv T
 -0.200000  0.100000 -0.416667    0.00166667  35 t-inv T
  0.100000  0.100000 -0.416667    0.00166667  35 t-inv T
 -0.200000 -0.100000 -0.416667    0.00166667  36 t-inv T
  0.300000 -0.200000 -0.416667    0.00166667  36 t-inv T
 -0.100000  0.300000 -0.416667    0.00166667  36 t-inv T
  0.200000 -0.300000 -0.416667    0.00166667  36 t-inv T
 -0.300000  0.100000 -0.416667    0.00166667  36 t-inv T
  0.100000  0.200000 -0.416667    0.00166667  36 t-inv T
  0.100000 -0.300000 -0.416667    0.00166667  36 t-inv T
  0.200000  0.100000 -0.416667    0.00166667  36 t-inv T
 -0.300000  0.200000 -0.416667    0.00166667  36 t-inv T
 -0.100000 -0.200000 -0.416667    0.00166667  36 t-inv T
 -0.200000  0.300000 -0.416667    0.00166667  36 t-inv T
  0.300000 -0.100000 -0.416667    0.00166667  36 t-inv T
 -0.300000 -0.100000 -0.416667    0.00166667  37 t-inv T
  0.400000 -0.300000 -0.416667    0.00166667  37 t-inv T
 -0.100000  0.400000 -0.416667    0.00166667  37 t-inv T
  0.300000 -0.400000 -0.416667    0.00166667  37 t-inv T
 -0.400000  0.100000 -0.416667    0.00166667  37 t-inv T
  0.100000  0.300000 -0.416667    0.00166667  37 t-inv T
  0.100000 -0.400000 -0.416667    0.00166667  37 t-inv T
  0.300000  0.100000 -0.416667    0.00166667  37 t-inv T
 -0.400000  0.300000 -0.416667    0.00166667  37 t-inv T
 -0.100000 -0.300000 -0.416667    0.00166667  37 t-inv T
 -0.300000  0.400000 -0.416667    0.00166667  37 t-inv T
  0.400000 -0.100000 -0.416667    0.00166667  37 t-inv T
 -0.400000 -0.100000 -0.416667    0.00166667  38 t-inv T
  0.500000 -0.400000 -0.416667    0.00166667  38 t-inv T
 -0.100000  0.500000 -0.416667    0.00166667  38 t-inv T
  0.400000 -0.500000 -0.416667    0.00166667  38 t-inv T
 -0.500000  0.100000 -0.416667    0.00166667  38 t-inv T
  0.100000  0.400000 -0.416667    0.00166667  38 t-inv T
  0.100000 -0.500000 -0.416667    0.00166667  38 t-inv T
  0.400000  0.100000 -0.416667    0.00166667  38 t-inv T
 -0.500000  0.400000 -0.416667    0.00166667  38 t-inv T
 -0.100000 -0.400000 -0.416667    0.00166667  38 t-inv T
 -0.400000  0.500000 -0.416667    0.00166667  38 t-inv T
  0.500000 -0.100000 -0.416667    0.00166667  38 t-inv T
 -0.200000 -0.200000 -0.416667    0.00166667  39 t-inv T
  0.400000 -0.200000 -0.416667    0.00166667  39 t-inv T
 -0.200000  0.400000 -0.416667    0.00166667  39 t-inv T
  0.200000 -0.400000 -0.416667    0.00166667  39 t-inv T
 -0.400000  0.200000 -0.416667    0.00166667  39 t-inv T
  0.200000  0.200000 -0.416667    0.00166667  39 t-inv T
 -0.300000 -0.200000 -0.416667    0.00166667  40 t-inv T
  0.500000 -0.300000 -0.416667    0.00166667  40 t-inv T
 -0.200000  0.500000 -0.416667    0.00166667  40 t-inv T
  0.300000 -0.500000 -0.416667    0.00166667  40 t-inv T
 -0.500000  0.200000 -0.416667    0.00166667  40 t-inv T
  0.200000  0.300000 -0.416667    0.00166667  40 t-inv T
  0.200000 -0.500000 -0.416667    0.00166667  40 t-inv T
  0.300000  0.200000 -0.416667    0.00166667  40 t-inv T
 -0.500000  0.300000 -0.416667    0.00166667  40 t-inv T
 -0.200000 -0.300000 -0.416667    0.00166667  40 t-inv T
 -0.300000  0.500000 -0.416667    0.00166667  40 t-inv T
  0.500000 -0.200000 -0.416667    0.00166667  40 t-inv T
 -0.400000 -0.200000 -0.416667    0.00166667  41 t-inv T
  0.600000 -0.400000 -0.416667    0.00166667  41 t-inv T
 -0.200000  0.600000 -0.416667    0.00166667  41 t-inv T
  0.400000 -0.600000 -0.416667    0.00166667  41 t-inv T
 -0.600000  0.200000 -0.416667    0.00166667  41 t-inv T
  0.200000  0.400000 -0.416667    0.00166667  41 t-inv T
 -0.300000 -0.300000 -0.416667    0.00166667  42 t-inv T
  0.600000 -0.300000 -0.416667    0.00166667  42 t-inv T
 -0.300000  0.600000 -0.416667    0.00166667  42 t-inv T
  0.300000 -0.600000 -0.416667    0.00166667  42 t-inv T
 -0.600000  0.300000 -0.416667    0.00166667  42 t-inv T
  0.300000  0.300000 -0.416667    0.00166667  42 t-inv T


--------------------------------------------------------------------------------------------------------




 Dimension of arrays:
   k-points           NKPTS =     42   k-points in BZ     NKDIM =     42   number of bands    NBANDS=     22
   number of dos      NEDOS =    301   number of ions     NIONS =      4
   non local maximal  LDIM  =      6   non local SUM 2l+1 LMDIM =     18
   total plane-waves  NPLWV =   7168
   max r-space proj   IRMAX =      1   max aug-charges    IRDMAX=   3138
   dimension x,y,z NGX =    16 NGY =   16 NGZ =   28
   dimension x,y,z NGXF=    32 NGYF=   32 NGZF=   56
   support grid    NGXF=    32 NGYF=   32 NGZF=   56
   ions per type =               2   2
   NGX,Y,Z   is equivalent  to a cutoff of   7.03,  7.03,  7.50 a.u.
   NGXF,Y,Z  is equivalent  to a cutoff of  14.07, 14.07, 15.00 a.u.

 SYSTEM =  unknown system                          
 POSCAR =  Zn2 S2                                  

 Startparameter for this run:
   NWRITE =      2    write-flag & timer
   PREC   = normal    normal or accurate (medium, high low for compatibility)
   ISTART =      0    job   : 0-new  1-cont  2-samecut
   ICHARG =      2    charge: 1-file 2-atom 10-const
   ISPIN  =      1    spin polarized calculation?
   LNONCOLLINEAR =      F non collinear calculations
   LSORBIT =      F    spin-orbit coupling
   INIWAV =      1    electr: 0-lowe 1-rand  2-diag
   LASPH  =      T    aspherical Exc in radial PAW
 Electronic Relaxation 1
   ENCUT  =  276.7 eV  20.34 Ry    4.51 a.u.   5.13  5.13  8.42*2*pi/ulx,y,z
   ENINI  =  276.7     initial cutoff
   ENAUG  =  575.9 eV  augmentation charge cutoff
   NELM   =    100;   NELMIN=  2; NELMDL= -5     # of ELM steps 
   EDIFF  = 0.1E-05   stopping-criterion for ELM
   LREAL  =      F    real-space projection
   NLSPLINE    = F    spline interpolate recip. space projectors
   LCOMPAT=      F    compatible to vasp.4.4
   GGA_COMPAT  = T    GGA compatible to vasp.4.4-vasp.4.6
   LMAXPAW     = -100 max onsite density
   LMAXMIX     =    2 max onsite mixed and CHGCAR
   VOSKOWN=      0    Vosko Wilk Nusair interpolation
   ROPT   =    0.00000   0.00000
 Ionic relaxation
   EDIFFG = 0.1E-04   stopping-criterion for IOM
   NSW    =      1    number of steps for IOM
   NBLOCK =      1;   KBLOCK =      1    inner block; outer block 
   IBRION =      8    ionic relax: 0-MD 1-quasi-New 2-CG
   NFREE  =      0    steps in history (QN), initial steepest desc. (CG)
   ISIF   =      0    stress and relaxation
   IWAVPR =     11    prediction:  0-non 1-charg 2-wave 3-comb
   ISYM   =      2    0-nonsym 1-usesym 2-fastsym
   LCORR  =      T    Harris-Foulkes like correction to forces

   POTIM  = 0.5000    time-step for ionic-motion
   TEIN   =    0.0    initial temperature
   TEBEG  =    0.0;   TEEND  =   0.0 temperature during run
   SMASS  =  -3.00    Nose mass-parameter (am)
   estimated Nose-frequenzy (Omega)   =  0.10E-29 period in steps = 0.13E+47 mass=  -0.327E-27a.u.
   SCALEE = 1.0000    scale energy and forces
   NPACO  =    256;   APACO  = 10.0  distance and # of slots for P.C.
   PSTRESS=    0.0 pullay stress

  Mass of Ions in am
   POMASS =  65.39 32.07
  Ionic Valenz
   ZVAL   =  12.00  6.00
  Atomic Wigner-Seitz radii
   RWIGS  =  -1.00 -1.00
  virtual crystal weights 
   VCA    =   1.00  1.00
   NELECT =      36.0000    total number of electrons
   NUPDOWN=      -1.0000    fix difference up-down

 DOS related values:
   EMIN   =  10.00;   EMAX   =-10.00  energy-range for DOS
   EFERMI =   0.00;   METHOD = LEGACY      
   ISMEAR =    -5;   SIGMA  =   0.10  broadening in eV -4-tet -1-fermi 0-gaus
   EFERMI_NEDOS =   21; number of points for ismear=-14 and -15

 Electronic relaxation 2 (details)
   IALGO  =     38    algorithm
   LDIAG  =      T    sub-space diagonalisation (order eigenvalues)
   LSUBROT=      F    optimize rotation matrix (better conditioning)
   LROBUST=      F    robust break criterion during scf (extrapolated energy error)
   ISEARCH=      0    line search for conjugate gradient (0, 1=use gradient)
   TURBO    =      0    0=normal 1=particle mesh
   IRESTART =      0    0=no restart 2=restart with 2 vectors
   NREBOOT  =      0    no. of reboots
   NMIN     =      0    reboot dimension
   EREF     =   0.00    reference energy to select bands
   IMIX   =      4    mixing-type and parameters
     AMIX     =   0.40;   BMIX     =  1.00
     AMIX_MAG =   1.60;   BMIX_MAG =  1.00
     AMIN     =   0.10
     WC   =   100.;   INIMIX=   1;  MIXPRE=   1;  MAXMIX= -45

 Intra band minimization:
   WEIMIN = 0.0010     energy-eigenvalue tresh-hold
   EBREAK =  0.11E-07  absolut break condition
   DEPER  =   0.30     relativ break condition  

   TIME   =   0.40     timestep for ELM

  volume/ion in A,a.u.               =      19.21       129.64
  Fermi-wavevector in a.u.,A,eV,Ry     =   1.271475  2.402739 21.995840  1.616649
  Thomas-Fermi vector in A             =   2.404406
 
 Write flags
   LWAVE        =      F    write WAVECAR
   LDOWNSAMPLE  =      F    k-point downsampling of WAVECAR
   LCHARG       =      F    write CHGCAR
   LVTOT        =      F    write LOCPOT, total local potential
   LVHAR        =      F    write LOCPOT, Hartree potential only
   WRT_POTENTIAL= false  ! write potential to hdf5 file
   LELF         =      F    write electronic localiz. function (ELF)
   LORBIT       =     10    0 simple, 1 ext, 2 COOP (PROOUT), +10 PAW based schemes


 Python interface
   PLUGINS active      =      F    recompile with -DPLUGINS to activate
 
 Dipole corrections
   LMONO      =      F    monopole corrections only (constant potential shift)
   LDIPOL     =      F    correct potential (dipole corrections)
   IDIPOL     =      0    1-x, 2-y, 3-z, 4-all directions 
   EPSILON    =  1.0000000 bulk dielectric constant
   LVACPOTAV  =      F  vacuum potentials using an averaging scheme for the charge density
   VACPOTFLAT =  0.1000000 required flatness to determine vacuum potential
 
Coulomb truncation method
  LTRUNCATE          =      F  Coulomb kernel truncation to be used

 
 Exchange correlation treatment:
   GGA     = PS    functional components
   XC_C    = 1    coefficients multiplying the functional components
   LIBXC   =     F    Libxc                    
   VOSKOWN =     0    Vosko Wilk Nusair interpolation
   LHFCALC =     F    Hartree Fock is set to
   LHFONE  =     F    Hartree Fock one center treatment
   AEXX    =    0.0000 exact exchange contribution

 Parameters of functionals:
   PS:
     No parameter
 
 Van der Waals corrections
   IVDW    =     0    specifies the selected vdW correction

 Linear response parameters
   LEPSILON=     T    determine dielectric tensor
   LRPA    =     F    only Hartree local field effects (RPA)
   LNABLA  =     F    use nabla operator in PAW spheres
   LVEL    =     F    velocity operator in full k-point grid
   CSHIFT  =0.1000    complex shift for real part using Kramers Kronig
   OMEGAMAX=  -1.0    maximum frequency
   DEG_THRESHOLD= 0.2000000E-02 threshold for treating states as degnerate
   RTIME   =   -0.100 relaxation time in fs
  (WPLASMAI=    0.000 imaginary part of plasma frequency in eV, 0.658/RTIME)
   DFIELD  = 0.0000000 0.0000000 0.0000000 field for delta impulse in time
 
  Optional k-point grid parameters
   LKPOINTS_OPT  =     F    use optional k-point grid
   KPOINTS_OPT_MODE=     1    mode for optional k-point grid
 
 Orbital magnetization related:
   ORBITALMAG=     F  switch on orbital magnetization
   LCHIMAG   =     F  perturbation theory with respect to B field
   DQ        =  0.001000  dq finite difference perturbation B field
   LLRAUG    =     F  two centre corrections for induced B field
   LBONE     =     F  B-component reconstruction in AE one-centre
   LVGVCALC  =     T  calculate vGv susceptibility
   LVGVAPPL  =     F  apply vGv susceptibility instead of pGv for G=0

 Random number generation:
   RANDOM_GENERATOR = DEFAULT
   PCG_SEED         = not used


--------------------------------------------------------------------------------------------------------


 linear response using symmetry
 charge density and potential will be updated during run
 non-spin polarized calculation
 Variant of blocked Davidson
 Davidson routine will perform the subspace rotation
 perform sub-space diagonalisation
    after iterative eigenvector-optimisation
 modified Broyden-mixing scheme, WC =      100.0
 initial mixing is a Kerker type mixing with AMIX =  0.4000 and BMIX =      1.0000
 Hartree-type preconditioning will be used
 using additional bands             4
 reciprocal scheme for non local part
 use partial core corrections
 calculate Harris-corrections to forces 
   (improved forces if not selfconsistent)
 use gradient corrections 
 use of overlap-Matrix (Vanderbilt PP)
 Fermi weights with tetrahedron method with Bloechl corrections


--------------------------------------------------------------------------------------------------------


  energy-cutoff  :      276.72
  volume of cell :       76.84
      direct lattice vectors                 reciprocal lattice vectors
     3.781583874  0.000000000  0.000000000     0.264439461  0.152674194 -0.000000000
    -1.890791937  3.274947701  0.000000000     0.000000000  0.305348388  0.000000000
     0.000000000  0.000000000  6.204766233     0.000000000 -0.000000000  0.161166426

  length of vectors
     3.781583874  3.781583874  6.204766233     0.305348388  0.305348388  0.161166426


 
 k-points in units of 2pi/SCALE and weight: Num irrep kpoints: 42                   
   0.00000000  0.00000000  0.01343054       0.003
   0.02644395  0.01526742  0.01343054       0.020
   0.05288789  0.03053484  0.01343054       0.020
   0.07933184  0.04580226  0.01343054       0.020
   0.10577578  0.06106968  0.01343054       0.020
   0.13221973  0.07633710  0.01343054       0.010
   0.02644395  0.04580226  0.01343054       0.020
   0.05288789  0.06106968  0.01343054       0.040
   0.07933184  0.07633710  0.01343054       0.040
   0.10577578  0.09160452  0.01343054       0.040
   0.05288789  0.09160452  0.01343054       0.020
   0.07933184  0.10687194  0.01343054       0.040
   0.10577578  0.12213936  0.01343054       0.020
   0.07933184  0.13740677  0.01343054       0.020
   0.00000000  0.00000000  0.04029161       0.003
   0.02644395  0.01526742  0.04029161       0.020
   0.05288789  0.03053484  0.04029161       0.020
   0.07933184  0.04580226  0.04029161       0.020
   0.10577578  0.06106968  0.04029161       0.020
   0.13221973  0.07633710  0.04029161       0.010
   0.02644395  0.04580226  0.04029161       0.020
   0.05288789  0.06106968  0.04029161       0.040
   0.07933184  0.07633710  0.04029161       0.040
   0.10577578  0.09160452  0.04029161       0.040
   0.05288789  0.09160452  0.04029161       0.020
   0.07933184  0.10687194  0.04029161       0.040
   0.10577578  0.12213936  0.04029161       0.020
   0.07933184  0.13740677  0.04029161       0.020
   0.00000000  0.00000000  0.06715268       0.003
   0.02644395  0.01526742  0.06715268       0.020
   0.05288789  0.03053484  0.06715268       0.020
   0.07933184  0.04580226  0.06715268       0.020
   0.10577578  0.06106968  0.06715268       0.020
   0.13221973  0.07633710  0.06715268       0.010
   0.02644395  0.04580226  0.06715268       0.020
   0.05288789  0.06106968  0.06715268       0.040
   0.07933184  0.07633710  0.06715268       0.040
   0.10577578  0.09160452  0.06715268       0.040
   0.05288789  0.09160452  0.06715268       0.020
   0.07933184  0.10687194  0.06715268       0.040
   0.10577578  0.12213936  0.06715268       0.020
   0.07933184  0.13740677  0.06715268       0.020
 
 k-points in reciprocal lattice and weights: Num irrep kpoints: 42                   
   0.00000000  0.00000000  0.08333333       0.003
   0.10000000  0.00000000  0.08333333       0.020
   0.20000000  0.00000000  0.08333333       0.020
   0.30000000  0.00000000  0.08333333       0.020
   0.40000000  0.00000000  0.08333333       0.020
   0.50000000  0.00000000  0.08333333       0.010
   0.10000000  0.10000000  0.08333333       0.020
   0.20000000  0.10000000  0.08333333       0.040
   0.30000000  0.10000000  0.08333333       0.040
   0.40000000  0.10000000  0.08333333       0.040
   0.20000000  0.20000000  0.08333333       0.020
   0.30000000  0.20000000  0.08333333       0.040
   0.40000000  0.20000000  0.08333333       0.020
   0.30000000  0.30000000  0.08333333       0.020
   0.00000000  0.00000000  0.25000000       0.003
   0.10000000  0.00000000  0.25000000       0.020
   0.20000000  0.00000000  0.25000000       0.020
   0.30000000  0.00000000  0.25000000       0.020
   0.40000000  0.00000000  0.25000000       0.020
   0.50000000  0.00000000  0.25000000       0.010
   0.10000000  0.10000000  0.25000000       0.020
   0.20000000  0.10000000  0.25000000       0.040
   0.30000000  0.10000000  0.25000000       0.040
   0.40000000  0.10000000  0.25000000       0.040
   0.20000000  0.20000000  0.25000000       0.020
   0.30000000  0.20000000  0.25000000       0.040
   0.40000000  0.20000000  0.25000000       0.020
   0.30000000  0.30000000  0.25000000       0.020
   0.00000000  0.00000000  0.41666667       0.003
   0.10000000  0.00000000  0.41666667       0.020
   0.20000000  0.00000000  0.41666667       0.020
   0.30000000  0.00000000  0.41666667       0.020
   0.40000000  0.00000000  0.41666667       0.020
   0.50000000  0.00000000  0.41666667       0.010
   0.10000000  0.10000000  0.41666667       0.020
   0.20000000  0.10000000  0.41666667       0.040
   0.30000000  0.10000000  0.41666667       0.040
   0.40000000  0.10000000  0.41666667       0.040
   0.20000000  0.20000000  0.41666667       0.020
   0.30000000  0.20000000  0.41666667       0.040
   0.40000000  0.20000000  0.41666667       0.020
   0.30000000  0.30000000  0.41666667       0.020
 
 position of ions in fractional coordinates (direct lattice) 
   0.66666667  0.33333333  0.50040087
   0.33333333  0.66666667  0.00040087
   0.66666667  0.33333333  0.87459913
   0.33333333  0.66666667  0.37459913
 
 position of ions in cartesian coordinates  (Angst):
   1.89079194  1.09164923  3.10487041
  -0.00000000  2.18329847  0.00248729
   1.89079194  1.09164923  5.42668316
  -0.00000000  2.18329847  2.32430004
 


--------------------------------------------------------------------------------------------------------


 k-point     1 :   0.0000 0.0000 0.0833  plane waves:     785
 k-point     2 :   0.1000 0.0000 0.0833  plane waves:     791
 k-point     3 :   0.2000 0.0000 0.0833  plane waves:     795
 k-point     4 :   0.3000 0.0000 0.0833  plane waves:     814
 k-point     5 :   0.4000 0.0000 0.0833  plane waves:     804
 k-point     6 :   0.5000 0.0000 0.0833  plane waves:     810
 k-point     7 :   0.1000 0.1000 0.0833  plane waves:     791
 k-point     8 :   0.2000 0.1000 0.0833  plane waves:     802
 k-point     9 :   0.3000 0.1000 0.0833  plane waves:     808
 k-point    10 :   0.4000 0.1000 0.0833  plane waves:     810
 k-point    11 :   0.2000 0.2000 0.0833  plane waves:     805
 k-point    12 :   0.3000 0.2000 0.0833  plane waves:     805
 k-point    13 :   0.4000 0.2000 0.0833  plane waves:     811
 k-point    14 :   0.3000 0.3000 0.0833  plane waves:     809
 k-point    15 :   0.0000 0.0000 0.2500  plane waves:     797
 k-point    16 :   0.1000 0.0000 0.2500  plane waves:     790
 k-point    17 :   0.2000 0.0000 0.2500  plane waves:     801
 k-point    18 :   0.3000 0.0000 0.2500  plane waves:     803
 k-point    19 :   0.4000 0.0000 0.2500  plane waves:     809
 k-point    20 :   0.5000 0.0000 0.2500  plane waves:     804
 k-point    21 :   0.1000 0.1000 0.2500  plane waves:     793
 k-point    22 :   0.2000 0.1000 0.2500  plane waves:     804
 k-point    23 :   0.3000 0.1000 0.2500  plane waves:     808
 k-point    24 :   0.4000 0.1000 0.2500  plane waves:     806
 k-point    25 :   0.2000 0.2000 0.2500  plane waves:     801
 k-point    26 :   0.3000 0.2000 0.2500  plane waves:     809
 k-point    27 :   0.4000 0.2000 0.2500  plane waves:     812
 k-point    28 :   0.3000 0.3000 0.2500  plane waves:     804
 k-point    29 :   0.0000 0.0000 0.4167  plane waves:     814
 k-point    30 :   0.1000 0.0000 0.4167  plane waves:     794
 k-point    31 :   0.2000 0.0000 0.4167  plane waves:     795
 k-point    32 :   0.3000 0.0000 0.4167  plane waves:     800
 k-point    33 :   0.4000 0.0000 0.4167  plane waves:     808
 k-point    34 :   0.5000 0.0000 0.4167  plane waves:     796
 k-point    35 :   0.1000 0.1000 0.4167  plane waves:     798
 k-point    36 :   0.2000 0.1000 0.4167  plane waves:     806
 k-point    37 :   0.3000 0.1000 0.4167  plane waves:     805
 k-point    38 :   0.4000 0.1000 0.4167  plane waves:     803
 k-point    39 :   0.2000 0.2000 0.4167  plane waves:     809
 k-point    40 :   0.3000 0.2000 0.4167  plane waves:     805
 k-point    41 :   0.4000 0.2000 0.4167  plane waves:     793
 k-point    42 :   0.3000 0.3000 0.4167  plane waves:     798

 maximum and minimum number of plane-waves per node :       814      785

 maximum number of plane-waves:       814
 maximum index in each direction: 
   IXMAX=    5   IYMAX=    5   IZMAX=    8
   IXMIN=   -5   IYMIN=   -5   IZMIN=   -8


 serial   3D FFT for wavefunctions
 parallel 3D FFT for charge:
    minimum data exchange during FFTs selected (reduces bandwidth)


 total amount of memory used by VASP MPI-rank0    58362. kBytes
=======================================================================

   base                                    :      30000. kBytes
   nonl-proj                               :       9898. kBytes
   fftplans                                :       2016. kBytes
   grid                                    :       3584. kBytes
   one-center                              :         62. kBytes
   wavefun                                 :      12802. kBytes
 
     INWAV:  cpu time      0.0001: real time      0.0002
 Broyden mixing: mesh for mixing (old mesh)
   NGX = 11   NGY = 11   NGZ = 17
  (NGX  = 32   NGY  = 32   NGZ  = 56)
  gives a total of   2057 points

 initial charge density was supplied:
 charge density of overlapping atoms calculated
 number of electron      36.0000000 magnetization 
 keeping initial charge density in first step


--------------------------------------------------------------------------------------------------------


 Maximum index for augmentation-charges          2862 (set IRDMAX)


--------------------------------------------------------------------------------------------------------


 First call to EWALD:  gamma=   0.417
 Maximum number of real-space cells   3x   3x   2
 Maximum number of reciprocal cells   3x   3x   4

    FEWALD:  cpu time      0.0019: real time      0.0151


--------------------------------------- Ionic step        1  -------------------------------------------




--------------------------------------- Iteration      1(   1)  ---------------------------------------


    POTLOK:  cpu time      0.0443: real time      0.0889
    SETDIJ:  cpu time      0.0921: real time      0.1193
     EDDAV:  cpu time      0.6573: real time      1.6306
 BZINTS: Fermi energy:   12.653656;   36.000000 electrons
         Band energy: 0.835052E+02;  BLOECHL correction:   -0.173590
       DOS:  cpu time      0.0731: real time      0.1110
    --------------------------------------------
      LOOP:  cpu time      0.8669: real time      1.9582

 eigenvalue-minimisations  :  1848
 total energy-change (2. order) : 0.1737134E+03  (-0.1234322E+04)
 number of electron      36.0000000 magnetization 
 augmentation part       36.0000000 magnetization 

 Free energy of the ion-electron system (eV)
  ---------------------------------------------------
  alpha Z        PSCENC =       147.15733780
  Ewald energy   TEWEN  =     -2526.08836804
  -Hartree energ DENC   =     -1371.32612577
  -exchange      EXHF   =         0.00000000
  -V(xc)+E(xc)   XCENC  =       140.97932143
  PAW double counting   =      3343.44361914    -3692.01684003
  entropy T*S    EENTRO =         0.00000000
  eigenvalues    EBANDS =        83.50521305
  atomic energy  EATOM  =      4048.05923486
  Solvation  Ediel_sol  =         0.00000000
  ---------------------------------------------------
  free energy    TOTEN  =       173.71339243 eV

  energy without entropy =      173.71339243  energy(sigma->0) =      173.71339243


--------------------------------------------------------------------------------------------------------




--------------------------------------- Iteration      1(   2)  ---------------------------------------


     EDDAV:  cpu time      0.4289: real time      0.4474
 BZINTS: Fermi energy:    3.450157;   36.000000 electrons
         Band energy:-0.925142E+02;  BLOECHL correction:    0.000000
       DOS:  cpu time      0.0171: real time      0.0171
    --------------------------------------------
      LOOP:  cpu time      0.4460: real time      0.4561

 eigenvalue-minimisations  :  2028
 total energy-change (2. order) :-0.1760194E+03  (-0.1723637E+03)
 number of electron      36.0000000 magnetization 
 augmentation part       36.0000000 magnetization 

 Free energy of the ion-electron system (eV)
  ---------------------------------------------------
  alpha Z        PSCENC =       147.15733780
  Ewald energy   TEWEN  =     -2526.08836804
  -Hartree energ DENC   =     -1371.32612577
  -exchange      EXHF   =         0.00000000
  -V(xc)+E(xc)   XCENC  =       140.97932143
  PAW double counting   =      3343.44361914    -3692.01684003
  entropy T*S    EENTRO =         0.00000000
  eigenvalues    EBANDS =       -92.51416896
  atomic energy  EATOM  =      4048.05923486
  Solvation  Ediel_sol  =         0.00000000
  ---------------------------------------------------
  free energy    TOTEN  =        -2.30598958 eV

  energy without entropy =       -2.30598958  energy(sigma->0) =       -2.30598958


--------------------------------------------------------------------------------------------------------




--------------------------------------- Iteration      1(   3)  ---------------------------------------


     EDDAV:  cpu time      0.4398: real time      0.4418
 BZINTS: Fermi energy:    1.937600;   36.000000 electrons
         Band energy:-0.105937E+03;  BLOECHL correction:    0.000000
       DOS:  cpu time      0.0150: real time      0.0150
    --------------------------------------------
      LOOP:  cpu time      0.4548: real time      0.4568

 eigenvalue-minimisations  :  2196
 total energy-change (2. order) :-0.1342247E+02  (-0.1338353E+02)
 number of electron      36.0000000 magnetization 
 augmentation part       36.0000000 magnetization 

 Free energy of the ion-electron system (eV)
  ---------------------------------------------------
  alpha Z        PSCENC =       147.15733780
  Ewald energy   TEWEN  =     -2526.08836804
  -Hartree energ DENC   =     -1371.32612577
  -exchange      EXHF   =         0.00000000
  -V(xc)+E(xc)   XCENC  =       140.97932143
  PAW double counting   =      3343.44361914    -3692.01684003
  entropy T*S    EENTRO =         0.00000000
  eigenvalues    EBANDS =      -105.93663705
  atomic energy  EATOM  =      4048.05923486
  Solvation  Ediel_sol  =         0.00000000
  ---------------------------------------------------
  free energy    TOTEN  =       -15.72845768 eV

  energy without entropy =      -15.72845768  energy(sigma->0) =      -15.72845768


--------------------------------------------------------------------------------------------------------




--------------------------------------- Iteration      1(   4)  ---------------------------------------


     EDDAV:  cpu time      0.4416: real time      0.4435
 BZINTS: Fermi energy:    1.834753;   36.000000 electrons
         Band energy:-0.106157E+03;  BLOECHL correction:    0.000000
       DOS:  cpu time      0.0134: real time      0.0134
    --------------------------------------------
      LOOP:  cpu time      0.4550: real time      0.4569

 eigenvalue-minimisations  :  2178
 total energy-change (2. order) :-0.2206835E+00  (-0.2205662E+00)
 number of electron      36.0000000 magnetization 
 augmentation part       36.0000000 magnetization 

 Free energy of the ion-electron system (eV)
  ---------------------------------------------------
  alpha Z        PSCENC =       147.15733780
  Ewald energy   TEWEN  =     -2526.08836804
  -Hartree energ DENC   =     -1371.32612577
  -exchange      EXHF   =         0.00000000
  -V(xc)+E(xc)   XCENC  =       140.97932143
  PAW double counting   =      3343.44361914    -3692.01684003
  entropy T*S    EENTRO =         0.00000000
  eigenvalues    EBANDS =      -106.15732057
  atomic energy  EATOM  =      4048.05923486
  Solvation  Ediel_sol  =         0.00000000
  ---------------------------------------------------
  free energy    TOTEN  =       -15.94914119 eV

[...]

 k-point  62 :      -0.0000    0.4000    0.4167
  band No.  band energies     occupation 
      1       0.0199      0.00000
      2      -0.0040      0.00000
      3      -0.0698      0.00000
      4       0.2231      0.00000
      5      -0.0879      0.00000
      6      -0.1192      0.00000
      7       0.3258      0.00000
      8       0.0255      0.00000
      9      -0.1243      0.00000
     10       0.0727      0.00000
     11      -0.1505      0.00000
     12       0.0841      0.00000
     13      -0.1485      0.00000
     14      -0.2543      0.00000
     15       0.4481      0.00000
     16      -0.3180      0.00000
     17       0.5846      0.00000
     18      -0.5174      0.00000
     19       0.3225      0.00000
     20       0.4363      0.00000
     21      -0.6963      0.00000
     22      -1.1079      0.00000

 k-point  63 :      -0.1000    0.3000    0.4167
  band No.  band energies     occupation 
      1      -0.0217      0.00000
      2      -0.0576      0.00000
      3       0.0143      0.00000
      4       0.1005      0.00000
      5      -0.0535      0.00000
      6      -0.3163      0.00000
      7       0.1688      0.00000
      8      -0.0534      0.00000
      9       0.0081      0.00000
     10      -0.0193      0.00000
     11       0.0302      0.00000
     12       0.1312      0.00000
     13       0.3454      0.00000
     14       0.1980      0.00000
     15      -0.0891      0.00000
     16       0.0958      0.00000
     17       0.0204      0.00000
     18      -0.2519      0.00000
     19       0.3661      0.00000
     20       0.3581      0.00000
     21      -0.7104      0.00000
     22      -0.5591      0.00000

 k-point  64 :      -0.1000    0.4000    0.4167
  band No.  band energies     occupation 
      1       0.0097      0.00000
      2      -0.0171      0.00000
      3      -0.0303      0.00000
      4       0.2051      0.00000
      5      -0.1197      0.00000
      6      -0.1018      0.00000
      7       0.3007      0.00000
      8      -0.1491      0.00000
      9      -0.1697      0.00000
     10       0.1241      0.00000
     11      -0.0442      0.00000
     12       0.1060      0.00000
     13      -0.0435      0.00000
     14      -0.1075      0.00000
     15       0.0896      0.00000
     16      -0.0120      0.00000
     17      -0.2860      0.00000
     18       0.2722      0.00000
     19       0.4607      0.00000
     20       0.3943      0.00000
     21      -0.8780      0.00000
     22      -0.8730      0.00000

 k-point  65 :      -0.1000    0.5000    0.4167
  band No.  band energies     occupation 
      1       0.0303      0.00000
      2       0.0130      0.00000
      3       0.0539      0.00000
      4       0.1863      0.00000
      5      -0.0197      0.00000
      6      -0.0575      0.00000
      7       0.3217      0.00000
      8      -0.0242      0.00000
      9      -0.2142      0.00000
     10       0.1544      0.00000
     11      -0.0678      0.00000
     12      -0.0350      0.00000
     13      -0.2080      0.00000
     14      -0.3751      0.00000
     15      -0.1029      0.00000
     16      -0.3210      0.00000
     17       0.2049      0.00000
     18       0.3984      0.00000
     19       0.4213      0.00000
     20       0.3752      0.00000
     21      -0.8497      0.00000
     22      -0.8081      0.00000

 k-point  66 :      -0.2000    0.5000    0.4167
  band No.  band energies     occupation 
      1       0.0285      0.00000
      2       0.0118      0.00000
      3       0.1587      0.00000
      4       0.2145      0.00000
      5       0.0114      0.00000
      6       0.1836      0.00000
      7       0.1051      0.00000
      8      -0.3544      0.00000
      9      -0.0968      0.00000
     10       0.1071      0.00000
     11      -0.0546      0.00000
     12      -0.0070      0.00000
     13      -0.1524      0.00000
     14      -0.2443      0.00000
     15      -0.3691      0.00000
     16      -0.5755      0.00000
     17       0.4625      0.00000
     18       0.4969      0.00000
     19       0.5500      0.00000
     20      -0.1021      0.00000
     21       0.1466      0.00000
     22      -0.3442      0.00000


------------------------ aborting loop because EDIFF is reached ----------------------------------------


    FORLOC:  cpu time      0.0003: real time      0.0003
    FORNL :  cpu time      0.0876: real time      0.0879
    FORCOR:  cpu time      0.0773: real time      0.0775
    OFIELD:  cpu time      0.0008: real time      0.0008
    FORLOC:  cpu time      0.0003: real time      0.0003
    FORNL :  cpu time      0.0876: real time      0.0879
    FORCOR:  cpu time      0.0773: real time      0.0776
    OFIELD:  cpu time      0.0008: real time      0.0008
    FORLOC:  cpu time      0.0003: real time      0.0003
    FORNL :  cpu time      0.0879: real time      0.0882
    FORCOR:  cpu time      0.0774: real time      0.0777
    OFIELD:  cpu time      0.0008: real time      0.0008
    FORLOC:  cpu time      0.0003: real time      0.0003
    FORNL :  cpu time      0.0878: real time      0.0881
    FORCOR:  cpu time      0.0776: real time      0.0779
    OFIELD:  cpu time      0.0008: real time      0.0008


 POSITION                   FORCE-CONSTANT FOR ION    3 DIRECTION 3 (eV/Angst/Angst)
 -----------------------------------------------------------------------------------
      1.89079      1.09165      3.10487         0.000000      0.000000      4.226902
     -0.00000      2.18330      0.00249         0.000000      0.000000      1.866478
      1.89079      1.09165      5.42668         0.000000     -0.000000     -9.655599
     -0.00000      2.18330      2.32430        -0.000000      0.000000      3.562219
 -----------------------------------------------------------------------------------
    total drift:                                0.000000      0.000000      0.000000


 BORN EFFECTIVE CHARGE FOR ION    3 DIRECTION 3 :  -0.000   0.000  -1.988
                   rigid augmentation           :   0.000   0.000   0.815
                   ionic contribution           :   0.000   0.000   6.000
                   Berry contribution           :  -0.000   0.000  -8.803


--------------------------------------------------------------------------------------------------------


  LATTYP: Found a hexagonal cell.
 ALAT       =     3.7815838737
 C/A-ratio  =     1.6407850361
  
  Lattice vectors:
  
 A1 = (   3.7815838737,   0.0000000000,   0.0000000000)
 A2 = (  -1.8907919369,   3.2749477012,   0.0000000000)
 A3 = (   0.0000000000,   0.0000000000,   6.2047662326)


Analysis of symmetry for initial positions (statically):
=====================================================================
 Subroutine PRICEL returns:
 Original cell was already a primitive cell.
 

 Routine SETGRP: Setting up the symmetry group for a 
 hexagonal supercell.


 Subroutine GETGRP returns: Found 12 space group operations
 (whereof  6 operations were pure point group operations)
 out of a pool of 24 trial point group operations.


The static configuration has the point symmetry C_3v.
 The point group associated with its full space group is C_6v.


Analysis of symmetry for dynamics (positions and initial velocities):
=====================================================================
 Subroutine PRICEL returns:
 Original cell was already a primitive cell.
 

 Routine SETGRP: Setting up the symmetry group for a 
 hexagonal supercell.


 Subroutine GETGRP returns: Found 12 space group operations
 (whereof  6 operations were pure point group operations)
 out of a pool of 24 trial point group operations.


The dynamic configuration has the point symmetry C_3v.
 The point group associated with its full space group is C_6v.


 Subroutine INISYM returns: Found 12 space group operations
 (whereof  6 operations are pure point group operations),
 and found     1 'primitive' translations



--------------------------------------------------------------------------------------------------------




 MACROSCOPIC STATIC DIELECTRIC TENSOR (including local field effects in DFT)
 ------------------------------------------------------
           5.956299    -0.000000     0.000000
          -0.000000     5.956299     0.000000
          -0.000000     0.000000     6.052958
 ------------------------------------------------------


 PIEZOELECTRIC TENSOR (including local field effects)  for field in x, y, z        (e  Angst)
          XX          YY          ZZ          XY          YZ          ZX
  --------------------------------------------------------------------------------
  x     0.00000     0.00000     0.00000     0.00000     0.00000     0.00000
  y     0.00000     0.00000     0.00000     0.00000     0.00000     0.00000
  z     0.00000     0.00000     0.00000     0.00000     0.00000     0.00000

 PIEZOELECTRIC TENSOR (including local field effects)  for field in x, y, z        (C/m^2)
          XX          YY          ZZ          XY          YZ          ZX
  --------------------------------------------------------------------------------
  x     0.00000     0.00000     0.00000     0.00000     0.00000     0.00000
  y     0.00000     0.00000     0.00000     0.00000     0.00000     0.00000
  z     0.00000     0.00000     0.00000     0.00000     0.00000     0.00000
 
 BORN EFFECTIVE CHARGES (including local field effects) (in |e|, cummulative output)
 ---------------------------------------------------------------------------------
 ion    1
    1     1.89322    -0.00000    -0.00000
    2    -0.00000     1.89322     0.00000
    3     0.00000     0.00000     1.99670
 ion    2
    1     1.89322    -0.00000     0.00000
    2    -0.00000     1.89322    -0.00000
    3     0.00000     0.00000     1.99670
 ion    3
    1    -1.89322     0.00000    -0.00000
    2     0.00000    -1.89322     0.00000
    3     0.00000     0.00000    -1.99670
 ion    4
    1    -1.89322     0.00000     0.00000
    2     0.00000    -1.89322     0.00000
    3    -0.00000    -0.00000    -1.99670


--------------------------------------------------------------------------------------------------------


 
 SECOND DERIVATIVES (NOT SYMMETRIZED)
 ------------------------------------
               1X          1Y          1Z          2X          2Y          2Z          3X          3Y          3Z          4X          4Y          4Z 
  1X    -6.100619    0.000000    0.000000   -0.168883    0.000000    0.000000    0.299492   -0.000000   -0.000000    5.970010   -0.000000   -0.000000
  1Y     0.000000   -6.100619    0.000000    0.000000   -0.168883    0.000000   -0.000000    0.299492   -0.000000   -0.000000    5.970010    0.000000
  1Z     0.000000   -0.000000   -8.064867    0.000000    0.000000    1.886489    0.000000    0.000000    4.263350   -0.000000    0.000000    1.915029
  2X    -0.168883    0.000000    0.000000   -6.100619    0.000000    0.000000    5.970010   -0.000000    0.000000    0.299492   -0.000000    0.000000
  2Y     0.000000   -0.168883   -0.000000    0.000000   -6.100619   -0.000000   -0.000000    5.970010   -0.000000   -0.000000    0.299492    0.000000
  2Z    -0.000000   -0.000000    1.886489   -0.000000    0.000000   -8.064867    0.000000    0.000000    1.915029   -0.000000   -0.000000    4.263350
  3X     0.287786   -0.000000    0.000000    6.003668   -0.000000   -0.000000   -6.866825    0.000000    0.000000    0.575371   -0.000000   -0.000000
  3Y    -0.000000    0.287786    0.000000   -0.000000    6.003668    0.000000    0.000000   -6.866825    0.000000   -0.000000    0.575371    0.000000
  3Z     0.000000    0.000000    4.226902   -0.000000    0.000000    1.866478    0.000000    0.000000   -9.655599   -0.000000    0.000000    3.562219
  4X     6.003668   -0.000000   -0.000000    0.287786   -0.000000    0.000000    0.575371   -0.000000    0.000000   -6.866825    0.000000   -0.000000
  4Y    -0.000000    6.003668   -0.000000   -0.000000    0.287786   -0.000000   -0.000000    0.575371   -0.000000    0.000000   -6.866825   -0.000000
  4Z     0.000000   -0.000000    1.866478    0.000000    0.000000    4.226902    0.000000    0.000000    3.562219   -0.000000    0.000000   -9.655599
 
 
 Eigenvectors and eigenvalues of the dynamical matrix
 ----------------------------------------------------
 
 
   1 f  =   10.155683 THz    63.810040 2PiTHz  338.757129 cm-1    42.000512 meV
             X         Y         Z           dx          dy          dz
      1.890792  1.091649  3.104870     0.000000   -0.000000    0.132362  
     -0.000000  2.183298  0.002487    -0.000000    0.000000   -0.132362  
      1.890792  1.091649  5.426683     0.000000   -0.000000   -0.694608  
     -0.000000  2.183298  2.324300    -0.000000    0.000000    0.694608  
 
   2 f  =    8.625595 THz    54.196210 2PiTHz  287.718868 cm-1    35.672577 meV
             X         Y         Z           dx          dy          dz
      1.890792  1.091649  3.104870    -0.165838    0.314539   -0.000000  
     -0.000000  2.183298  0.002487     0.165838   -0.314539   -0.000000  
      1.890792  1.091649  5.426683    -0.285055    0.540654    0.000000  
     -0.000000  2.183298  2.324300     0.285055   -0.540654    0.000000  
 
   3 f  =    8.625595 THz    54.196210 2PiTHz  287.718868 cm-1    35.672577 meV
             X         Y         Z           dx          dy          dz
      1.890792  1.091649  3.104870    -0.314539   -0.165838   -0.000000  
     -0.000000  2.183298  0.002487     0.314539    0.165838   -0.000000  
      1.890792  1.091649  5.426683    -0.540654   -0.285055    0.000000  
     -0.000000  2.183298  2.324300     0.540654    0.285055   -0.000000  
 
   4 f  =    8.448958 THz    53.086371 2PiTHz  281.826916 cm-1    34.942069 meV
             X         Y         Z           dx          dy          dz
      1.890792  1.091649  3.104870    -0.188948    0.358369   -0.000000  
     -0.000000  2.183298  0.002487    -0.188948    0.358369   -0.000000  
      1.890792  1.091649  5.426683     0.270293   -0.512652    0.000000  
     -0.000000  2.183298  2.324300     0.270293   -0.512652    0.000000  
 
   5 f  =    8.448958 THz    53.086371 2PiTHz  281.826916 cm-1    34.942069 meV
             X         Y         Z           dx          dy          dz
      1.890792  1.091649  3.104870     0.358369    0.188948    0.000000  
     -0.000000  2.183298  0.002487     0.358369    0.188948   -0.000000  
      1.890792  1.091649  5.426683    -0.512652   -0.270293    0.000000  
     -0.000000  2.183298  2.324300    -0.512652   -0.270293    0.000000  
 
   6 f  =    8.338785 THz    52.394131 2PiTHz  278.151925 cm-1    34.486428 meV
             X         Y         Z           dx          dy          dz
      1.890792  1.091649  3.104870    -0.000000    0.000000    0.407492  
     -0.000000  2.183298  0.002487    -0.000000    0.000000    0.407492  
      1.890792  1.091649  5.426683     0.000000   -0.000000   -0.577884  
     -0.000000  2.183298  2.324300     0.000000   -0.000000   -0.577884  
 
   7 f  =    5.899103 THz    37.065157 2PiTHz  196.772892 cm-1    24.396718 meV
             X         Y         Z           dx          dy          dz
      1.890792  1.091649  3.104870    -0.000000   -0.000000    0.694608  
     -0.000000  2.183298  0.002487    -0.000000   -0.000000   -0.694608  
      1.890792  1.091649  5.426683    -0.000000    0.000000    0.132362  
     -0.000000  2.183298  2.324300     0.000000   -0.000000   -0.132362  
 
   8 f  =    2.119491 THz    13.317156 2PiTHz   70.698614 cm-1     8.765507 meV
             X         Y         Z           dx          dy          dz
      1.890792  1.091649  3.104870    -0.285136    0.540611    0.000000  
     -0.000000  2.183298  0.002487     0.285136   -0.540611    0.000000  
      1.890792  1.091649  5.426683     0.165885   -0.314514    0.000000  
     -0.000000  2.183298  2.324300    -0.165885    0.314514    0.000000  
 
   9 f  =    2.119491 THz    13.317156 2PiTHz   70.698614 cm-1     8.765507 meV
             X         Y         Z           dx          dy          dz
      1.890792  1.091649  3.104870     0.540611    0.285136   -0.000000  
     -0.000000  2.183298  0.002487    -0.540611   -0.285136   -0.000000  
      1.890792  1.091649  5.426683    -0.314514   -0.165885   -0.000000  
     -0.000000  2.183298  2.324300     0.314514    0.165885   -0.000000  
 
  10 f/i=    0.006934 THz     0.043565 2PiTHz    0.231281 cm-1     0.028675 meV
             X         Y         Z           dx          dy          dz
      1.890792  1.091649  3.104870     0.578473    0.035200   -0.000000  
     -0.000000  2.183298  0.002487     0.578473    0.035200   -0.000000  
      1.890792  1.091649  5.426683     0.404381    0.024606   -0.000000  
     -0.000000  2.183298  2.324300     0.404381    0.024606   -0.000000  
 
  11 f/i=    0.006934 THz     0.043565 2PiTHz    0.231281 cm-1     0.028675 meV
             X         Y         Z           dx          dy          dz
      1.890792  1.091649  3.104870    -0.035200    0.578473    0.000000  
     -0.000000  2.183298  0.002487    -0.035200    0.578473    0.000000  
      1.890792  1.091649  5.426683    -0.024606    0.404381    0.000000  
     -0.000000  2.183298  2.324300    -0.024606    0.404381    0.000000  
 
  12 f/i=    0.027202 THz     0.170914 2PiTHz    0.907355 cm-1     0.112498 meV
             X         Y         Z           dx          dy          dz
      1.890792  1.091649  3.104870    -0.000000    0.000000   -0.577884  
     -0.000000  2.183298  0.002487    -0.000000    0.000000   -0.577884  
      1.890792  1.091649  5.426683    -0.000000    0.000000   -0.407492  
     -0.000000  2.183298  2.324300    -0.000000    0.000000   -0.407492  
 


--------------------------------------------------------------------------------------------------------




 MACROSCOPIC STATIC DIELECTRIC TENSOR IONIC CONTRIBUTION
 ------------------------------------------------------
           2.687819    -0.000000    -0.000000
          -0.000000     2.687819     0.000000
          -0.000000     0.000000     3.060053
 ------------------------------------------------------



--------------------------------------------------------------------------------------------------------


     LOOP+:  cpu time    249.7839: real time    253.2544
    4ORBIT:  cpu time      0.0000: real time      0.0000



 total charge

# of ion       s       p       d       tot
------------------------------------------
    1        0.532   0.505   9.796  10.833
    2        0.532   0.505   9.796  10.833
    3        1.309   2.437   0.000   3.745
    4        1.309   2.437   0.000   3.745
--------------------------------------------------
tot          3.681   5.884  19.592  29.157
 
 BZINTS: Fermi energy:    2.291426;   36.000000 electrons
         Band energy:-0.120929E+03;  BLOECHL correction:    0.000000

 total amount of memory used by VASP MPI-rank0    58362. kBytes
=======================================================================

   base                                    :      30000. kBytes
   nonl-proj                               :       9898. kBytes
   fftplans                                :       2016. kBytes
   grid                                    :       3584. kBytes
   one-center                              :         62. kBytes
   wavefun                                 :      12802. kBytes
 
  
  
 General timing and accounting informations for this job:
 ========================================================
  
                  Total CPU time used (sec):      253.830
                            User time (sec):      250.364
                          System time (sec):        3.467
                         Elapsed time (sec):      263.841
  
                   Maximum memory used (kb):     2426236.
                   Average memory used (kb):          N/A
  
                          Minor page faults:       326861
                          Major page faults:         8577
                 Voluntary context switches:        29611
