<?xml version="1.0" encoding="ISO-8859-1"?>
<modeling>
 <generator>
  <i name="program" type="string">vasp </i>
  <i name="version" type="string">6.5.1  </i>
  <i name="subversion" type="string">10Mar25 (build May 13 2025 11:33:44) complex                          parallel </i>
  <i name="platform" type="string">LinuxNV </i>
  <i name="date" type="string">2026 05 15 </i>
  <i name="time" type="string">18:25:31 </i>
 </generator>
 <incar>
  <i type="string" name="PREC">Normal</i>
  <i type="string" name="ALGO">Normal</i>
  <i type="int" name="NELM">   100</i>
  <i type="int" name="IBRION">     8</i>
  <i name="EDIFF">      0.00000100</i>
  <i type="int" name="NSW">     1</i>
  <i type="int" name="ISIF">     0</i>
  <i name="ENCUT">    276.72300000</i>
  <i type="logical" name="LREAL"> F  </i>
  <i type="int" name="ISMEAR">    -5</i>
  <i name="SIGMA">      0.10000000</i>
  <i type="logical" name="LWAVE"> F  </i>
  <i type="logical" name="LCHARG"> F  </i>
  <i type="int" name="LORBIT">    10</i>
  <i type="logical" name="LASPH"> T  </i>
  <i type="string" name="GGA">Ps</i>
  <i type="logical" name="LEPSILON"> T  </i>
 </incar>
 <primitive_cell>
  <structure name="primitive_cell" >
   <crystal>
    <varray name="basis" >
     <v>       3.78158387       0.00000000       0.00000000 </v>
     <v>      -1.89079194       3.27494770       0.00000000 </v>
     <v>       0.00000000       0.00000000       6.20476623 </v>
    </varray>
    <i name="volume">     76.84286172 </i>
    <varray name="rec_basis" >
     <v>       0.26443946       0.15267419      -0.00000000 </v>
     <v>       0.00000000       0.30534839       0.00000000 </v>
     <v>       0.00000000      -0.00000000       0.16116643 </v>
    </varray>
   </crystal>
   <varray name="positions" >
    <v>       0.66666667       0.33333333       0.50040087 </v>
    <v>       0.33333333       0.66666667       0.00040087 </v>
    <v>       0.66666667       0.33333333       0.87459913 </v>
    <v>       0.33333333       0.66666667       0.37459913 </v>
   </varray>
  </structure>
  <varray name="primitive_index" >
   <v type="int" >        1 </v>
   <v type="int" >        2 </v>
   <v type="int" >        3 </v>
   <v type="int" >        4 </v>
  </varray>
 </primitive_cell>
 <kpoints>
  <generation param="Gamma">
   <v type="int" name="divisions">      10       10        6 </v>
   <v name="usershift">      0.00000000       0.00000000       0.50000000 </v>
   <v name="genvec1">      0.10000000       0.00000000       0.00000000 </v>
   <v name="genvec2">      0.00000000       0.10000000       0.00000000 </v>
   <v name="genvec3">      0.00000000       0.00000000       0.16666667 </v>
   <v name="shift">      0.00000000       0.00000000       0.50000000 </v>
  </generation>
  <varray name="kpointlist" >
   <v>       0.00000000       0.00000000       0.08333333 </v>
   <v>       0.10000000       0.00000000       0.08333333 </v>
   <v>       0.20000000       0.00000000       0.08333333 </v>
   <v>       0.30000000       0.00000000       0.08333333 </v>
   <v>       0.40000000       0.00000000       0.08333333 </v>
   <v>       0.50000000       0.00000000       0.08333333 </v>
   <v>       0.10000000       0.10000000       0.08333333 </v>
   <v>       0.20000000       0.10000000       0.08333333 </v>
   <v>       0.30000000       0.10000000       0.08333333 </v>
   <v>       0.40000000       0.10000000       0.08333333 </v>
   <v>       0.20000000       0.20000000       0.08333333 </v>
   <v>       0.30000000       0.20000000       0.08333333 </v>
   <v>       0.40000000       0.20000000       0.08333333 </v>
   <v>       0.30000000       0.30000000       0.08333333 </v>
   <v>       0.00000000       0.00000000       0.25000000 </v>
   <v>       0.10000000       0.00000000       0.25000000 </v>
   <v>       0.20000000       0.00000000       0.25000000 </v>
   <v>       0.30000000       0.00000000       0.25000000 </v>
   <v>       0.40000000       0.00000000       0.25000000 </v>
   <v>       0.50000000       0.00000000       0.25000000 </v>
   <v>       0.10000000       0.10000000       0.25000000 </v>
   <v>       0.20000000       0.10000000       0.25000000 </v>
   <v>       0.30000000       0.10000000       0.25000000 </v>
   <v>       0.40000000       0.10000000       0.25000000 </v>
   <v>       0.20000000       0.20000000       0.25000000 </v>
   <v>       0.30000000       0.20000000       0.25000000 </v>
   <v>       0.40000000       0.20000000       0.25000000 </v>
   <v>       0.30000000       0.30000000       0.25000000 </v>
   <v>       0.00000000       0.00000000       0.41666667 </v>
   <v>       0.10000000       0.00000000       0.41666667 </v>
   <v>       0.20000000       0.00000000       0.41666667 </v>
   <v>       0.30000000       0.00000000       0.41666667 </v>
   <v>       0.40000000       0.00000000       0.41666667 </v>
   <v>       0.50000000       0.00000000       0.41666667 </v>
   <v>       0.10000000       0.10000000       0.41666667 </v>
   <v>       0.20000000       0.10000000       0.41666667 </v>
   <v>       0.30000000       0.10000000       0.41666667 </v>
   <v>       0.40000000       0.10000000       0.41666667 </v>
   <v>       0.20000000       0.20000000       0.41666667 </v>
   <v>       0.30000000       0.20000000       0.41666667 </v>
   <v>       0.40000000       0.20000000       0.41666667 </v>
   <v>       0.30000000       0.30000000       0.41666667 </v>
  </varray>
  <varray name="weights" >
   <v>       0.00333333 </v>
   <v>       0.02000000 </v>
   <v>       0.02000000 </v>
   <v>       0.02000000 </v>
   <v>       0.02000000 </v>
   <v>       0.01000000 </v>
   <v>       0.02000000 </v>
   <v>       0.04000000 </v>
   <v>       0.04000000 </v>
   <v>       0.04000000 </v>
   <v>       0.02000000 </v>
   <v>       0.04000000 </v>
   <v>       0.02000000 </v>
   <v>       0.02000000 </v>
   <v>       0.00333333 </v>
   <v>       0.02000000 </v>
   <v>       0.02000000 </v>
   <v>       0.02000000 </v>
   <v>       0.02000000 </v>
   <v>       0.01000000 </v>
   <v>       0.02000000 </v>
   <v>       0.04000000 </v>
   <v>       0.04000000 </v>
   <v>       0.04000000 </v>
   <v>       0.02000000 </v>
   <v>       0.04000000 </v>
   <v>       0.02000000 </v>
   <v>       0.02000000 </v>
   <v>       0.00333333 </v>
   <v>       0.02000000 </v>
   <v>       0.02000000 </v>
   <v>       0.02000000 </v>
   <v>       0.02000000 </v>
   <v>       0.01000000 </v>
   <v>       0.02000000 </v>
   <v>       0.04000000 </v>
   <v>       0.04000000 </v>
   <v>       0.04000000 </v>
   <v>       0.02000000 </v>
   <v>       0.04000000 </v>
   <v>       0.02000000 </v>
   <v>       0.02000000 </v>
  </varray>
  <varray name="tetrahedronlist"  type="int" >
   <v type="int" >        8       24       26       27       41 </v>
   <v type="int" >        4       24       24       27       41 </v>
   <v type="int" >        4       24       24       38       41 </v>
   <v type="int" >        4       24       26       40       41 </v>
   <v type="int" >        8       24       38       40       41 </v>
   <v type="int" >        8       24       38       38       41 </v>
   <v type="int" >        8       16       17       21       35 </v>
   <v type="int" >        4       16       16       21       35 </v>
   <v type="int" >        4       16       16       30       35 </v>
   <v type="int" >        4       16       17       31       35 </v>
   <v type="int" >        8       16       30       31       35 </v>
   <v type="int" >        8       16       30       30       35 </v>
   <v type="int" >        4       26       26       28       42 </v>
   <v type="int" >        8       26       27       28       42 </v>
   <v type="int" >        4       26       27       41       42 </v>
   <v type="int" >        4       26       26       40       42 </v>
   <v type="int" >        8       26       40       40       42 </v>
   <v type="int" >        8       26       40       41       42 </v>
   <v type="int" >        8       17       18       22       36 </v>
   <v type="int" >        8       17       21       22       36 </v>
   <v type="int" >        4       17       21       35       36 </v>
   <v type="int" >        4       17       18       32       36 </v>
   <v type="int" >        8       17       31       32       36 </v>
   <v type="int" >        8       17       31       35       36 </v>
   <v type="int" >        8       26       27       28       41 </v>
   <v type="int" >        4       26       28       41       42 </v>
   <v type="int" >        4       24       26       38       41 </v>
   <v type="int" >        8       26       38       40       41 </v>
   <v type="int" >        8       18       19       23       37 </v>
   <v type="int" >        8       18       22       23       37 </v>
   <v type="int" >        4       18       22       36       37 </v>
   <v type="int" >        4       18       19       33       37 </v>
   <v type="int" >        8       18       32       33       37 </v>
   <v type="int" >        8       18       32       36       37 </v>
   <v type="int" >        8       20       24       24       38 </v>
   <v type="int" >        8       24       24       27       38 </v>
   <v type="int" >        4       24       27       38       41 </v>
   <v type="int" >        4       20       24       34       38 </v>
   <v type="int" >        8       24       34       38       38 </v>
   <v type="int" >        8       19       20       24       38 </v>
   <v type="int" >        8       19       23       24       38 </v>
   <v type="int" >        4       19       23       37       38 </v>
   <v type="int" >        4       19       20       34       38 </v>
   <v type="int" >        8       19       33       34       38 </v>
   <v type="int" >        8       19       33       37       38 </v>
   <v type="int" >        8       19       20       24       33 </v>
   <v type="int" >        4       20       24       33       38 </v>
   <v type="int" >        8       20       33       34       38 </v>
   <v type="int" >        4       20       24       38       38 </v>
   <v type="int" >        4       19       20       33       38 </v>
   <v type="int" >        4       20       34       38       38 </v>
   <v type="int" >        8       23       24       26       37 </v>
   <v type="int" >        8       19       23       24       37 </v>
   <v type="int" >        4       19       24       33       37 </v>
   <v type="int" >        4       24       26       37       40 </v>
   <v type="int" >        8       24       37       38       40 </v>
   <v type="int" >        8       24       33       37       38 </v>
   <v type="int" >        4       19       24       37       38 </v>
   <v type="int" >        4       18       19       32       37 </v>
   <v type="int" >        8       19       32       33       37 </v>
   <v type="int" >        4       25       26       26       39 </v>
   <v type="int" >        8       23       25       26       39 </v>
   <v type="int" >        4       23       26       37       39 </v>
   <v type="int" >        4       26       26       39       40 </v>
   <v type="int" >        8       26       39       40       40 </v>
   <v type="int" >        8       26       37       39       40 </v>
   <v type="int" >        8       18       22       23       36 </v>
   <v type="int" >        4       18       23       36       37 </v>
   <v type="int" >        4       17       18       31       36 </v>
   <v type="int" >        8       18       31       32       36 </v>
   <v type="int" >        8       23       25       26       37 </v>
   <v type="int" >        4       25       26       37       39 </v>
   <v type="int" >        4       24       26       37       38 </v>
   <v type="int" >        8       26       37       38       40 </v>
   <v type="int" >        8       17       21       22       35 </v>
   <v type="int" >        4       17       22       35       36 </v>
   <v type="int" >        4       16       17       30       35 </v>
   <v type="int" >        8       17       30       31       35 </v>
   <v type="int" >        8       19       23       24       33 </v>
   <v type="int" >        4       23       24       33       37 </v>
   <v type="int" >        4       20       24       33       34 </v>
   <v type="int" >        8       24       33       34       38 </v>
   <v type="int" >        8       15       16       16       30 </v>
   <v type="int" >        8       16       16       21       30 </v>
   <v type="int" >        4       16       21       30       35 </v>
   <v type="int" >        4       15       16       29       30 </v>
   <v type="int" >        8       16       29       30       30 </v>
   <v type="int" >        4       15       16       30       30 </v>
   <v type="int" >        4       15       29       30       30 </v>
   <v type="int" >       12       38       40       40       41 </v>
   <v type="int" >       12       37       38       40       40 </v>
   <v type="int" >       12       37       37       38       40 </v>
   <v type="int" >       12       38       40       41       41 </v>
   <v type="int" >       12       38       38       40       41 </v>
   <v type="int" >       12       37       38       38       40 </v>
   <v type="int" >       12       30       31       31       35 </v>
   <v type="int" >       12       30       31       35       35 </v>
   <v type="int" >       12       30       30       31       35 </v>
   <v type="int" >       12       41       42       42       42 </v>
   <v type="int" >       12       40       41       42       42 </v>
   <v type="int" >       12       40       40       41       42 </v>
   <v type="int" >        6       41       41       42       42 </v>
   <v type="int" >       12       40       41       41       42 </v>
   <v type="int" >       12       35       36       36       36 </v>
   <v type="int" >       12       31       35       36       36 </v>
   <v type="int" >       12       31       31       35       36 </v>
   <v type="int" >        6       35       35       36       36 </v>
   <v type="int" >       12       31       35       35       36 </v>
   <v type="int" >        6       42       42       42       42 </v>
   <v type="int" >       12       36       37       39       39 </v>
   <v type="int" >        6       36       36       39       39 </v>
   <v type="int" >       12       36       36       36       39 </v>
   <v type="int" >       12       36       37       37       39 </v>
   <v type="int" >       12       36       36       37       39 </v>
   <v type="int" >       12       37       39       40       40 </v>
   <v type="int" >       12       37       39       39       40 </v>
   <v type="int" >       12       37       37       39       40 </v>
   <v type="int" >       12       33       37       37       38 </v>
   <v type="int" >       12       33       33       37       38 </v>
   <v type="int" >       12       33       37       38       38 </v>
   <v type="int" >        6       38       38       41       41 </v>
   <v type="int" >       12       38       38       38       41 </v>
   <v type="int" >       12       32       32       33       37 </v>
   <v type="int" >       12       32       33       37       37 </v>
   <v type="int" >       12       32       33       33       37 </v>
   <v type="int" >       12       32       36       36       37 </v>
   <v type="int" >       12       32       32       36       37 </v>
   <v type="int" >       12       32       36       37       37 </v>
   <v type="int" >        6       30       30       35       35 </v>
   <v type="int" >       12       30       30       30       35 </v>
   <v type="int" >        8       25       37       39       40 </v>
   <v type="int" >        8       25       36       37       39 </v>
   <v type="int" >        4       22       25       36       37 </v>
   <v type="int" >        4       25       26       37       40 </v>
   <v type="int" >        8       22       23       25       37 </v>
   <v type="int" >        8       22       31       35       36 </v>
   <v type="int" >        8       22       35       36       36 </v>
   <v type="int" >        4       22       22       35       36 </v>
   <v type="int" >        4       17       22       31       35 </v>
   <v type="int" >        4       21       22       22       35 </v>
   <v type="int" >        4       25       26       39       40 </v>
   <v type="int" >        4       26       28       40       42 </v>
   <v type="int" >        8       26       26       28       40 </v>
   <v type="int" >        8       25       26       26       40 </v>
   <v type="int" >        4       18       22       31       36 </v>
   <v type="int" >        8       17       18       22       31 </v>
   <v type="int" >        4       27       41       42       42 </v>
   <v type="int" >        8       27       40       41       42 </v>
   <v type="int" >        4       26       27       40       42 </v>
   <v type="int" >        4       27       28       42       42 </v>
   <v type="int" >        8       27       28       28       42 </v>
   <v type="int" >        8       23       36       37       39 </v>
   <v type="int" >        8       23       32       36       37 </v>
   <v type="int" >        4       18       23       32       36 </v>
   <v type="int" >        4       23       25       36       39 </v>
   <v type="int" >        8       22       23       25       36 </v>
   <v type="int" >        4       25       39       40       40 </v>
   <v type="int" >        4       25       26       40       40 </v>
   <v type="int" >        4       23       25       37       40 </v>
   <v type="int" >        8       23       25       26       40 </v>
   <v type="int" >        8       28       40       41       42 </v>
   <v type="int" >        4       28       40       40       42 </v>
   <v type="int" >        4       26       28       40       40 </v>
   <v type="int" >        4       27       28       40       41 </v>
   <v type="int" >        8       26       27       28       40 </v>
   <v type="int" >        8       22       32       36       37 </v>
   <v type="int" >        8       22       36       37       39 </v>
   <v type="int" >        4       22       25       37       39 </v>
   <v type="int" >        4       18       22       32       37 </v>
   <v type="int" >        8       28       41       42       42 </v>
   <v type="int" >        4       28       28       41       42 </v>
   <v type="int" >        4       26       28       40       41 </v>
   <v type="int" >        4       27       28       28       41 </v>
   <v type="int" >        4       17       22       32       36 </v>
   <v type="int" >        8       17       18       22       32 </v>
   <v type="int" >        4       21       35       36       36 </v>
   <v type="int" >        8       21       31       35       36 </v>
   <v type="int" >        4       17       21       31       36 </v>
   <v type="int" >        4       21       22       36       36 </v>
   <v type="int" >        8       21       22       22       36 </v>
   <v type="int" >        8       23       37       39       40 </v>
   <v type="int" >        4       23       26       39       40 </v>
   <v type="int" >        4       22       23       36       39 </v>
   <v type="int" >        8       22       23       25       39 </v>
   <v type="int" >        8       22       31       32       36 </v>
   <v type="int" >        4       17       22       31       32 </v>
   <v type="int" >        4       22       23       32       37 </v>
   <v type="int" >        8       18       22       23       32 </v>
   <v type="int" >        4       18       22       31       32 </v>
   <v type="int" >        4       21       22       31       35 </v>
   <v type="int" >        8       17       21       22       31 </v>
   <v type="int" >        8        8       22       22       25 </v>
   <v type="int" >        8        8       21       22       22 </v>
   <v type="int" >        4        7        8       21       22 </v>
   <v type="int" >        4        8       11       22       25 </v>
   <v type="int" >        8        8        8       11       22 </v>
   <v type="int" >        8        7        8        8       22 </v>
   <v type="int" >        4       11       22       22       25 </v>
   <v type="int" >        8       11       22       23       25 </v>
   <v type="int" >        4        9       11       22       23 </v>
   <v type="int" >        4        8       11       22       22 </v>
   <v type="int" >        8        8        9       11       22 </v>
   <v type="int" >        8        9       23       25       26 </v>
   <v type="int" >        8        9       22       23       25 </v>
   <v type="int" >        4        8        9       22       25 </v>
   <v type="int" >        4        9       12       25       26 </v>
   <v type="int" >        8        9       11       12       25 </v>
   <v type="int" >        8        8        9       11       25 </v>
   <v type="int" >        8        9       18       22       23 </v>
   <v type="int" >        4        9       11       22       25 </v>
   <v type="int" >        4        4        9       18       22 </v>
   <v type="int" >        8        4        8        9       22 </v>
   <v type="int" >        8       10       24       26       27 </v>
   <v type="int" >        8       10       23       24       26 </v>
   <v type="int" >        4        9       10       23       26 </v>
   <v type="int" >        4       10       13       26       27 </v>
   <v type="int" >        8       10       12       13       26 </v>
   <v type="int" >        8        9       10       12       26 </v>
   <v type="int" >        8        5       18       19       23 </v>
   <v type="int" >        4        5        9       18       23 </v>
   <v type="int" >        8        4        5        9       18 </v>
   <v type="int" >        8       10       24       24       27 </v>
   <v type="int" >        4       10       10       24       27 </v>
   <v type="int" >        4       10       12       26       27 </v>
   <v type="int" >        8       10       12       13       27 </v>
   <v type="int" >        4       10       10       13       27 </v>
   <v type="int" >        8       10       19       23       24 </v>
   <v type="int" >        4        5       10       19       23 </v>
   <v type="int" >        4       10       12       23       26 </v>
   <v type="int" >        8        9       10       12       23 </v>
   <v type="int" >        8        5        9       10       23 </v>
   <v type="int" >        8        9       23       24       26 </v>
   <v type="int" >        4        9       10       24       26 </v>
   <v type="int" >        4        9       11       25       26 </v>
   <v type="int" >        8        9       11       12       26 </v>
   <v type="int" >        8       13       26       27       28 </v>
   <v type="int" >        8       13       24       26       27 </v>
   <v type="int" >        4       10       13       24       26 </v>
   <v type="int" >        4       13       14       26       28 </v>
   <v type="int" >        8       12       13       14       26 </v>
   <v type="int" >        8        8       22       23       25 </v>
   <v type="int" >        4        8        9       23       25 </v>
   <v type="int" >        4        8        8       22       25 </v>
   <v type="int" >        4        8        8       11       25 </v>
   <v type="int" >        4       14       28       28       28 </v>
   <v type="int" >        8       14       27       28       28 </v>
   <v type="int" >        4       13       14       27       28 </v>
   <v type="int" >        4       14       14       28       28 </v>
   <v type="int" >        4       14       14       14       28 </v>
   <v type="int" >        8       13       14       14       28 </v>
   <v type="int" >        8        7       17       21       22 </v>
   <v type="int" >        4        7       21       22       22 </v>
   <v type="int" >        4        7        8       22       22 </v>
   <v type="int" >        4        3        7       17       22 </v>
   <v type="int" >        8        3        7        8       22 </v>
   <v type="int" >        4       13       27       28       28 </v>
   <v type="int" >        4       13       14       28       28 </v>
   <v type="int" >        4       12       13       26       28 </v>
   <v type="int" >        8       12       13       14       28 </v>
   <v type="int" >        8        2       16       17       21 </v>
   <v type="int" >        4        2        7       17       21 </v>
   <v type="int" >        8        2        3        7       17 </v>
   <v type="int" >        8        2       16       16       21 </v>
   <v type="int" >        4        2        2       16       21 </v>
   <v type="int" >        4        2        3       17       21 </v>
   <v type="int" >        8        2        3        7       21 </v>
   <v type="int" >        4        2        2        7       21 </v>
   <v type="int" >        8        5       19       23       24 </v>
   <v type="int" >        4        5       10       23       24 </v>
   <v type="int" >        4        4        5       18       23 </v>
   <v type="int" >        8        4        5        9       23 </v>
   <v type="int" >        8        7       16       17       21 </v>
   <v type="int" >        4        2        7       16       17 </v>
   <v type="int" >        4        7        8       17       22 </v>
   <v type="int" >        8        3        7        8       17 </v>
   <v type="int" >        8        9       18       19       23 </v>
   <v type="int" >        4        5        9       18       19 </v>
   <v type="int" >        4        8        9       18       22 </v>
   <v type="int" >        8        4        8        9       18 </v>
   <v type="int" >       12        3        3        7        8 </v>
   <v type="int" >       12        2        3        3        7 </v>
   <v type="int" >       12        2        2        3        7 </v>
   <v type="int" >       12        3        7        8        8 </v>
   <v type="int" >       12        3        7        7        8 </v>
   <v type="int" >       12        2        3        7        7 </v>
   <v type="int" >       12        9       11       12       12 </v>
   <v type="int" >       12        9       10       12       12 </v>
   <v type="int" >       12        9       10       10       12 </v>
   <v type="int" >       12        9       11       11       12 </v>
   <v type="int" >       12        9        9       11       12 </v>
   <v type="int" >       12        9        9       10       12 </v>
   <v type="int" >       12        4        4        8        9 </v>
   <v type="int" >       12        3        4        4        8 </v>
   <v type="int" >       12        3        3        4        8 </v>
   <v type="int" >       12        4        8        9        9 </v>
   <v type="int" >       12        4        8        8        9 </v>
   <v type="int" >       12        3        4        8        8 </v>
   <v type="int" >       12       11       12       12       12 </v>
   <v type="int" >        6       11       11       12       12 </v>
   <v type="int" >       12        5        5        9       10 </v>
   <v type="int" >       12        4        5        5        9 </v>
   <v type="int" >       12        4        4        5        9 </v>
   <v type="int" >       12        5        9       10       10 </v>
   <v type="int" >       12        5        9        9       10 </v>
   <v type="int" >       12        4        5        9        9 </v>
   <v type="int" >        6        6        6       10       10 </v>
   <v type="int" >       12        5        6        6       10 </v>
   <v type="int" >       12        5        5        6       10 </v>
   <v type="int" >       12        6       10       10       10 </v>
   <v type="int" >       12        5        6       10       10 </v>
   <v type="int" >       12       10       10       10       13 </v>
   <v type="int" >        6       10       10       13       13 </v>
   <v type="int" >       12       12       12       13       14 </v>
   <v type="int" >       12       10       12       12       13 </v>
   <v type="int" >       12       10       10       12       13 </v>
   <v type="int" >       12       12       13       14       14 </v>
   <v type="int" >       12       12       13       13       14 </v>
   <v type="int" >       12       10       12       13       13 </v>
   <v type="int" >       12       12       12       12       14 </v>
   <v type="int" >        6       12       12       14       14 </v>
   <v type="int" >       12        2        2        2        7 </v>
   <v type="int" >        6        2        2        7        7 </v>
   <v type="int" >        6        1        1        2        2 </v>
   <v type="int" >       12        1        2        2        2 </v>
   <v type="int" >        8        3        4        8       22 </v>
   <v type="int" >        4        3        7       21       22 </v>
   <v type="int" >        4        3        4       18       22 </v>
   <v type="int" >        8        3       17       18       22 </v>
   <v type="int" >        8        3       17       21       22 </v>
   <v type="int" >        4       12       12       14       28 </v>
   <v type="int" >        4       12       13       27       28 </v>
   <v type="int" >        4       12       12       26       28 </v>
   <v type="int" >        8       12       26       26       28 </v>
   <v type="int" >        8       12       26       27       28 </v>
   <v type="int" >        8        4        8        9       23 </v>
   <v type="int" >        4        4        8       22       23 </v>
   <v type="int" >        4        4        5       19       23 </v>
   <v type="int" >        8        4       18       19       23 </v>
   <v type="int" >        8        4       18       22       23 </v>
   <v type="int" >        8       12       13       14       27 </v>
   <v type="int" >        4       12       14       27       28 </v>
   <v type="int" >        4       10       12       24       27 </v>
   <v type="int" >        8       12       24       26       27 </v>
   <v type="int" >        8        5        6       10       24 </v>
   <v type="int" >        8        5        9       10       24 </v>
   <v type="int" >        4        5        9       23       24 </v>
   <v type="int" >        4        5        6       20       24 </v>
   <v type="int" >        8        5       19       20       24 </v>
   <v type="int" >        8        6       10       10       24 </v>
   <v type="int" >        8       10       10       13       24 </v>
   <v type="int" >        4       10       13       24       27 </v>
   <v type="int" >        4        6       10       20       24 </v>
   <v type="int" >        8       10       20       24       24 </v>
   <v type="int" >        4        6       10       24       24 </v>
   <v type="int" >        4        5        6       19       24 </v>
   <v type="int" >        8        6       19       20       24 </v>
   <v type="int" >        4        6       20       24       24 </v>
   <v type="int" >        8        5        6       10       19 </v>
   <v type="int" >        4        6       10       19       24 </v>
   <v type="int" >        4        4        9       22       23 </v>
   <v type="int" >        4        3        4       17       22 </v>
   <v type="int" >        8        4       17       18       22 </v>
   <v type="int" >        4       11       12       12       25 </v>
   <v type="int" >        4        9       12       23       25 </v>
   <v type="int" >        4       12       12       25       26 </v>
   <v type="int" >        8       12       25       26       26 </v>
   <v type="int" >        8       12       23       25       26 </v>
   <v type="int" >        8        3        7        8       21 </v>
   <v type="int" >        4        3        8       21       22 </v>
   <v type="int" >        4        2        3       16       21 </v>
   <v type="int" >        8        3       16       17       21 </v>
   <v type="int" >        8        9       11       12       23 </v>
   <v type="int" >        4       11       12       23       25 </v>
   <v type="int" >        4       10       12       23       24 </v>
   <v type="int" >        8       12       23       24       26 </v>
   <v type="int" >        8        1        2        2       16 </v>
   <v type="int" >        8        2        2        7       16 </v>
   <v type="int" >        4        2        7       16       21 </v>
   <v type="int" >        4        1        2       15       16 </v>
   <v type="int" >        8        2       15       16       16 </v>
   <v type="int" >        8        5        9       10       19 </v>
   <v type="int" >        4        9       10       19       23 </v>
   <v type="int" >        4        6       10       19       20 </v>
   <v type="int" >        8       10       19       20       24 </v>
   <v type="int" >        4        1        2       16       16 </v>
   <v type="int" >        4        1       15       16       16 </v>
   <v type="int" >        8       16       17       21       31 </v>
   <v type="int" >        4       16       21       31       35 </v>
   <v type="int" >        8       24       26       27       40 </v>
   <v type="int" >        8       23       24       26       40 </v>
   <v type="int" >        4       23       24       37       40 </v>
   <v type="int" >        4       24       27       40       41 </v>
   <v type="int" >        4       22       22       25       39 </v>
   <v type="int" >        4       22       22       36       39 </v>
   <v type="int" >        4       22       23       37       39 </v>
   <v type="int" >        8       22       36       36       39 </v>
   <v type="int" >        4       28       28       28       42 </v>
   <v type="int" >        4       28       28       42       42 </v>
   <v type="int" >        4       27       28       41       42 </v>
   <v type="int" >        4       28       42       42       42 </v>
   <v type="int" >        4       23       25       39       40 </v>
   <v type="int" >        4       23       24       38       40 </v>
   <v type="int" >        8       23       37       38       40 </v>
   <v type="int" >        4       27       28       40       42 </v>
   <v type="int" >        4       24       27       38       40 </v>
   <v type="int" >        8       27       38       40       41 </v>
   <v type="int" >        8       18       19       23       32 </v>
   <v type="int" >        4       19       23       32       37 </v>
   <v type="int" >        8       22       22       25       36 </v>
   <v type="int" >        4       22       25       36       39 </v>
   <v type="int" >        4       21       22       35       36 </v>
   <v type="int" >        4       22       25       36       36 </v>
   <v type="int" >        4       23       25       36       37 </v>
   <v type="int" >        4       25       36       36       39 </v>
   <v type="int" >        4       21       22       31       36 </v>
   <v type="int" >        4       16       21       30       31 </v>
   <v type="int" >        8       21       30       31       35 </v>
   <v type="int" >        4       22       23       32       36 </v>
   <v type="int" >        4       19       23       32       33 </v>
   <v type="int" >        8       23       32       33       37 </v>
   <v type="int" >       12       31       32       32       36 </v>
   <v type="int" >       12       31       32       36       36 </v>
   <v type="int" >       12       31       31       32       36 </v>
   <v type="int" >       12       40       40       40       42 </v>
   <v type="int" >       12       39       40       40       40 </v>
   <v type="int" >        6       39       39       40       40 </v>
   <v type="int" >        6       40       40       42       42 </v>
   <v type="int" >        4        7       16       16       21 </v>
   <v type="int" >        4        2        7       16       16 </v>
   <v type="int" >        4        3        7       16       17 </v>
   <v type="int" >        8        2        3        7       16 </v>
   <v type="int" >        4       13       24       24       27 </v>
   <v type="int" >        4       10       13       24       24 </v>
   <v type="int" >        4       12       13       24       26 </v>
   <v type="int" >        8       10       12       13       24 </v>
   <v type="int" >        8        8       17       18       22 </v>
   <v type="int" >        8        8       17       21       22 </v>
   <v type="int" >        4        7        8       17       21 </v>
   <v type="int" >        4        4        8       17       18 </v>
   <v type="int" >        8        3        4        8       17 </v>
   <v type="int" >        4       14       26       26       28 </v>
   <v type="int" >        8       14       26       27       28 </v>
   <v type="int" >        4       13       14       26       27 </v>
   <v type="int" >        4       12       14       26       26 </v>
   <v type="int" >        8       12       12       14       26 </v>
   <v type="int" >        4       10       10       20       24 </v>
   <v type="int" >        4        5       10       19       20 </v>
   <v type="int" >        8        5        6       10       20 </v>
   <v type="int" >        4        6       10       10       20 </v>
   <v type="int" >        4        5       10       20       24 </v>
   <v type="int" >        8        9       19       23       24 </v>
   <v type="int" >        4        9       10       19       24 </v>
   <v type="int" >        4        4        9       18       19 </v>
   <v type="int" >        8        4        5        9       19 </v>
   <v type="int" >        4        5        9       19       24 </v>
   <v type="int" >        4        9       12       24       26 </v>
   <v type="int" >        8        9       10       12       24 </v>
   <v type="int" >        8        8       18       22       23 </v>
   <v type="int" >        4        8        9       18       23 </v>
   <v type="int" >        4        3        8       17       18 </v>
   <v type="int" >        8        3        4        8       18 </v>
   <v type="int" >        4       11       25       26       26 </v>
   <v type="int" >        8       11       23       25       26 </v>
   <v type="int" >        4        9       11       23       26 </v>
   <v type="int" >        4       11       12       26       26 </v>
   <v type="int" >        8       11       12       12       26 </v>
   <v type="int" >        4        2        2       15       16 </v>
   <v type="int" >        4        1        2        2       15 </v>
   <v type="int" >       12        7        8        8        8 </v>
   <v type="int" >        6        7        7        8        8 </v>
   <v type="int" >       12       13       14       14       14 </v>
   <v type="int" >        6       13       13       14       14 </v>
   <v type="int" >       12        8        9       11       11 </v>
   <v type="int" >        6        8        8       11       11 </v>
   <v type="int" >       12        8        8        8       11 </v>
   <v type="int" >       12        8        9        9       11 </v>
   <v type="int" >       12        8        8        9       11 </v>
   <v type="int" >        6       14       14       14       14 </v>
   <v type="int" >        4        3        8       18       22 </v>
   <v type="int" >        4       11       12       25       26 </v>
   <v type="int" >        4       12       14       26       28 </v>
   <v type="int" >        8        8        9       11       23 </v>
   <v type="int" >        4        4        8       18       23 </v>
   <v type="int" >        4        8       11       23       25 </v>
   <v type="int" >        4       13       14       14       27 </v>
   <v type="int" >        4       12       14       26       27 </v>
   <v type="int" >        4       14       14       27       28 </v>
   <v type="int" >        4        4        8       17       22 </v>
   <v type="int" >        4       11       12       23       26 </v>
   <v type="int" >        4        8       11       22       23 </v>
   <v type="int" >        4        7        8        8       21 </v>
   <v type="int" >        4        3        8       17       21 </v>
   <v type="int" >        4        8        8       21       22 </v>
   <v type="int" >        8       18       19       23       33 </v>
   <v type="int" >        4       18       23       33       37 </v>
   <v type="int" >        8       24       26       27       38 </v>
   <v type="int" >        8       23       24       26       38 </v>
   <v type="int" >        4       23       26       37       38 </v>
   <v type="int" >        4       26       27       38       41 </v>
   <v type="int" >        4       19       23       33       38 </v>
   <v type="int" >        4       23       26       38       40 </v>
   <v type="int" >        8       23       33       37       38 </v>
   <v type="int" >        4       24       27       38       38 </v>
   <v type="int" >        4       26       27       38       40 </v>
   <v type="int" >        4       27       38       38       41 </v>
   <v type="int" >        8       16       17       21       30 </v>
   <v type="int" >        4       17       21       30       35 </v>
   <v type="int" >        4       23       24       33       38 </v>
   <v type="int" >        4       18       23       32       33 </v>
   <v type="int" >        4       16       21       30       30 </v>
   <v type="int" >        4       17       21       30       31 </v>
   <v type="int" >        4       21       30       30       35 </v>
   <v type="int" >       12       33       34       34       38 </v>
   <v type="int" >       12       33       34       38       38 </v>
   <v type="int" >       12       33       33       34       38 </v>
   <v type="int" >        6       34       34       38       38 </v>
   <v type="int" >       12       34       38       38       38 </v>
   <v type="int" >        6       29       29       30       30 </v>
   <v type="int" >       12       29       30       30       30 </v>
   <v type="int" >        4       19       24       34       38 </v>
   <v type="int" >        8       19       20       24       34 </v>
   <v type="int" >        4       24       24       34       38 </v>
   <v type="int" >        4       19       24       33       34 </v>
   <v type="int" >        4       20       24       24       34 </v>
   <v type="int" >        4       16       16       29       30 </v>
   <v type="int" >        4       15       16       16       29 </v>
   <v type="int" >        4        9       12       23       24 </v>
   <v type="int" >        4       12       13       24       27 </v>
   <v type="int" >        4        3        7       16       21 </v>
   <v type="int" >        4        4        9       19       23 </v>
  </varray>
  <i name="volumeweight">      0.00027778 </i>
 </kpoints>
 <parameters>
  <separator name="general" >
   <i type="string" name="SYSTEM">unknown system</i>
   <i type="logical" name="LCOMPAT"> F  </i>
  </separator>
  <separator name="electronic" >
   <i type="string" name="PREC">normal</i>
   <i name="ENMAX">    276.72300000</i>
   <i name="ENAUG">    575.89200000</i>
   <i name="EDIFF">      0.00000100</i>
   <i type="int" name="IALGO">    38</i>
   <i type="int" name="IWAVPR">    11</i>
   <i type="int" name="NBANDS">    22</i>
   <i type="int" name="NBANDSLOW">    -1</i>
   <i type="int" name="NBANDSHIGH">    -1</i>
   <i name="NELECT">     36.00000000</i>
   <i type="int" name="TURBO">     0</i>
   <i type="int" name="IRESTART">     0</i>
   <i type="int" name="NREBOOT">     0</i>
   <i type="int" name="NMIN">     0</i>
   <i name="EREF">      0.00000000</i>
   <separator name="electronic smearing" >
    <i type="int" name="ISMEAR">    -5</i>
    <i name="SIGMA">      0.10000000</i>
    <i name="KSPACING">      0.50000000</i>
    <i type="logical" name="KGAMMA"> T  </i>
    <i type="logical" name="KBLOWUP"> T  </i>
   </separator>
   <separator name="electronic projectors" >
    <i type="logical" name="LREAL"> F  </i>
    <v name="ROPT">      0.00000000      0.00000000</v>
    <i type="int" name="LMAXPAW">  -100</i>
    <i type="int" name="LMAXMIX">     2</i>
    <i type="logical" name="NLSPLINE"> F  </i>
   </separator>
   <separator name="electronic startup" >
    <i type="int" name="ISTART">     0</i>
    <i type="int" name="ICHARG">     2</i>
    <i type="int" name="INIWAV">     1</i>
   </separator>
   <separator name="electronic spin" >
    <i type="int" name="ISPIN">     1</i>
    <i type="logical" name="LNONCOLLINEAR"> F  </i>
    <v name="MAGMOM">      1.00000000      1.00000000      1.00000000      1.00000000</v>
    <i name="NUPDOWN">     -1.00000000</i>
    <i type="logical" name="LSORBIT"> F  </i>
    <v name="SAXIS">      0.00000000      0.00000000      1.00000000</v>
    <i type="logical" name="LSPIRAL"> F  </i>
    <v name="QSPIRAL">      0.00000000      0.00000000      0.00000000</v>
    <i type="logical" name="LZEROZ"> F  </i>
   </separator>
   <separator name="electronic exchange-correlation" >
    <i type="logical" name="LASPH"> T  </i>
   </separator>
   <separator name="electronic convergence" >
    <i type="int" name="NELM">   100</i>
    <i type="int" name="NELMDL">    -5</i>
    <i type="int" name="NELMIN">     2</i>
    <i name="ENINI">    276.72300000</i>
    <separator name="electronic convergence detail" >
     <i type="logical" name="LDIAG"> T  </i>
     <i type="logical" name="LSUBROT"> F  </i>
     <i type="logical" name="LROBUST"> F  </i>
     <i type="int" name="ISEARCH">     0</i>
     <i name="WEIMIN">      0.00100000</i>
     <i name="EBREAK">      0.00000001</i>
     <i name="DEPER">      0.30000000</i>
     <i type="int" name="NRMM">     4</i>
     <i name="TIME">      0.40000000</i>
    </separator>
   </separator>
   <separator name="electronic mixer" >
    <i name="AMIX">      0.40000000</i>
    <i name="BMIX">      1.00000000</i>
    <i name="AMIN">      0.10000000</i>
    <i name="AMIX_MAG">      1.60000000</i>
    <i name="BMIX_MAG">      1.00000000</i>
    <separator name="electronic mixer details" >
     <i type="int" name="IMIX">     4</i>
     <i type="logical" name="MIXFIRST"> F  </i>
     <i type="int" name="MAXMIX">   -45</i>
     <i name="WC">    100.00000000</i>
     <i type="int" name="INIMIX">     1</i>
     <i type="int" name="MIXPRE">     1</i>
     <i type="int" name="MREMOVE">     5</i>
    </separator>
   </separator>
   <separator name="electronic dipolcorrection" >
    <i type="logical" name="LDIPOL"> F  </i>
    <i type="logical" name="LMONO"> F  </i>
    <i type="int" name="IDIPOL">     0</i>
    <i name="EPSILON">      1.00000000</i>
    <v name="DIPOL">   -100.00000000   -100.00000000   -100.00000000</v>
    <i name="EFIELD">      0.00000000</i>
    <i type="logical" name="LVACPOTAV"> F  </i>
   </separator>
  </separator>
  <separator name="grids" >
   <i type="int" name="NGX">    16</i>
   <i type="int" name="NGY">    16</i>
   <i type="int" name="NGZ">    28</i>
   <i type="int" name="NGXF">    32</i>
   <i type="int" name="NGYF">    32</i>
   <i type="int" name="NGZF">    56</i>
   <i type="logical" name="ADDGRID"> F  </i>
  </separator>
  <separator name="ionic" >
   <i type="int" name="NSW">     1</i>
   <i type="int" name="IBRION">     8</i>
   <i type="int" name="MDALGO">     0</i>
   <i type="int" name="ISIF">     0</i>
   <i name="PSTRESS">      0.00000000</i>
   <i name="EDIFFG">      0.00001000</i>
   <i type="int" name="NFREE">     0</i>
   <i name="POTIM">      0.50000000</i>
   <i name="SMASS">     -3.00000000</i>
   <i name="SCALEE">      1.00000000</i>
  </separator>
  <separator name="ionic md" >
   <i name="TEBEG">      0.00010000</i>
   <i name="TEEND">      0.00010000</i>
   <i type="int" name="NBLOCK">     1</i>
   <i type="int" name="KBLOCK">     1</i>
   <i type="int" name="NPACO">   256</i>
   <i name="APACO">     10.00000000</i>
  </separator>
  <separator name="symmetry" >
   <i type="int" name="ISYM">     2</i>
   <i name="SYMPREC">      0.00001000</i>
  </separator>
  <separator name="dos" >
   <i type="int" name="LORBIT">    10</i>
   <v name="RWIGS">     -1.00000000     -1.00000000</v>
   <i type="int" name="NEDOS">   301</i>
   <i name="EMIN">     10.00000000</i>
   <i name="EMAX">    -10.00000000</i>
   <i name="EFERMI">      0.00000000</i>
  </separator>
  <separator name="writing" >
   <i type="int" name="NWRITE">     2</i>
   <i type="logical" name="LWAVE"> F  </i>
   <i type="logical" name="LDOWNSAMPLE"> F  </i>
   <i type="logical" name="LCHARG"> F  </i>
   <i type="logical" name="LPARD"> F  </i>
   <i type="logical" name="LVTOT"> F  </i>
   <i type="logical" name="LVHAR"> F  </i>
   <i type="logical" name="LELF"> F  </i>
   <i type="logical" name="LOPTICS"> F  </i>
   <v name="STM">      0.00000000      0.00000000      0.00000000      0.00000000      0.00000000      0.00000000      0.00000000</v>
  </separator>
  <separator name="performance" >
   <i type="int" name="NPAR">     1</i>
   <i type="int" name="NSIM">     4</i>
   <i type="int" name="NBLK">    -1</i>
   <i type="logical" name="LPLANE"> T  </i>
   <i type="logical" name="LSCALAPACK"> T  </i>
   <i type="logical" name="LSCAAWARE"> F  </i>
   <i type="logical" name="LSCALU"> F  </i>
   <i type="logical" name="LASYNC"> F  </i>
   <i type="logical" name="LORBITALREAL"> F  </i>
  </separator>
  <separator name="miscellaneous" >
   <i type="int" name="IDIOT">     3</i>
   <i type="int" name="PHON_NSTRUCT">    -1</i>
   <i type="logical" name="LMUSIC"> F  </i>
   <v name="POMASS">     65.39000000     32.06600000</v>
   <v name="DARWINR">      0.00000000      0.00000000</v>
   <v name="DARWINV">      1.00000000      1.00000000</v>
   <i type="logical" name="LCORR"> T  </i>
  </separator>
  <i type="logical" name="GGA_COMPAT"> T  </i>
  <i type="logical" name="LBERRY"> F  </i>
  <i type="int" name="ICORELEVEL">     0</i>
  <i type="logical" name="LDAU"> F  </i>
  <i type="int" name="I_CONSTRAINED_M">     0</i>
  <separator name="electronic exchange-correlation" >
   <i type="string" name="GGA    ">PS</i>
   <i type="string" name="XC_C">1</i>
   <i type="int" name="VOSKOWN">     0</i>
   <i type="logical" name="LHFCALC"> F  </i>
   <i type="string" name="PRECFOCK"></i>
   <i type="logical" name="LSYMGRAD"> F  </i>
   <i type="logical" name="LHFONE"> F  </i>
   <i type="logical" name="LRHFCALC"> F  </i>
   <i type="logical" name="LTHOMAS"> F  </i>
   <i type="logical" name="LMODELHF"> F  </i>
   <i type="logical" name="LFOCKACE"> F  </i>
   <i name="ENCUT4O">     -1.00000000</i>
   <i type="int" name="EXXOEP">     0</i>
   <i type="int" name="FOURORBIT">     0</i>
   <i name="AEXX">      0.00000000</i>
   <i name="HFALPHA">      0.00000000</i>
   <i name="MCALPHA">      0.00000000</i>
   <i name="ALDAX">      1.00000000</i>
   <i name="AGGAX">      1.00000000</i>
   <i name="AMGGAX">      1.00000000</i>
   <i name="ALDAC">      1.00000000</i>
   <i name="AGGAC">      1.00000000</i>
   <i name="AMGGAC">      1.00000000</i>
   <i type="int" name="NKREDX">     1</i>
   <i type="int" name="NKREDY">     1</i>
   <i type="int" name="NKREDZ">     1</i>
   <i type="logical" name="SHIFTRED"> F  </i>
   <i type="logical" name="ODDONLY"> F  </i>
   <i type="logical" name="EVENONLY"> F  </i>
   <i type="int" name="LMAXFOCK">     0</i>
   <i type="int" name="NMAXFOCKAE">     0</i>
   <i type="logical" name="LFOCKAEDFT"> F  </i>
   <i name="HFSCREEN">      0.00000000</i>
   <i name="HFSCREENC">      0.00000000</i>
   <i type="int" name="NBANDSGWLOW">     0</i>
  </separator>
  <separator name="vdW DFT" >
   <i type="logical" name="LUSE_VDW"> F  </i>
   <i type="int" name="IVDW_NL">    -1</i>
   <i type="logical" name="LSPIN_VDW"> F  </i>
   <i name="ZAB_VDW">     -0.84910000</i>
   <i name="GAMMA_VDW">      1.39626340</i>
   <i name="ALPHA_VDW">      0.00000000</i>
   <i name="PARAM1">      0.12340000</i>
   <i name="PARAM2">      1.00000000</i>
   <i name="BPARAM">      6.30000000</i>
   <i name="CPARAM">      0.00930000</i>
  </separator>
  <separator name="model GW" >
   <i type="int" name="MODEL_GW">     0</i>
   <i name="MODEL_EPS0">     11.52642926</i>
   <i name="MODEL_ALPHA">      1.00000000</i>
  </separator>
  <separator name="linear response parameters" >
   <i type="logical" name="LEPSILON"> T  </i>
   <i type="logical" name="LRPA"> F  </i>
   <i type="logical" name="LNABLA"> F  </i>
   <i type="logical" name="LVEL"> F  </i>
   <i name="CSHIFT">      0.10000000</i>
   <i name="OMEGAMAX">     -1.00000000</i>
   <i name="DEG_THRESHOLD">      0.00200000</i>
   <i name="RTIME">     -0.10000000</i>
   <i name="WPLASMAI">      0.00000000</i>
   <v name="DFIELD">      0.00000000      0.00000000      0.00000000</v>
   <v name="WPLASMA">      0.00000000      0.00000000      0.00000000      0.00000000      0.00000000      0.00000000      0.00000000      0.00000000      0.00000000</v>
  </separator>
  <separator name="orbital magnetization" >
   <i type="logical" name="NUCIND"> F  </i>
   <v name="MAGPOS">      0.00000000      0.00000000      0.00000000</v>
   <i type="logical" name="LNICSALL"> T  </i>
   <i type="logical" name="ORBITALMAG"> F  </i>
   <i type="logical" name="LMAGBLOCH"> F  </i>
   <i type="logical" name="LCHIMAG"> F  </i>
   <i type="logical" name="LGAUGE"> T  </i>
   <i type="int" name="MAGATOM">     0</i>
   <v name="MAGDIPOL">      0.00000000      0.00000000      0.00000000</v>
   <v name="AVECCONST">      0.00000000      0.00000000      0.00000000</v>
  </separator>
  <separator name="response functions" >
   <i type="logical" name="LALL_IN_ONE"> F  </i>
   <i type="int" name="IALL_IN_ONE">    -1</i>
   <i type="int" name="NBANDS_WAVE">    -1</i>
   <i type="logical" name="LFINITE_TEMPERATURE"> F  </i>
   <i type="logical" name="LADDER"> F  </i>
   <i type="logical" name="LRPAFORCE"> F  </i>
   <i type="logical" name="LFXC"> F  </i>
   <i type="logical" name="LHARTREE"> T  </i>
   <i type="int" name="IBSE">     2</i>
   <v type="int" name="KPOINT">    -1     0     0     0</v>
   <i type="logical" name="LTCTC"> F  </i>
   <i type="logical" name="LTCTE"> F  </i>
   <i type="logical" name="LTETE"> F  </i>
   <i type="logical" name="LTRIPLET"> F  </i>
   <i type="logical" name="LFXCEPS"> F  </i>
   <i type="logical" name="LFXHEG"> F  </i>
   <i type="int" name="NATURALO">     2</i>
   <i type="logical" name="LHOLEGF"> F  </i>
   <i type="logical" name="L2ORDER"> F  </i>
   <i type="logical" name="LDMP1"> F  </i>
   <i type="logical" name="LMP2LT"> F  </i>
   <i type="logical" name="LSMP2LT"> F  </i>
   <i type="logical" name="LGWLF"> F  </i>
   <i name="ENCUTGW">     -1.60000002</i>
   <i name="ENCUTGWSOFT">     -1.60000002</i>
   <i name="ENCUTLF">     -1.00000000</i>
   <i type="logical" name="ESF_SPLINES"> F  </i>
   <i name="ESF_CONV">      0.01000000</i>
   <i type="int" name="ESF_NINTER">    15</i>
   <i type="int" name="LMAXMP2">    -1</i>
   <i name="SCISSOR">      0.00000000</i>
   <i type="int" name="NOMEGA">     0</i>
   <i type="int" name="NOMEGAR">     0</i>
   <i type="int" name="NBANDSGW">    -1</i>
   <i type="int" name="NBANDSO">    -1</i>
   <i type="int" name="NBANDSV">    -1</i>
   <i type="int" name="NELMGW">     1</i>
   <i type="int" name="NELMHF">     1</i>
   <i type="int" name="DIM">     3</i>
   <i type="int" name="IESPILON">     4</i>
   <i type="int" name="ANTIRES">     0</i>
   <i name="OMEGAMAX">    -30.00000000</i>
   <i name="OMEGAMIN">    -30.00000000</i>
   <i name="OMEGATL">   -200.00000000</i>
   <i type="int" name="OMEGAGRID">     0</i>
   <i name="CSHIFT">     -0.10000000</i>
   <i type="logical" name="LSELFENERGY"> F  </i>
   <i type="logical" name="LSPECTRAL"> F  </i>
   <i type="logical" name="LSPECTRALGW"> F  </i>
   <i type="logical" name="LSINGLES"> F  </i>
   <i type="logical" name="LFERMIGW"> F  </i>
   <i type="logical" name="ODDONLYGW"> F  </i>
   <i type="logical" name="EVENONLYGW"> F  </i>
   <i type="int" name="NKREDLFX">     1</i>
   <i type="int" name="NKREDLFY">     1</i>
   <i type="int" name="NKREDLFZ">     1</i>
   <i type="int" name="MAXMEM">  2800</i>
   <i type="int" name="TELESCOPE">     0</i>
   <i type="int" name="NTAUPAR">    -1</i>
   <i type="int" name="NOMEGAPAR">    -1</i>
   <i name="DAMP_NEWTON">      0.80000001</i>
   <i name="LAMBDA">      1.00000000</i>
  </separator>
  <separator name="External order field" >
   <i name="OFIELD_KAPPA">      0.00000000</i>
   <v name="OFIELD_K">      0.00000000      0.00000000      0.00000000</v>
   <i name="OFIELD_Q6_NEAR">      0.00000000</i>
   <i name="OFIELD_Q6_FAR">      0.00000000</i>
   <i name="OFIELD_A">      0.00000000</i>
  </separator>
  <separator name="optional k-points parameters" >
   <i type="int" name="KPOINTS_OPT_MODE">     1</i>
   <i type="logical" name="LKPOINTS_OPT"> F  </i>
  </separator>
 </parameters>
 <atominfo>
  <atoms>       4 </atoms>
  <types>       2 </types>
  <array name="atoms" >
   <dimension dim="1">ion</dimension>
   <field type="string">element</field>
   <field type="int">atomtype</field>
   <set>
    <rc><c>Zn</c><c>   1</c></rc>
    <rc><c>Zn</c><c>   1</c></rc>
    <rc><c>S </c><c>   2</c></rc>
    <rc><c>S </c><c>   2</c></rc>
   </set>
  </array>
  <array name="atomtypes" >
   <dimension dim="1">type</dimension>
   <field type="int">atomspertype</field>
   <field type="string">element</field>
   <field>mass</field>
   <field>valence</field>
   <field type="string">pseudopotential</field>
   <set>
    <rc><c>   2</c><c>Zn</c><c>     65.39000000</c><c>     12.00000000</c><c>  PAW_PBE Zn 06Sep2000                  </c></rc>
    <rc><c>   2</c><c>S </c><c>     32.06600000</c><c>      6.00000000</c><c>  PAW_PBE S 06Sep2000                   </c></rc>
   </set>
  </array>
 </atominfo>
 <structure name="initialpos" >
  <crystal>
   <varray name="basis" >
    <v>       3.78158387       0.00000000       0.00000000 </v>
    <v>      -1.89079194       3.27494770       0.00000000 </v>
    <v>       0.00000000       0.00000000       6.20476623 </v>
   </varray>
   <i name="volume">     76.84286172 </i>
   <varray name="rec_basis" >
    <v>       0.26443946       0.15267419      -0.00000000 </v>
    <v>       0.00000000       0.30534839       0.00000000 </v>
    <v>       0.00000000      -0.00000000       0.16116643 </v>
   </varray>
  </crystal>
  <varray name="positions" >
   <v>       0.66666667       0.33333333       0.50040087 </v>
   <v>       0.33333333       0.66666667       0.00040087 </v>
   <v>       0.66666667       0.33333333       0.87459913 </v>
   <v>       0.33333333       0.66666667       0.37459913 </v>
  </varray>
 </structure>
 <calculation>
  <scstep>
   <time name="dav">    0.66    1.63</time>
   <time name="total">    0.87    1.96</time>
   <energy>
    <i name="alphaZ">    147.15733780 </i>
    <i name="ewald">  -2526.08836804 </i>
    <i name="hartreedc">  -1371.32612577 </i>
    <i name="XCdc">    140.97932143 </i>
    <i name="pawpsdc">   3343.44361914 </i>
    <i name="pawaedc">  -3692.01684003 </i>
    <i name="eentropy">      0.00000000 </i>
    <i name="bandstr">     83.50521305 </i>
    <i name="atom">   4048.05923486 </i>
    <i name="e_fr_energy">    173.71339243 </i>
    <i name="e_wo_entrp">    173.71339243 </i>
    <i name="e_0_energy">    173.71339243 </i>
   </energy>
  </scstep>
  <scstep>
   <time name="dav">    0.43    0.45</time>
   <time name="total">    0.45    0.46</time>
   <energy>
    <i name="e_fr_energy">     -2.30598958 </i>
    <i name="e_wo_entrp">     -2.30598958 </i>
    <i name="e_0_energy">     -2.30598958 </i>
   </energy>
  </scstep>
  <scstep>
   <time name="dav">    0.44    0.44</time>
   <time name="total">    0.45    0.46</time>
   <energy>
    <i name="e_fr_energy">    -15.72845768 </i>
    <i name="e_wo_entrp">    -15.72845768 </i>
    <i name="e_0_energy">    -15.72845768 </i>
   </energy>
  </scstep>
  <scstep>
   <time name="dav">    0.44    0.44</time>
   <time name="total">    0.46    0.46</time>
   <energy>
    <i name="e_fr_energy">    -15.94914119 </i>
    <i name="e_wo_entrp">    -15.94914119 </i>
    <i name="e_0_energy">    -15.94914119 </i>
   </energy>
  </scstep>
  <scstep>
   <time name="dav">    0.45    0.45</time>
   <time name="total">    0.69    0.72</time>
   <energy>
    <i name="e_fr_energy">    -15.95302666 </i>
    <i name="e_wo_entrp">    -15.95302666 </i>
    <i name="e_0_energy">    -15.95302666 </i>
   </energy>
  </scstep>
  <scstep>
   <time name="dav">    0.50    0.51</time>
   <time name="total">    0.65    0.65</time>
   <energy>
    <i name="e_fr_energy">    -15.12952679 </i>
    <i name="e_wo_entrp">    -15.12952679 </i>
    <i name="e_0_energy">    -15.12952679 </i>
   </energy>
  </scstep>
  <scstep>
   <time name="dav">    0.40    0.40</time>
   <time name="total">    0.54    0.55</time>
   <energy>
    <i name="e_fr_energy">    -15.16178534 </i>
    <i name="e_wo_entrp">    -15.16178534 </i>
    <i name="e_0_energy">    -15.16178534 </i>
   </energy>
  </scstep>
  <scstep>
   <time name="dav">    0.49    0.49</time>
   <time name="total">    0.63    0.64</time>
   <energy>
    <i name="e_fr_energy">    -15.14055553 </i>
    <i name="e_wo_entrp">    -15.14055553 </i>
    <i name="e_0_energy">    -15.14055553 </i>
   </energy>
  </scstep>
  <scstep>
   <time name="dav">    0.49    0.49</time>
   <time name="total">    0.63    0.64</time>
   <energy>
    <i name="e_fr_energy">    -15.14002419 </i>
    <i name="e_wo_entrp">    -15.14002419 </i>
    <i name="e_0_energy">    -15.14002419 </i>
   </energy>
  </scstep>
  <scstep>
   <time name="dav">    0.43    0.43</time>
   <time name="total">    0.58    0.58</time>
   <energy>
    <i name="e_fr_energy">    -15.14014045 </i>
    <i name="e_wo_entrp">    -15.14014045 </i>
    <i name="e_0_energy">    -15.14014045 </i>
   </energy>
  </scstep>
  <scstep>
   <time name="dav">    0.46    0.46</time>
   <time name="total">    0.61    0.61</time>
   <energy>
    <i name="e_fr_energy">    -15.14025093 </i>
    <i name="e_wo_entrp">    -15.14025093 </i>
    <i name="e_0_energy">    -15.14025093 </i>
   </energy>
  </scstep>
  <scstep>
   <time name="dav">    0.43    0.44</time>
   <time name="total">    0.58    0.58</time>
   <energy>
    <i name="e_fr_energy">    -15.14026589 </i>
    <i name="e_wo_entrp">    -15.14026589 </i>
    <i name="e_0_energy">    -15.14026589 </i>
   </energy>
  </scstep>
  <scstep>
   <time name="dav">    0.34    0.34</time>
   <time name="total">    0.43    0.44</time>
   <energy>
    <i name="alphaZ">    147.15733780 </i>
    <i name="ewald">  -2526.08836804 </i>
    <i name="hartreedc">  -1354.90912589 </i>
    <i name="XCdc">    141.04983603 </i>
    <i name="pawpsdc">   4373.68544514 </i>
    <i name="pawaedc">  -4723.15634808 </i>
    <i name="eentropy">      0.00000000 </i>
    <i name="bandstr">   -120.93827777 </i>
    <i name="atom">   4048.05923486 </i>
    <i name="e_fr_energy">    -15.14026598 </i>
    <i name="e_wo_entrp">    -15.14026598 </i>
    <i name="e_0_energy">    -15.14026598 </i>
   </energy>
  </scstep>
  <structure>
   <crystal>
    <varray name="basis" >
     <v>       3.78158387       0.00000000       0.00000000 </v>
     <v>      -1.89079194       3.27494770       0.00000000 </v>
     <v>       0.00000000       0.00000000       6.20476623 </v>
    </varray>
    <i name="volume">     76.84286172 </i>
    <varray name="rec_basis" >
     <v>       0.26443946       0.15267419      -0.00000000 </v>
     <v>       0.00000000       0.30534839       0.00000000 </v>
     <v>       0.00000000      -0.00000000       0.16116643 </v>
    </varray>
   </crystal>
   <varray name="positions" >
    <v>       0.66666667       0.33333333       0.50040087 </v>
    <v>       0.33333333       0.66666667       0.00040087 </v>
    <v>       0.66666667       0.33333333       0.87459913 </v>
    <v>       0.33333333       0.66666667       0.37459913 </v>
   </varray>
  </structure>
  <varray name="forces" >
   <v>      -0.00000000      -0.00000000      -0.00005120 </v>
   <v>       0.00000000       0.00000000      -0.00005120 </v>
   <v>      -0.00000000       0.00000000       0.00005120 </v>
   <v>       0.00000000       0.00000000       0.00005120 </v>
  </varray>
  <energy>
   <i name="e_fr_energy">    -15.14026598 </i>
   <i name="e_wo_entrp">    -15.14026598 </i>
   <i name="e_0_energy">    -15.14026598 </i>
  </energy>
  <scstep>
   <time name="total">    0.88    1.24</time>
   <energy>
    <i name="e_fr_energy">    -83.53761480 </i>
    <i name="e_wo_entrp">    -83.53761480 </i>
    <i name="e_0_energy">    -83.53761480 </i>
   </energy>
  </scstep>
  <scstep>
   <time name="total">    0.68    0.68</time>
   <energy>
    <i name="e_fr_energy">    -90.27057828 </i>
    <i name="e_wo_entrp">    -90.27057828 </i>
    <i name="e_0_energy">    -90.27057828 </i>
   </energy>
  </scstep>
  <scstep>
   <time name="total">    0.70    0.70</time>
   <energy>
    <i name="e_fr_energy">    -90.85677184 </i>
    <i name="e_wo_entrp">    -90.85677184 </i>
    <i name="e_0_energy">    -90.85677184 </i>
   </energy>
  </scstep>
  <scstep>
   <time name="total">    0.55    0.55</time>
   <energy>
    <i name="e_fr_energy">    -90.88922297 </i>
    <i name="e_wo_entrp">    -90.88922297 </i>
    <i name="e_0_energy">    -90.88922297 </i>
   </energy>
  </scstep>
  <scstep>
   <time name="total">    0.56    0.56</time>
   <energy>
    <i name="e_fr_energy">    -90.89374533 </i>
    <i name="e_wo_entrp">    -90.89374533 </i>
    <i name="e_0_energy">    -90.89374533 </i>
   </energy>
  </scstep>
  <scstep>
   <time name="total">    0.57    0.58</time>
   <energy>
    <i name="e_fr_energy">    -90.89498217 </i>
    <i name="e_wo_entrp">    -90.89498217 </i>
    <i name="e_0_energy">    -90.89498217 </i>
   </energy>
  </scstep>
  <scstep>
   <time name="total">    0.58    0.58</time>
   <energy>
    <i name="e_fr_energy">    -90.89532582 </i>
    <i name="e_wo_entrp">    -90.89532582 </i>
    <i name="e_0_energy">    -90.89532582 </i>
   </energy>
  </scstep>
  <scstep>
   <time name="total">    0.53    0.53</time>
   <energy>
    <i name="e_fr_energy">    -90.89538399 </i>
    <i name="e_wo_entrp">    -90.89538399 </i>
    <i name="e_0_energy">    -90.89538399 </i>
   </energy>
  </scstep>
  <scstep>
   <time name="total">    0.49    0.49</time>
   <energy>
    <i name="e_fr_energy">    -90.89538414 </i>
    <i name="e_wo_entrp">    -90.89538414 </i>
    <i name="e_0_energy">    -90.89538414 </i>
   </energy>
  </scstep>
  <scstep>
   <time name="total">    0.47    0.47</time>
   <energy>
    <i name="e_fr_energy">    -90.89538678 </i>
    <i name="e_wo_entrp">    -90.89538678 </i>
    <i name="e_0_energy">    -90.89538678 </i>
   </energy>
  </scstep>
  <scstep>
   <time name="total">    0.46    0.47</time>
   <energy>
    <i name="e_fr_energy">    -90.89538214 </i>
    <i name="e_wo_entrp">    -90.89538214 </i>
    <i name="e_0_energy">    -90.89538214 </i>
   </energy>
  </scstep>
  <scstep>
   <time name="total">    0.46    0.46</time>
   <energy>
    <i name="e_fr_energy">    -90.89538149 </i>
    <i name="e_wo_entrp">    -90.89538149 </i>
    <i name="e_0_energy">    -90.89538149 </i>
   </energy>
  </scstep>
  <scstep>
   <time name="total">    0.46    0.46</time>
   <energy>
    <i name="e_fr_energy">    -90.89538032 </i>
    <i name="e_wo_entrp">    -90.89538032 </i>
    <i name="e_0_energy">    -90.89538032 </i>
   </energy>
  </scstep>
  <scstep>
   <time name="total">    0.45    0.46</time>
   <energy>
    <i name="e_fr_energy">    -90.89537834 </i>
    <i name="e_wo_entrp">    -90.89537834 </i>
    <i name="e_0_energy">    -90.89537834 </i>
   </energy>
  </scstep>
  <scstep>
   <time name="total">    0.83    0.83</time>
   <energy>
    <i name="e_fr_energy">    -99.32914188 </i>
    <i name="e_wo_entrp">    -99.32914188 </i>
    <i name="e_0_energy">    -99.32914188 </i>
   </energy>
  </scstep>
  <scstep>
   <time name="total">    0.68    0.68</time>
   <energy>
    <i name="e_fr_energy">   -101.73941655 </i>
    <i name="e_wo_entrp">   -101.73941655 </i>
    <i name="e_0_energy">   -101.73941655 </i>
   </energy>
  </scstep>
  <scstep>
   <time name="total">    0.70    0.70</time>
   <energy>
    <i name="e_fr_energy">   -102.16976726 </i>
    <i name="e_wo_entrp">   -102.16976726 </i>
    <i name="e_0_energy">   -102.16976726 </i>
   </energy>
  </scstep>
  <scstep>
   <time name="total">    0.54    0.55</time>
   <energy>
    <i name="e_fr_energy">   -102.21584629 </i>
    <i name="e_wo_entrp">   -102.21584629 </i>
    <i name="e_0_energy">   -102.21584629 </i>
   </energy>
  </scstep>
  <scstep>
   <time name="total">    0.56    0.56</time>
   <energy>
    <i name="e_fr_energy">   -102.22727771 </i>
    <i name="e_wo_entrp">   -102.22727771 </i>
    <i name="e_0_energy">   -102.22727771 </i>
   </energy>
  </scstep>
  <scstep>
   <time name="total">    0.57    0.57</time>
   <energy>
    <i name="e_fr_energy">   -102.21749464 </i>
    <i name="e_wo_entrp">   -102.21749464 </i>
    <i name="e_0_energy">   -102.21749464 </i>
   </energy>
  </scstep>
  <scstep>
   <time name="total">    0.57    0.58</time>
   <energy>
    <i name="e_fr_energy">   -102.20738585 </i>
    <i name="e_wo_entrp">   -102.20738585 </i>
    <i name="e_0_energy">   -102.20738585 </i>
   </energy>
  </scstep>
  <scstep>
   <time name="total">    0.53    0.53</time>
   <energy>
    <i name="e_fr_energy">   -102.20769624 </i>
    <i name="e_wo_entrp">   -102.20769624 </i>
    <i name="e_0_energy">   -102.20769624 </i>
   </energy>
  </scstep>
  <scstep>
   <time name="total">    0.49    0.49</time>
   <energy>
    <i name="e_fr_energy">   -102.20518499 </i>
    <i name="e_wo_entrp">   -102.20518499 </i>
    <i name="e_0_energy">   -102.20518499 </i>
   </energy>
  </scstep>
  <scstep>
   <time name="total">    0.47    0.47</time>
   <energy>
    <i name="e_fr_energy">   -102.20504740 </i>
    <i name="e_wo_entrp">   -102.20504740 </i>
    <i name="e_0_energy">   -102.20504740 </i>
   </energy>
  </scstep>
  <scstep>
   <time name="total">    0.46    0.46</time>
   <energy>
    <i name="e_fr_energy">   -102.20448243 </i>
    <i name="e_wo_entrp">   -102.20448243 </i>
    <i name="e_0_energy">   -102.20448243 </i>
   </energy>
  </scstep>
  <scstep>
   <time name="total">    0.45    0.45</time>
   <energy>
    <i name="e_fr_energy">   -102.20444505 </i>
    <i name="e_wo_entrp">   -102.20444505 </i>
    <i name="e_0_energy">   -102.20444505 </i>
   </energy>
  </scstep>
  <scstep>
   <time name="total">    0.45    0.45</time>
   <energy>
    <i name="e_fr_energy">   -102.20430138 </i>
    <i name="e_wo_entrp">   -102.20430138 </i>
    <i name="e_0_energy">   -102.20430138 </i>
   </energy>
  </scstep>
  <scstep>
   <time name="total">    0.45    0.45</time>
   <energy>
    <i name="e_fr_energy">   -102.20429456 </i>
    <i name="e_wo_entrp">   -102.20429456 </i>
    <i name="e_0_energy">   -102.20429456 </i>
   </energy>
  </scstep>
  <scstep>
   <time name="total">    0.80    0.80</time>
   <energy>
    <i name="e_fr_energy">    -91.92935289 </i>
    <i name="e_wo_entrp">    -91.92935289 </i>
    <i name="e_0_energy">    -91.92935289 </i>
   </energy>
  </scstep>
  <scstep>
   <time name="total">    0.68    0.69</time>
   <energy>
    <i name="e_fr_energy">    -96.12443215 </i>
    <i name="e_wo_entrp">    -96.12443215 </i>
    <i name="e_0_energy">    -96.12443215 </i>
   </energy>
  </scstep>
  <scstep>
   <time name="total">    0.69    0.70</time>
   <energy>
    <i name="e_fr_energy">    -96.59669616 </i>
    <i name="e_wo_entrp">    -96.59669616 </i>
    <i name="e_0_energy">    -96.59669616 </i>
   </energy>
  </scstep>
  <scstep>
   <time name="total">    0.55    0.55</time>
   <energy>
    <i name="e_fr_energy">    -96.61124806 </i>
    <i name="e_wo_entrp">    -96.61124806 </i>
    <i name="e_0_energy">    -96.61124806 </i>
   </energy>
  </scstep>
  <scstep>
   <time name="total">    0.55    0.56</time>
   <energy>
    <i name="e_fr_energy">    -96.61245590 </i>
    <i name="e_wo_entrp">    -96.61245590 </i>
    <i name="e_0_energy">    -96.61245590 </i>
   </energy>
  </scstep>
  <scstep>
   <time name="total">    0.57    0.57</time>
   <energy>
    <i name="e_fr_energy">    -96.61264929 </i>
    <i name="e_wo_entrp">    -96.61264929 </i>
    <i name="e_0_energy">    -96.61264929 </i>
   </energy>
  </scstep>
  <scstep>
   <time name="total">    0.57    0.57</time>
   <energy>
    <i name="e_fr_energy">    -96.61271812 </i>
    <i name="e_wo_entrp">    -96.61271812 </i>
    <i name="e_0_energy">    -96.61271812 </i>
   </energy>
  </scstep>
  <scstep>
   <time name="total">    0.50    0.50</time>
   <energy>
    <i name="e_fr_energy">    -96.61274697 </i>
    <i name="e_wo_entrp">    -96.61274697 </i>
    <i name="e_0_energy">    -96.61274697 </i>
   </energy>
  </scstep>
  <scstep>
   <time name="total">    0.46    0.46</time>
   <energy>
    <i name="e_fr_energy">    -96.61275426 </i>
    <i name="e_wo_entrp">    -96.61275426 </i>
    <i name="e_0_energy">    -96.61275426 </i>
   </energy>
  </scstep>
  <scstep>
   <time name="total">    0.44    0.44</time>
   <energy>
    <i name="e_fr_energy">    -96.61275821 </i>
    <i name="e_wo_entrp">    -96.61275821 </i>
    <i name="e_0_energy">    -96.61275821 </i>
   </energy>
  </scstep>
  <scstep>
   <time name="total">    0.43    0.44</time>
   <energy>
    <i name="e_fr_energy">    -96.61275731 </i>
    <i name="e_wo_entrp">    -96.61275731 </i>
    <i name="e_0_energy">    -96.61275731 </i>
   </energy>
  </scstep>
  <scstep>
   <time name="total">    0.43    0.43</time>
   <energy>
    <i name="e_fr_energy">    -96.61275971 </i>
    <i name="e_wo_entrp">    -96.61275971 </i>
    <i name="e_0_energy">    -96.61275971 </i>
   </energy>
  </scstep>
  <scstep>
   <time name="total">    0.42    0.42</time>
   <energy>
    <i name="e_fr_energy">    -96.61275752 </i>
    <i name="e_wo_entrp">    -96.61275752 </i>
    <i name="e_0_energy">    -96.61275752 </i>
   </energy>
  </scstep>
  <scstep>
   <time name="total">    0.42    0.42</time>
   <energy>
    <i name="e_fr_energy">    -96.61276001 </i>
    <i name="e_wo_entrp">    -96.61276001 </i>
    <i name="e_0_energy">    -96.61276001 </i>
   </energy>
  </scstep>
  <scstep>
   <time name="total">    0.41    0.41</time>
   <energy>
    <i name="e_fr_energy">    -96.61275825 </i>
    <i name="e_wo_entrp">    -96.61275825 </i>
    <i name="e_0_energy">    -96.61275825 </i>
   </energy>
  </scstep>
  <scstep>
   <time name="total">    0.79    0.79</time>
   <energy>
    <i name="e_fr_energy">     -0.90907322 </i>
    <i name="e_wo_entrp">     -0.90907322 </i>
    <i name="e_0_energy">     -0.90907322 </i>
   </energy>
  </scstep>
  <scstep>
   <time name="total">    0.85    0.85</time>
   <energy>
    <i name="e_fr_energy">     -0.94993819 </i>
    <i name="e_wo_entrp">     -0.94993819 </i>
    <i name="e_0_energy">     -0.94993819 </i>
   </energy>
  </scstep>
  <scstep>
   <time name="total">    0.84    0.84</time>
   <energy>
    <i name="e_fr_energy">     -0.95106452 </i>
    <i name="e_wo_entrp">     -0.95106452 </i>
    <i name="e_0_energy">     -0.95106452 </i>
   </energy>
  </scstep>
  <scstep>
   <time name="total">    0.84    0.85</time>
   <energy>
    <i name="e_fr_energy">     -0.95111846 </i>
    <i name="e_wo_entrp">     -0.95111846 </i>
    <i name="e_0_energy">     -0.95111846 </i>
   </energy>
  </scstep>
  <scstep>
   <time name="total">    0.85    0.85</time>
   <energy>
    <i name="e_fr_energy">     -0.95112077 </i>
    <i name="e_wo_entrp">     -0.95112077 </i>
    <i name="e_0_energy">     -0.95112077 </i>
   </energy>
  </scstep>
  <scstep>
   <time name="total">    0.68    0.68</time>
   <energy>
    <i name="e_fr_energy">     -0.95112113 </i>
    <i name="e_wo_entrp">     -0.95112113 </i>
    <i name="e_0_energy">     -0.95112113 </i>
   </energy>
  </scstep>
  <scstep>
   <time name="total">    0.78    0.79</time>
   <energy>
    <i name="e_fr_energy">     -1.29083492 </i>
    <i name="e_wo_entrp">     -1.29083492 </i>
    <i name="e_0_energy">     -1.29083492 </i>
   </energy>
  </scstep>
  <scstep>
   <time name="total">    0.85    0.85</time>
   <energy>
    <i name="e_fr_energy">     -1.34271985 </i>
    <i name="e_wo_entrp">     -1.34271985 </i>
    <i name="e_0_energy">     -1.34271985 </i>
   </energy>
  </scstep>
  <scstep>
   <time name="total">    0.84    0.84</time>
   <energy>
    <i name="e_fr_energy">     -1.34399451 </i>
    <i name="e_wo_entrp">     -1.34399451 </i>
    <i name="e_0_energy">     -1.34399451 </i>
   </energy>
  </scstep>
  <scstep>
   <time name="total">    0.85    0.85</time>
   <energy>
    <i name="e_fr_energy">     -1.34408916 </i>
    <i name="e_wo_entrp">     -1.34408916 </i>
    <i name="e_0_energy">     -1.34408916 </i>
   </energy>
  </scstep>
  <scstep>
   <time name="total">    0.84    0.84</time>
   <energy>
    <i name="e_fr_energy">     -1.34409480 </i>
    <i name="e_wo_entrp">     -1.34409480 </i>
    <i name="e_0_energy">     -1.34409480 </i>
   </energy>
  </scstep>
  <scstep>
   <time name="total">    0.67    0.68</time>
   <energy>
    <i name="e_fr_energy">     -1.34409575 </i>
    <i name="e_wo_entrp">     -1.34409575 </i>
    <i name="e_0_energy">     -1.34409575 </i>
   </energy>
  </scstep>
  <scstep>
   <time name="total">    0.79    0.80</time>
   <energy>
    <i name="e_fr_energy">     -1.12701873 </i>
    <i name="e_wo_entrp">     -1.12701873 </i>
    <i name="e_0_energy">     -1.12701873 </i>
   </energy>
  </scstep>
  <scstep>
   <time name="total">    0.85    0.85</time>
   <energy>
    <i name="e_fr_energy">     -1.16515037 </i>
    <i name="e_wo_entrp">     -1.16515037 </i>
    <i name="e_0_energy">     -1.16515037 </i>
   </energy>
  </scstep>
  <scstep>
   <time name="total">    0.84    0.84</time>
   <energy>
    <i name="e_fr_energy">     -1.16650575 </i>
    <i name="e_wo_entrp">     -1.16650575 </i>
    <i name="e_0_energy">     -1.16650575 </i>
   </energy>
  </scstep>
  <scstep>
   <time name="total">    0.84    0.85</time>
   <energy>
    <i name="e_fr_energy">     -1.16660210 </i>
    <i name="e_wo_entrp">     -1.16660210 </i>
    <i name="e_0_energy">     -1.16660210 </i>
   </energy>
  </scstep>
  <scstep>
   <time name="total">    0.83    0.84</time>
   <energy>
    <i name="e_fr_energy">     -1.16660590 </i>
    <i name="e_wo_entrp">     -1.16660590 </i>
    <i name="e_0_energy">     -1.16660590 </i>
   </energy>
  </scstep>
  <scstep>
   <time name="total">    0.66    0.67</time>
   <energy>
    <i name="e_fr_energy">     -1.16660708 </i>
    <i name="e_wo_entrp">     -1.16660708 </i>
    <i name="e_0_energy">     -1.16660708 </i>
   </energy>
  </scstep>
  <scstep>
   <time name="total">    0.61    0.62</time>
   <energy>
    <i name="e_fr_energy">     -1.16660711 </i>
    <i name="e_wo_entrp">     -1.16660711 </i>
    <i name="e_0_energy">     -1.16660711 </i>
   </energy>
  </scstep>
  <varray name="dielectric_ipa" >
   <v>       6.40499115      -0.00000000      -0.00000000 </v>
   <v>      -0.00000000       6.40499115       0.00000000 </v>
   <v>       0.00000000       0.00000000       6.49445059 </v>
  </varray>
  <kpoints>
   <generation param="Gamma">
    <v type="int" name="divisions">      10       10        6 </v>
[...]
        <r>  0.0323  0.0493  0.0000 </r>
       </set>
       <set comment="band 21">
        <r>  0.0654  0.0338  0.0263 </r>
        <r>  0.0311  0.0602  0.0356 </r>
        <r>  0.0017  0.0322  0.0000 </r>
        <r>  0.0062  0.0447  0.0000 </r>
       </set>
       <set comment="band 22">
        <r>  0.0396  0.0592  0.0308 </r>
        <r>  0.0826  0.0356  0.0256 </r>
        <r>  0.0032  0.0566  0.0000 </r>
        <r>  0.0009  0.0390  0.0000 </r>
       </set>
      </set>
      <set comment="kpoint 39">
       <set comment="band 1">
        <r>  0.0207  0.0125  0.0151 </r>
        <r>  0.0207  0.0125  0.0151 </r>
        <r>  0.3002  0.0007  0.0000 </r>
        <r>  0.3002  0.0007  0.0000 </r>
       </set>
       <set comment="band 2">
        <r>  0.0134  0.0147  0.0192 </r>
        <r>  0.0134  0.0147  0.0192 </r>
        <r>  0.3072  0.0005  0.0000 </r>
        <r>  0.3072  0.0005  0.0000 </r>
       </set>
       <set comment="band 3">
        <r>  0.0186  0.0016  0.3674 </r>
        <r>  0.0186  0.0016  0.3674 </r>
        <r>  0.0001  0.0396  0.0000 </r>
        <r>  0.0001  0.0396  0.0000 </r>
       </set>
       <set comment="band 4">
        <r>  0.0147  0.0026  0.3751 </r>
        <r>  0.0147  0.0026  0.3751 </r>
        <r>  0.0000  0.0382  0.0000 </r>
        <r>  0.0000  0.0382  0.0000 </r>
       </set>
       <set comment="band 5">
        <r>  0.0035  0.0019  0.4324 </r>
        <r>  0.0035  0.0019  0.4324 </r>
        <r>  0.0000  0.0243  0.0000 </r>
        <r>  0.0000  0.0243  0.0000 </r>
       </set>
       <set comment="band 6">
        <r>  0.0074  0.0020  0.4215 </r>
        <r>  0.0074  0.0020  0.4215 </r>
        <r>  0.0001  0.0269  0.0000 </r>
        <r>  0.0001  0.0269  0.0000 </r>
       </set>
       <set comment="band 7">
        <r>  0.0035  0.0015  0.4396 </r>
        <r>  0.0035  0.0015  0.4396 </r>
        <r>  0.0000  0.0208  0.0000 </r>
        <r>  0.0000  0.0208  0.0000 </r>
       </set>
       <set comment="band 8">
        <r>  0.0011  0.0025  0.4442 </r>
        <r>  0.0011  0.0025  0.4442 </r>
        <r>  0.0000  0.0218  0.0000 </r>
        <r>  0.0000  0.0218  0.0000 </r>
       </set>
       <set comment="band 9">
        <r>  0.0006  0.0002  0.4802 </r>
        <r>  0.0006  0.0002  0.4802 </r>
        <r>  0.0002  0.0010  0.0000 </r>
        <r>  0.0002  0.0010  0.0000 </r>
       </set>
       <set comment="band 10">
        <r>  0.0002  0.0001  0.4840 </r>
        <r>  0.0002  0.0001  0.4840 </r>
        <r>  0.0001  0.0004  0.0000 </r>
        <r>  0.0001  0.0004  0.0000 </r>
       </set>
       <set comment="band 11">
        <r>  0.0022  0.0002  0.4789 </r>
        <r>  0.0022  0.0002  0.4789 </r>
        <r>  0.0012  0.0011  0.0000 </r>
        <r>  0.0012  0.0011  0.0000 </r>
       </set>
       <set comment="band 12">
        <r>  0.0051  0.0007  0.4675 </r>
        <r>  0.0051  0.0007  0.4675 </r>
        <r>  0.0027  0.0034  0.0000 </r>
        <r>  0.0027  0.0034  0.0000 </r>
       </set>
       <set comment="band 13">
        <r>  0.0847  0.0105  0.1365 </r>
        <r>  0.0847  0.0105  0.1365 </r>
        <r>  0.0187  0.1030  0.0000 </r>
        <r>  0.0187  0.1030  0.0000 </r>
       </set>
       <set comment="band 14">
        <r>  0.0757  0.0133  0.1297 </r>
        <r>  0.0757  0.0133  0.1297 </r>
        <r>  0.0241  0.1075  0.0000 </r>
        <r>  0.0241  0.1075  0.0000 </r>
       </set>
       <set comment="band 15">
        <r>  0.0053  0.0516  0.0516 </r>
        <r>  0.0053  0.0516  0.0516 </r>
        <r>  0.0004  0.1856  0.0000 </r>
        <r>  0.0004  0.1856  0.0000 </r>
       </set>
       <set comment="band 16">
        <r>  0.0035  0.0525  0.0485 </r>
        <r>  0.0035  0.0525  0.0485 </r>
        <r>  0.0005  0.1966  0.0000 </r>
        <r>  0.0005  0.1966  0.0000 </r>
       </set>
       <set comment="band 17">
        <r>  0.0082  0.0469  0.0537 </r>
        <r>  0.0082  0.0469  0.0537 </r>
        <r>  0.0019  0.1923  0.0000 </r>
        <r>  0.0019  0.1923  0.0000 </r>
       </set>
       <set comment="band 18">
        <r>  0.0031  0.0468  0.0483 </r>
        <r>  0.0031  0.0468  0.0483 </r>
        <r>  0.0007  0.2233  0.0000 </r>
        <r>  0.0007  0.2233  0.0000 </r>
       </set>
       <set comment="band 19">
        <r>  0.0896  0.0409  0.0169 </r>
        <r>  0.0896  0.0409  0.0169 </r>
        <r>  0.0346  0.0450  0.0000 </r>
        <r>  0.0346  0.0450  0.0000 </r>
       </set>
       <set comment="band 20">
        <r>  0.0845  0.0233  0.0228 </r>
        <r>  0.0845  0.0233  0.0228 </r>
        <r>  0.0158  0.0815  0.0000 </r>
        <r>  0.0158  0.0815  0.0000 </r>
       </set>
       <set comment="band 21">
        <r>  0.0571  0.0633  0.0123 </r>
        <r>  0.0571  0.0633  0.0123 </r>
        <r>  0.0248  0.0722  0.0000 </r>
        <r>  0.0248  0.0722  0.0000 </r>
       </set>
       <set comment="band 22">
        <r>  0.0549  0.0438  0.0191 </r>
        <r>  0.0549  0.0438  0.0191 </r>
        <r>  0.0139  0.0841  0.0000 </r>
        <r>  0.0139  0.0841  0.0000 </r>
       </set>
      </set>
      <set comment="kpoint 40">
       <set comment="band 1">
        <r>  0.0118  0.0152  0.0201 </r>
        <r>  0.0120  0.0149  0.0204 </r>
        <r>  0.3090  0.0003  0.0000 </r>
        <r>  0.3089  0.0004  0.0000 </r>
       </set>
       <set comment="band 2">
        <r>  0.0070  0.0164  0.0233 </r>
        <r>  0.0068  0.0167  0.0229 </r>
        <r>  0.3135  0.0002  0.0000 </r>
        <r>  0.3136  0.0002  0.0000 </r>
       </set>
       <set comment="band 3">
        <r>  0.0084  0.0031  0.4729 </r>
        <r>  0.0183  0.0014  0.2929 </r>
        <r>  0.0001  0.0251  0.0000 </r>
        <r>  0.0001  0.0473  0.0000 </r>
       </set>
       <set comment="band 4">
        <r>  0.0191  0.0010  0.2912 </r>
        <r>  0.0079  0.0034  0.4779 </r>
        <r>  0.0000  0.0473  0.0000 </r>
        <r>  0.0000  0.0230  0.0000 </r>
       </set>
       <set comment="band 5">
        <r>  0.0005  0.0026  0.4689 </r>
        <r>  0.0048  0.0017  0.4008 </r>
        <r>  0.0000  0.0267  0.0000 </r>
        <r>  0.0000  0.0202  0.0000 </r>
       </set>
       <set comment="band 6">
        <r>  0.0011  0.0027  0.3848 </r>
        <r>  0.0003  0.0029  0.5000 </r>
        <r>  0.0000  0.0192  0.0000 </r>
        <r>  0.0000  0.0236  0.0000 </r>
       </set>
       <set comment="band 7">
        <r>  0.0122  0.0012  0.3471 </r>
        <r>  0.0047  0.0029  0.5024 </r>
        <r>  0.0002  0.0206  0.0000 </r>
        <r>  0.0001  0.0263  0.0000 </r>
       </set>
       <set comment="band 8">
        <r>  0.0067  0.0025  0.5043 </r>
        <r>  0.0121  0.0008  0.3462 </r>
        <r>  0.0001  0.0231  0.0000 </r>
        <r>  0.0002  0.0211  0.0000 </r>
       </set>
       <set comment="band 9">
        <r>  0.0006  0.0002  0.6243 </r>
        <r>  0.0001  0.0003  0.3371 </r>
        <r>  0.0000  0.0009  0.0000 </r>
        <r>  0.0003  0.0008  0.0000 </r>
       </set>
       <set comment="band 10">
        <r>  0.0001  0.0002  0.3685 </r>
        <r>  0.0003  0.0001  0.5983 </r>
        <r>  0.0001  0.0005  0.0000 </r>
        <r>  0.0000  0.0008  0.0000 </r>
       </set>
       <set comment="band 11">
        <r>  0.0065  0.0009  0.4771 </r>
        <r>  0.0063  0.0008  0.4485 </r>
        <r>  0.0033  0.0047  0.0000 </r>
        <r>  0.0044  0.0043  0.0000 </r>
       </set>
       <set comment="band 12">
        <r>  0.0072  0.0013  0.4455 </r>
        <r>  0.0069  0.0015  0.4670 </r>
        <r>  0.0078  0.0044  0.0000 </r>
        <r>  0.0062  0.0052  0.0000 </r>
       </set>
       <set comment="band 13">
        <r>  0.0912  0.0119  0.1061 </r>
        <r>  0.0948  0.0065  0.1597 </r>
        <r>  0.0087  0.0944  0.0000 </r>
        <r>  0.0069  0.1104  0.0000 </r>
       </set>
       <set comment="band 14">
        <r>  0.0857  0.0084  0.1564 </r>
        <r>  0.0838  0.0143  0.1161 </r>
        <r>  0.0125  0.1117  0.0000 </r>
        <r>  0.0150  0.0920  0.0000 </r>
       </set>
       <set comment="band 15">
        <r>  0.0080  0.0523  0.0502 </r>
        <r>  0.0066  0.0534  0.0511 </r>
        <r>  0.0013  0.1724  0.0000 </r>
        <r>  0.0009  0.1701  0.0000 </r>
       </set>
       <set comment="band 16">
        <r>  0.0034  0.0538  0.0577 </r>
        <r>  0.0035  0.0498  0.0531 </r>
        <r>  0.0011  0.1686  0.0000 </r>
        <r>  0.0010  0.1915  0.0000 </r>
       </set>
       <set comment="band 17">
        <r>  0.0072  0.0487  0.0416 </r>
        <r>  0.0070  0.0521  0.0455 </r>
        <r>  0.0018  0.2205  0.0000 </r>
        <r>  0.0019  0.1954  0.0000 </r>
       </set>
       <set comment="band 18">
        <r>  0.0006  0.0494  0.0448 </r>
        <r>  0.0006  0.0483  0.0453 </r>
        <r>  0.0002  0.2260  0.0000 </r>
        <r>  0.0002  0.2343  0.0000 </r>
       </set>
       <set comment="band 19">
        <r>  0.0644  0.0398  0.0259 </r>
        <r>  0.1154  0.0374  0.0159 </r>
        <r>  0.0332  0.0466  0.0000 </r>
        <r>  0.0330  0.0180  0.0000 </r>
       </set>
       <set comment="band 20">
        <r>  0.1187  0.0287  0.0185 </r>
        <r>  0.0610  0.0314  0.0270 </r>
        <r>  0.0258  0.0380  0.0000 </r>
        <r>  0.0222  0.0797  0.0000 </r>
       </set>
       <set comment="band 21">
        <r>  0.0682  0.0384  0.0147 </r>
        <r>  0.0178  0.0529  0.0340 </r>
        <r>  0.0015  0.0853  0.0000 </r>
        <r>  0.0130  0.0553  0.0000 </r>
       </set>
       <set comment="band 22">
        <r>  0.0197  0.0533  0.0338 </r>
        <r>  0.0829  0.0284  0.0173 </r>
        <r>  0.0026  0.0726  0.0000 </r>
        <r>  0.0035  0.0848  0.0000 </r>
       </set>
      </set>
      <set comment="kpoint 41">
       <set comment="band 1">
        <r>  0.0077  0.0162  0.0229 </r>
        <r>  0.0077  0.0162  0.0229 </r>
        <r>  0.3131  0.0001  0.0000 </r>
        <r>  0.3131  0.0001  0.0000 </r>
       </set>
       <set comment="band 2">
        <r>  0.0046  0.0172  0.0245 </r>
        <r>  0.0046  0.0172  0.0245 </r>
        <r>  0.3158  0.0001  0.0000 </r>
        <r>  0.3158  0.0001  0.0000 </r>
       </set>
       <set comment="band 3">
        <r>  0.0112  0.0023  0.3900 </r>
        <r>  0.0112  0.0023  0.3899 </r>
        <r>  0.0001  0.0346  0.0000 </r>
        <r>  0.0001  0.0346  0.0000 </r>
       </set>
       <set comment="band 4">
        <r>  0.0136  0.0019  0.3884 </r>
        <r>  0.0136  0.0019  0.3884 </r>
        <r>  0.0000  0.0334  0.0000 </r>
        <r>  0.0000  0.0334  0.0000 </r>
       </set>
       <set comment="band 5">
        <r>  0.0013  0.0023  0.4370 </r>
        <r>  0.0013  0.0023  0.4371 </r>
        <r>  0.0000  0.0234  0.0000 </r>
        <r>  0.0000  0.0234  0.0000 </r>
       </set>
       <set comment="band 6">
        <r>  0.0002  0.0028  0.4449 </r>
        <r>  0.0002  0.0028  0.4448 </r>
        <r>  0.0000  0.0209  0.0000 </r>
        <r>  0.0000  0.0209  0.0000 </r>
       </set>
       <set comment="band 7">
        <r>  0.0079  0.0017  0.4338 </r>
        <r>  0.0079  0.0017  0.4338 </r>
        <r>  0.0001  0.0190  0.0000 </r>
        <r>  0.0001  0.0191  0.0000 </r>
       </set>
       <set comment="band 8">
        <r>  0.0078  0.0023  0.4304 </r>
        <r>  0.0078  0.0023  0.4305 </r>
        <r>  0.0001  0.0205  0.0000 </r>
        <r>  0.0001  0.0204  0.0000 </r>
       </set>
       <set comment="band 9">
        <r>  0.0001  0.0001  0.4864 </r>
        <r>  0.0001  0.0002  0.4788 </r>
        <r>  0.0001  0.0004  0.0000 </r>
        <r>  0.0001  0.0004  0.0000 </r>
       </set>
       <set comment="band 10">
        <r>  0.0002  0.0002  0.4772 </r>
        <r>  0.0002  0.0002  0.4848 </r>
        <r>  0.0001  0.0006  0.0000 </r>
        <r>  0.0001  0.0007  0.0000 </r>
       </set>
       <set comment="band 11">
        <r>  0.0072  0.0012  0.4571 </r>
        <r>  0.0072  0.0012  0.4570 </r>
        <r>  0.0087  0.0044  0.0000 </r>
        <r>  0.0087  0.0044  0.0000 </r>
       </set>
       <set comment="band 12">
        <r>  0.0024  0.0021  0.4632 </r>
        <r>  0.0024  0.0021  0.4633 </r>
        <r>  0.0115  0.0011  0.0000 </r>
        <r>  0.0115  0.0011  0.0000 </r>
       </set>
       <set comment="band 13">
        <r>  0.1005  0.0090  0.1148 </r>
        <r>  0.1005  0.0090  0.1148 </r>
        <r>  0.0008  0.1079  0.0000 </r>
        <r>  0.0008  0.1079  0.0000 </r>
       </set>
       <set comment="band 14">
        <r>  0.0960  0.0103  0.1189 </r>
        <r>  0.0960  0.0103  0.1189 </r>
        <r>  0.0049  0.1066  0.0000 </r>
        <r>  0.0049  0.1066  0.0000 </r>
       </set>
       <set comment="band 15">
        <r>  0.0079  0.0529  0.0509 </r>
        <r>  0.0079  0.0529  0.0509 </r>
        <r>  0.0017  0.1667  0.0000 </r>
        <r>  0.0017  0.1667  0.0000 </r>
       </set>
       <set comment="band 16">
        <r>  0.0051  0.0516  0.0560 </r>
        <r>  0.0051  0.0516  0.0560 </r>
        <r>  0.0016  0.1747  0.0000 </r>
        <r>  0.0016  0.1747  0.0000 </r>
       </set>
       <set comment="band 17">
        <r>  0.0044  0.0511  0.0419 </r>
        <r>  0.0044  0.0511  0.0419 </r>
        <r>  0.0013  0.2180  0.0000 </r>
        <r>  0.0013  0.2180  0.0000 </r>
       </set>
       <set comment="band 18">
        <r>  0.0001  0.0499  0.0436 </r>
        <r>  0.0001  0.0499  0.0436 </r>
        <r>  0.0000  0.2305  0.0000 </r>
        <r>  0.0000  0.2305  0.0000 </r>
       </set>
       <set comment="band 19">
        <r>  0.0873  0.0367  0.0228 </r>
        <r>  0.0873  0.0367  0.0228 </r>
        <r>  0.0323  0.0293  0.0000 </r>
        <r>  0.0323  0.0293  0.0000 </r>
       </set>
       <set comment="band 20">
        <r>  0.0988  0.0338  0.0212 </r>
        <r>  0.0988  0.0338  0.0212 </r>
        <r>  0.0287  0.0451  0.0000 </r>
        <r>  0.0287  0.0451  0.0000 </r>
       </set>
       <set comment="band 21">
        <r>  0.0373  0.0416  0.0284 </r>
        <r>  0.0374  0.0416  0.0284 </r>
        <r>  0.0029  0.0695  0.0000 </r>
        <r>  0.0029  0.0695  0.0000 </r>
       </set>
       <set comment="band 22">
        <r>  0.0412  0.0408  0.0297 </r>
        <r>  0.0412  0.0408  0.0297 </r>
        <r>  0.0003  0.0702  0.0000 </r>
        <r>  0.0003  0.0701  0.0000 </r>
       </set>
      </set>
      <set comment="kpoint 42">
       <set comment="band 1">
        <r>  0.0061  0.0167  0.0239 </r>
        <r>  0.0061  0.0167  0.0239 </r>
        <r>  0.3145  0.0001  0.0000 </r>
        <r>  0.3145  0.0001  0.0000 </r>
       </set>
       <set comment="band 2">
        <r>  0.0040  0.0173  0.0250 </r>
        <r>  0.0040  0.0173  0.0250 </r>
        <r>  0.3163  0.0000  0.0000 </r>
        <r>  0.3163  0.0000  0.0000 </r>
       </set>
       <set comment="band 3">
        <r>  0.0056  0.0028  0.4101 </r>
        <r>  0.0056  0.0028  0.4101 </r>
        <r>  0.0000  0.0300  0.0000 </r>
        <r>  0.0000  0.0300  0.0000 </r>
       </set>
       <set comment="band 4">
        <r>  0.0103  0.0021  0.4016 </r>
        <r>  0.0103  0.0021  0.4016 </r>
        <r>  0.0001  0.0310  0.0000 </r>
        <r>  0.0001  0.0310  0.0000 </r>
       </set>
       <set comment="band 5">
        <r>  0.0044  0.0024  0.4239 </r>
        <r>  0.0044  0.0024  0.4239 </r>
        <r>  0.0000  0.0259  0.0000 </r>
        <r>  0.0000  0.0259  0.0000 </r>
       </set>
       <set comment="band 6">
        <r>  0.0002  0.0034  0.4379 </r>
        <r>  0.0002  0.0034  0.4379 </r>
        <r>  0.0000  0.0231  0.0000 </r>
        <r>  0.0000  0.0231  0.0000 </r>
       </set>
       <set comment="band 7">
        <r>  0.0090  0.0012  0.4346 </r>
        <r>  0.0090  0.0012  0.4346 </r>
        <r>  0.0001  0.0181  0.0000 </r>
        <r>  0.0001  0.0181  0.0000 </r>
       </set>
       <set comment="band 8">
        <r>  0.0086  0.0011  0.4377 </r>
        <r>  0.0086  0.0011  0.4377 </r>
        <r>  0.0000  0.0170  0.0000 </r>
        <r>  0.0000  0.0170  0.0000 </r>
       </set>
       <set comment="band 9">
        <r>  0.0002  0.0003  0.4787 </r>
        <r>  0.0002  0.0003  0.4787 </r>
        <r>  0.0000  0.0010  0.0000 </r>
        <r>  0.0000  0.0010  0.0000 </r>
       </set>
       <set comment="band 10">
        <r>  0.0002  0.0002  0.4807 </r>
        <r>  0.0002  0.0002  0.4807 </r>
        <r>  0.0000  0.0008  0.0000 </r>
        <r>  0.0000  0.0008  0.0000 </r>
       </set>
       <set comment="band 11">
        <r>  0.0087  0.0013  0.4516 </r>
        <r>  0.0087  0.0013  0.4516 </r>
        <r>  0.0089  0.0062  0.0000 </r>
        <r>  0.0089  0.0062  0.0000 </r>
       </set>
       <set comment="band 12">
        <r>  0.0041  0.0017  0.4620 </r>
        <r>  0.0041  0.0017  0.4620 </r>
        <r>  0.0123  0.0018  0.0000 </r>
        <r>  0.0123  0.0018  0.0000 </r>
       </set>
       <set comment="band 13">
        <r>  0.1115  0.0065  0.1006 </r>
        <r>  0.1115  0.0065  0.1006 </r>
        <r>  0.0015  0.1128  0.0000 </r>
        <r>  0.0015  0.1128  0.0000 </r>
       </set>
       <set comment="band 14">
        <r>  0.1027  0.0076  0.1168 </r>
        <r>  0.1027  0.0076  0.1168 </r>
        <r>  0.0060  0.1076  0.0000 </r>
        <r>  0.0060  0.1076  0.0000 </r>
       </set>
       <set comment="band 15">
        <r>  0.0023  0.0556  0.0532 </r>
        <r>  0.0023  0.0556  0.0532 </r>
        <r>  0.0002  0.1577  0.0000 </r>
        <r>  0.0002  0.1577  0.0000 </r>
       </set>
       <set comment="band 16">
        <r>  0.0012  0.0540  0.0585 </r>
        <r>  0.0012  0.0540  0.0585 </r>
        <r>  0.0003  0.1649  0.0000 </r>
        <r>  0.0003  0.1649  0.0000 </r>
       </set>
       <set comment="band 17">
        <r>  0.0031  0.0511  0.0420 </r>
        <r>  0.0031  0.0511  0.0420 </r>
        <r>  0.0009  0.2215  0.0000 </r>
        <r>  0.0009  0.2215  0.0000 </r>
       </set>
       <set comment="band 18">
        <r>  0.0003  0.0504  0.0427 </r>
        <r>  0.0003  0.0504  0.0427 </r>
        <r>  0.0001  0.2308  0.0000 </r>
        <r>  0.0001  0.2308  0.0000 </r>
       </set>
       <set comment="band 19">
        <r>  0.1020  0.0394  0.0210 </r>
        <r>  0.1020  0.0394  0.0210 </r>
        <r>  0.0316  0.0273  0.0000 </r>
        <r>  0.0316  0.0273  0.0000 </r>
       </set>
       <set comment="band 20">
        <r>  0.0967  0.0354  0.0226 </r>
        <r>  0.0967  0.0354  0.0226 </r>
        <r>  0.0267  0.0407  0.0000 </r>
        <r>  0.0267  0.0407  0.0000 </r>
       </set>
       <set comment="band 21">
        <r>  0.0103  0.0450  0.0312 </r>
        <r>  0.0103  0.0450  0.0312 </r>
        <r>  0.0014  0.0569  0.0000 </r>
        <r>  0.0014  0.0569  0.0000 </r>
       </set>
       <set comment="band 22">
        <r>  0.0147  0.0288  0.0323 </r>
        <r>  0.0147  0.0288  0.0323 </r>
        <r>  0.0005  0.0955  0.0000 </r>
        <r>  0.0005  0.0956  0.0000 </r>
       </set>
      </set>
     </set>
    </set>
   </array>
  </projected>
 </calculation>
 <structure name="finalpos" >
  <crystal>
   <varray name="basis" >
    <v>       3.78158387       0.00000000       0.00000000 </v>
    <v>      -1.89079194       3.27494770       0.00000000 </v>
    <v>       0.00000000       0.00000000       6.20476623 </v>
   </varray>
   <i name="volume">     76.84286172 </i>
   <varray name="rec_basis" >
    <v>       0.26443946       0.15267419      -0.00000000 </v>
    <v>       0.00000000       0.30534839       0.00000000 </v>
    <v>       0.00000000      -0.00000000       0.16116643 </v>
   </varray>
  </crystal>
  <varray name="positions" >
   <v>       0.66666667       0.33333333       0.50040087 </v>
   <v>       0.33333333       0.66666667       0.00040087 </v>
   <v>       0.66666667       0.33333333       0.87459913 </v>
   <v>       0.33333333       0.66666667       0.37459913 </v>
  </varray>
 </structure>
</modeling>
