       N       E                     dE             d eps       ncg     rms           ort
DAV:   1    -0.399875890409E+04   -0.39988E+04   -0.22385E+04   672   0.135E+03  
DAV:   2    -0.437833335218E+04   -0.37957E+03   -0.37849E+03   672   0.367E+02  
DAV:   3    -0.440911962390E+04   -0.30786E+02   -0.30786E+02   672   0.110E+02  
DAV:   4    -0.441265905332E+04   -0.35394E+01   -0.35394E+01   672   0.315E+01  
DAV:   5    -0.684070708982E+02    0.43443E+04   -0.25855E+01   672   0.418E+01  
SDA:   6    -0.475738351554E+02    0.20833E+02   -0.29355E+02   672   0.734E+02   0.000E+00
DMP:   7    -0.581198333838E+02   -0.10546E+02   -0.61595E+00   672   0.103E+02  -0.229E+02
DMP:   8    -0.580435372838E+02    0.76296E-01   -0.45191E+01   672   0.121E+02  -0.200E+01
DMP:   9    -0.603392691177E+02   -0.22957E+01   -0.48269E+00   672   0.107E+01   0.367E+00
DMP:  10    -0.604294943715E+02   -0.90225E-01   -0.48871E+00   672   0.150E+01  -0.727E+00
DMP:  11    -0.607121728729E+02   -0.28268E+00   -0.12039E+00   672   0.227E+00   0.194E+00
DMP:  12    -0.607405223049E+02   -0.28349E-01   -0.53904E-01   672   0.198E+00  -0.165E+00
DMP:  13    -0.607723829664E+02   -0.31861E-01   -0.25038E-01   672   0.514E-01   0.293E-01
DMP:  14    -0.607820817315E+02   -0.96988E-02   -0.62164E-02   672   0.206E-01  -0.132E-01
DMP:  15    -0.607862066177E+02   -0.41249E-02   -0.56966E-02   672   0.123E-01   0.506E-02
DMP:  16    -0.607896812393E+02   -0.34746E-02   -0.17656E-02   672   0.322E-02   0.312E-02
DMP:  17    -0.607909667031E+02   -0.12855E-02   -0.14486E-02   672   0.284E-02   0.204E-02
DMP:  18    -0.607921399758E+02   -0.11733E-02   -0.85145E-03   672   0.127E-02   0.226E-02
DMP:  19    -0.607928608247E+02   -0.72085E-03   -0.58080E-03   672   0.892E-03   0.147E-02
DMP:  20    -0.607934011190E+02   -0.54029E-03   -0.44012E-03   672   0.626E-03   0.124E-02
DMP:  21    -0.607938116365E+02   -0.41052E-03   -0.32742E-03   672   0.456E-03   0.950E-03
DMP:  22    -0.607941261281E+02   -0.31449E-03   -0.26257E-03   672   0.369E-03   0.752E-03
DMP:  23    -0.607943801191E+02   -0.25399E-03   -0.21206E-03   672   0.297E-03   0.610E-03
DMP:  24    -0.607945860235E+02   -0.20590E-03   -0.17529E-03   672   0.249E-03   0.496E-03
DMP:  25    -0.607947542858E+02   -0.16826E-03   -0.15158E-03   672   0.226E-03   0.400E-03
DMP:  26    -0.607948911601E+02   -0.13687E-03   -0.14712E-03   672   0.252E-03   0.303E-03
DMP:  27    -0.607949999476E+02   -0.10879E-03   -0.17415E-03   672   0.369E-03   0.174E-03
DMP:  28    -0.607950829814E+02   -0.83034E-04   -0.24254E-03   672   0.615E-03  -0.229E-04
DMP:  29    -0.607951442895E+02   -0.61308E-04   -0.34339E-03   672   0.973E-03  -0.301E-03
DMP:  30    -0.607951950629E+02   -0.50773E-04   -0.43656E-03   672   0.132E-02  -0.607E-03
DMP:  31    -0.607952551063E+02   -0.60043E-04   -0.44846E-03   672   0.142E-02  -0.792E-03
DMP:  32    -0.607953441907E+02   -0.89084E-04   -0.33487E-03   672   0.110E-02  -0.677E-03
DMP:  33    -0.607954521103E+02   -0.10792E-03   -0.17504E-03   672   0.552E-03  -0.299E-03
DMP:  34    -0.607955450811E+02   -0.92971E-04   -0.88669E-04   672   0.212E-03   0.263E-04
DMP:  35    -0.607956151129E+02   -0.70032E-04   -0.72370E-04   672   0.132E-03   0.127E-03
DMP:  36    -0.607956796513E+02   -0.64538E-04   -0.69263E-04   672   0.120E-03   0.140E-03
DMP:  37    -0.607957435627E+02   -0.63911E-04   -0.67380E-04   672   0.113E-03   0.145E-03
DMP:  38    -0.607958073876E+02   -0.63825E-04   -0.65764E-04   672   0.107E-03   0.149E-03
DMP:  39    -0.607958705291E+02   -0.63141E-04   -0.64825E-04   672   0.105E-03   0.150E-03
DMP:  40    -0.607959328011E+02   -0.62272E-04   -0.63493E-04   672   0.102E-03   0.148E-03
DMP:  41    -0.607959934665E+02   -0.60665E-04   -0.62784E-04   672   0.102E-03   0.143E-03
DMP:  42    -0.607960526409E+02   -0.59174E-04   -0.60802E-04   672   0.995E-04   0.138E-03
DMP:  43    -0.607961087068E+02   -0.56066E-04   -0.59729E-04   672   0.101E-03   0.127E-03
DMP:  44    -0.607961626935E+02   -0.53987E-04   -0.56398E-04   672   0.955E-04   0.119E-03
DMP:  45    -0.607962125645E+02   -0.49871E-04   -0.55392E-04   672   0.976E-04   0.107E-03
DMP:  46    -0.607962587980E+02   -0.46234E-04   -0.58019E-04   672   0.110E-03   0.917E-04
DMP:  47    -0.607962981432E+02   -0.39345E-04   -0.80548E-04   672   0.182E-03   0.499E-04
DMP:  48    -0.607963191973E+02   -0.21054E-04   -0.19597E-03   672   0.527E-03  -0.958E-04
DMP:  49    -0.607962704356E+02    0.48762E-04   -0.70058E-03   672   0.203E-02  -0.737E-03
DMP:  50    -0.607959797825E+02    0.29065E-03   -0.23367E-02   672   0.706E-02  -0.320E-02
DMP:  51    -0.607952762776E+02    0.70350E-03   -0.55941E-02   672   0.176E-01  -0.936E-02
DMP:  52    -0.607942724288E+02    0.10038E-02   -0.89945E-02   672   0.297E-01  -0.190E-01
DMP:  53    -0.607941543287E+02    0.11810E-03   -0.83529E-02   672   0.297E-01  -0.230E-01
DMP:  54    -0.607951178519E+02   -0.96352E-03   -0.40800E-02   672   0.163E-01  -0.160E-01
DMP:  55    -0.607961905386E+02   -0.10727E-02   -0.11209E-02   672   0.465E-02  -0.483E-02
DMP:  56    -0.607962952171E+02   -0.10468E-03   -0.12377E-02   672   0.397E-02  -0.228E-02
DMP:  57    -0.607961879412E+02    0.10728E-03   -0.15750E-02   672   0.532E-02  -0.363E-02
DMP:  58    -0.607962425730E+02   -0.54632E-04   -0.15417E-02   672   0.526E-02  -0.367E-02
DMP:  59    -0.607961833756E+02    0.59197E-04   -0.18109E-02   672   0.611E-02  -0.414E-02
DMP:  60    -0.607961827748E+02    0.60078E-06   -0.18981E-02   672   0.648E-02  -0.454E-02
DMP:  61    -0.607961801018E+02    0.26729E-05   -0.18363E-02   672   0.640E-02  -0.475E-02
DMP:  62    -0.607962787239E+02   -0.98622E-04   -0.15791E-02   672   0.552E-02  -0.411E-02
DMP:  63    -0.607963289732E+02   -0.50249E-04   -0.13840E-02   672   0.487E-02  -0.369E-02
DMP:  64    -0.607964239908E+02   -0.95018E-04   -0.10476E-02   672   0.376E-02  -0.299E-02
DMP:  65    -0.607965381291E+02   -0.11414E-03   -0.63875E-03   672   0.238E-02  -0.204E-02
DMP:  66    -0.607966465002E+02   -0.10837E-03   -0.32945E-03   672   0.123E-02  -0.106E-02
DMP:  67    -0.607966956461E+02   -0.49146E-04   -0.21379E-03   672   0.753E-03  -0.572E-03
DMP:  68    -0.607967207236E+02   -0.25077E-04   -0.18533E-03   672   0.622E-03  -0.415E-03
DMP:  69    -0.607967230873E+02   -0.23637E-05   -0.20176E-03   672   0.675E-03  -0.447E-03
DMP:  70    -0.607967408086E+02   -0.17721E-04   -0.17834E-03   672   0.607E-03  -0.421E-03
DMP:  71    -0.607967496955E+02   -0.88869E-05   -0.16491E-03   672   0.564E-03  -0.397E-03
DMP:  72    -0.607967698010E+02   -0.20105E-04   -0.13750E-03   672   0.465E-03  -0.317E-03
DMP:  73    -0.607967744379E+02   -0.46368E-05   -0.13602E-03   672   0.460E-03  -0.315E-03
DMP:  74    -0.607967925930E+02   -0.18155E-04   -0.10552E-03   672   0.362E-03  -0.256E-03
DMP:  75    -0.607968020657E+02   -0.94726E-05   -0.85304E-04   672   0.294E-03  -0.211E-03
DMP:  76    -0.607968199290E+02   -0.17863E-04   -0.51579E-04   672   0.178E-03  -0.129E-03
DMP:  77    -0.607968311694E+02   -0.11240E-04   -0.29601E-04   672   0.101E-03  -0.697E-04
DMP:  78    -0.607968431522E+02   -0.11983E-04   -0.13658E-04   672   0.404E-04  -0.164E-04
DMP:  79    -0.607968500660E+02   -0.69138E-05   -0.99082E-05   672   0.243E-04   0.117E-05
DMP:  80    -0.607968567080E+02   -0.66420E-05   -0.72969E-05   672   0.154E-04   0.736E-05
DMP:  81    -0.607968624877E+02   -0.57797E-05   -0.59459E-05   672   0.108E-04   0.107E-04
DMP:  82    -0.607968679985E+02   -0.55108E-05   -0.53221E-05   672   0.861E-05   0.123E-04
DMP:  83    -0.607968731298E+02   -0.51313E-05   -0.52529E-05   672   0.859E-05   0.119E-04
DMP:  84    -0.607968781082E+02   -0.49784E-05   -0.52307E-05   672   0.864E-05   0.116E-04
DMP:  85    -0.607968830130E+02   -0.49048E-05   -0.55809E-05   672   0.976E-05   0.110E-04
DMP:  86    -0.607968877583E+02   -0.47453E-05   -0.64070E-05   672   0.124E-04   0.951E-05
DMP:  87    -0.607968921496E+02   -0.43913E-05   -0.86726E-05   672   0.196E-04   0.556E-05
DMP:  88    -0.607968955709E+02   -0.34212E-05   -0.16066E-04   672   0.420E-04  -0.480E-05
DMP:  89    -0.607968950996E+02    0.47121E-06   -0.45355E-04   672   0.130E-03  -0.432E-04
DMP:  90    -0.607968805025E+02    0.14597E-04   -0.14480E-03   672   0.433E-03  -0.186E-03
DMP:  91    -0.607968323415E+02    0.48161E-04   -0.39949E-03   672   0.123E-02  -0.605E-03
DMP:  92    -0.607967258621E+02    0.10648E-03   -0.87945E-03   672   0.278E-02  -0.153E-02
DMP:  93    -0.607965693527E+02    0.15651E-03   -0.15149E-02   672   0.493E-02  -0.298E-02
DMP:  94    -0.607964022008E+02    0.16715E-03   -0.21636E-02   672   0.717E-02  -0.462E-02
DMP:  95    -0.607962165332E+02    0.18567E-03   -0.29793E-02   672   0.987E-02  -0.634E-02
DMP:  96    -0.607959167012E+02    0.29983E-03   -0.42167E-02   672   0.140E-01  -0.895E-02
DMP:  97    -0.607956261255E+02    0.29058E-03   -0.49712E-02   672   0.170E-01  -0.120E-01
DMP:  98    -0.607958028336E+02   -0.17671E-03   -0.37612E-02   672   0.138E-01  -0.115E-01
DMP:  99    -0.607963976325E+02   -0.59480E-03   -0.14540E-02   672   0.609E-02  -0.642E-02
DMP: 100    -0.607968518012E+02   -0.45417E-03   -0.15787E-03   672   0.916E-03  -0.137E-02
   1 F= -.60796852E+02 E0= -.60796852E+02  d E =-.607969E+02
       N       E                     dE             d eps       ncg     rms           ort
SDA:   1    -0.468486912071E+02    0.13948E+02   -0.22372E+02   672   0.559E+02   0.000E+00
DMP:   2    -0.576714749702E+02   -0.10823E+02   -0.26541E+01   672   0.742E+01  -0.204E+01
DMP:   3    -0.587676286070E+02   -0.10962E+01   -0.24842E+01   672   0.665E+01  -0.115E+01
DMP:   4    -0.600802367953E+02   -0.13126E+01   -0.39509E+00   672   0.845E+00   0.375E+00
DMP:   5    -0.601630798404E+02   -0.82843E-01   -0.26228E+00   672   0.874E+00  -0.571E+00
DMP:   6    -0.603198311912E+02   -0.15675E+00   -0.12348E+00   672   0.259E+00   0.129E+00
DMP:   7    -0.603705233881E+02   -0.50692E-01   -0.29912E-01   672   0.956E-01  -0.546E-01
DMP:   8    -0.603871413462E+02   -0.16618E-01   -0.19230E-01   672   0.449E-01   0.839E-02
DMP:   9    -0.603975092309E+02   -0.10368E-01   -0.46658E-02   672   0.103E-01   0.364E-02
DMP:  10    -0.603996121118E+02   -0.21029E-02   -0.22277E-02   672   0.603E-02  -0.119E-02
DMP:  11    -0.604007943439E+02   -0.11822E-02   -0.10100E-02   672   0.238E-02   0.388E-03
DMP:  12    -0.604013333811E+02   -0.53904E-03   -0.38207E-03   672   0.873E-03   0.215E-03
DMP:  13    -0.604015529125E+02   -0.21953E-03   -0.17141E-03   672   0.371E-03   0.150E-03
DMP:  14    -0.604016657461E+02   -0.11283E-03   -0.88593E-04   672   0.173E-03   0.128E-03
DMP:  15    -0.604017297118E+02   -0.63966E-04   -0.48231E-04   672   0.840E-04   0.957E-04
DMP:  16    -0.604017644063E+02   -0.34695E-04   -0.26512E-04   672   0.446E-04   0.567E-04
DMP:  17    -0.604017851260E+02   -0.20720E-04   -0.17210E-04   672   0.273E-04   0.412E-04
DMP:  18    -0.604017991908E+02   -0.14065E-04   -0.11068E-04   672   0.165E-04   0.293E-04
DMP:  19    -0.604018086356E+02   -0.94448E-05   -0.75890E-05   672   0.113E-04   0.201E-04
DMP:  20    -0.604018152371E+02   -0.66016E-05   -0.53495E-05   672   0.782E-05   0.145E-04
DMP:  21    -0.604018198707E+02   -0.46336E-05   -0.36841E-05   672   0.525E-05   0.104E-04
DMP:  22    -0.604018230603E+02   -0.31897E-05   -0.25346E-05   672   0.356E-05   0.727E-05
DMP:  23    -0.604018252903E+02   -0.22300E-05   -0.17485E-05   672   0.243E-05   0.508E-05
DMP:  24    -0.604018268434E+02   -0.15531E-05   -0.12159E-05   672   0.169E-05   0.354E-05
DMP:  25    -0.604018279346E+02   -0.10912E-05   -0.85133E-06   672   0.118E-05   0.249E-05
DMP:  26    -0.604018287036E+02   -0.76893E-06   -0.60680E-06   672   0.841E-06   0.177E-05
DMP:  27    -0.604018292599E+02   -0.55637E-06   -0.44026E-06   672   0.612E-06   0.128E-05
DMP:  28    -0.604018296699E+02   -0.40999E-06   -0.32804E-06   672   0.461E-06   0.941E-06
DMP:  29    -0.604018299812E+02   -0.31128E-06   -0.24853E-06   672   0.350E-06   0.711E-06
DMP:  30    -0.604018302200E+02   -0.23876E-06   -0.19312E-06   672   0.274E-06   0.547E-06
DMP:  31    -0.604018304073E+02   -0.18734E-06   -0.15462E-06   672   0.222E-06   0.431E-06
DMP:  32    -0.604018305580E+02   -0.15075E-06   -0.12756E-06   672   0.185E-06   0.351E-06
DMP:  33    -0.604018306828E+02   -0.12478E-06   -0.10884E-06   672   0.160E-06   0.293E-06
DMP:  34    -0.604018307886E+02   -0.10573E-06   -0.95476E-07   672   0.142E-06   0.252E-06
DMP:  35    -0.604018308811E+02   -0.92517E-07   -0.86389E-07   672   0.132E-06   0.221E-06
   2 F= -.60401831E+02 E0= -.60401831E+02  d E =0.395021E+00
       N       E                     dE             d eps       ncg     rms           ort
SDA:   1    -0.554488622140E+02    0.49530E+01   -0.85832E+01   672   0.215E+02   0.000E+00
DMP:   2    -0.599091604792E+02   -0.44603E+01   -0.12251E+01   672   0.271E+01   0.914E+00
DMP:   3    -0.604415358381E+02   -0.53238E+00   -0.95421E+00   672   0.254E+01  -0.397E+00
DMP:   4    -0.608624824224E+02   -0.42095E+00   -0.10960E+00   672   0.382E+00  -0.282E+00
DMP:   5    -0.608859918669E+02   -0.23509E-01   -0.11673E+00   672   0.352E+00  -0.156E+00
DMP:   6    -0.609514348898E+02   -0.65443E-01   -0.31694E-01   672   0.658E-01   0.352E-01
DMP:   7    -0.609646993676E+02   -0.13264E-01   -0.16615E-01   672   0.466E-01  -0.132E-01
DMP:   8    -0.609748730282E+02   -0.10174E-01   -0.70889E-02   672   0.141E-01   0.938E-02
DMP:   9    -0.609779396532E+02   -0.30666E-02   -0.17077E-02   672   0.515E-02  -0.230E-02
DMP:  10    -0.609789031358E+02   -0.96348E-03   -0.10553E-02   672   0.244E-02   0.531E-03
DMP:  11    -0.609795173296E+02   -0.61419E-03   -0.36090E-03   672   0.755E-03   0.387E-03
DMP:  12    -0.609797468559E+02   -0.22953E-03   -0.21394E-03   672   0.448E-03   0.227E-03
DMP:  13    -0.609798922028E+02   -0.14535E-03   -0.10192E-03   672   0.180E-03   0.196E-03
DMP:  14    -0.609799652120E+02   -0.73009E-04   -0.53377E-04   672   0.903E-04   0.113E-03
DMP:  15    -0.609800088902E+02   -0.43678E-04   -0.31724E-04   672   0.486E-04   0.805E-04
DMP:  16    -0.609800371085E+02   -0.28218E-04   -0.20956E-04   672   0.309E-04   0.562E-04
DMP:  17    -0.609800564739E+02   -0.19365E-04   -0.14449E-04   672   0.204E-04   0.413E-04
DMP:  18    -0.609800699794E+02   -0.13505E-04   -0.10282E-04   672   0.143E-04   0.300E-04
DMP:  19    -0.609800798527E+02   -0.98734E-05   -0.76141E-05   672   0.105E-04   0.225E-04
DMP:  20    -0.609800873015E+02   -0.74488E-05   -0.57534E-05   672   0.790E-05   0.170E-04
DMP:  21    -0.609800930066E+02   -0.57051E-05   -0.44595E-05   672   0.616E-05   0.131E-04
DMP:  22    -0.609800974572E+02   -0.44506E-05   -0.35563E-05   672   0.498E-05   0.102E-04
DMP:  23    -0.609801010273E+02   -0.35701E-05   -0.29313E-05   672   0.418E-05   0.824E-05
DMP:  24    -0.609801039930E+02   -0.29657E-05   -0.24722E-05   672   0.357E-05   0.684E-05
DMP:  25    -0.609801065097E+02   -0.25166E-05   -0.21282E-05   672   0.310E-05   0.581E-05
DMP:  26    -0.609801086859E+02   -0.21762E-05   -0.18613E-05   672   0.273E-05   0.503E-05
DMP:  27    -0.609801105963E+02   -0.19104E-05   -0.16464E-05   672   0.243E-05   0.442E-05
DMP:  28    -0.609801122913E+02   -0.16950E-05   -0.14736E-05   672   0.219E-05   0.392E-05
DMP:  29    -0.609801138123E+02   -0.15210E-05   -0.13295E-05   672   0.198E-05   0.352E-05
DMP:  30    -0.609801151876E+02   -0.13753E-05   -0.12069E-05   672   0.180E-05   0.318E-05
DMP:  31    -0.609801164394E+02   -0.12517E-05   -0.10982E-05   672   0.164E-05   0.289E-05
DMP:  32    -0.609801175814E+02   -0.11420E-05   -0.10024E-05   672   0.150E-05   0.264E-05
DMP:  33    -0.609801186272E+02   -0.10458E-05   -0.91994E-06   672   0.138E-05   0.241E-05
DMP:  34    -0.609801195898E+02   -0.96264E-06   -0.85425E-06   672   0.129E-05   0.221E-05
DMP:  35    -0.609801204864E+02   -0.89657E-06   -0.80146E-06   672   0.122E-05   0.206E-05
DMP:  36    -0.609801213294E+02   -0.84304E-06   -0.75873E-06   672   0.116E-05   0.193E-05
DMP:  37    -0.609801221293E+02   -0.79991E-06   -0.72028E-06   672   0.110E-05   0.183E-05
DMP:  38    -0.609801228901E+02   -0.76077E-06   -0.68694E-06   672   0.106E-05   0.173E-05
DMP:  39    -0.609801236173E+02   -0.72721E-06   -0.65693E-06   672   0.101E-05   0.165E-05
DMP:  40    -0.609801243136E+02   -0.69633E-06   -0.63093E-06   672   0.976E-06   0.157E-05
DMP:  41    -0.609801249842E+02   -0.67057E-06   -0.60265E-06   672   0.931E-06   0.151E-05
DMP:  42    -0.609801256227E+02   -0.63851E-06   -0.58026E-06   672   0.905E-06   0.143E-05
DMP:  43    -0.609801262365E+02   -0.61378E-06   -0.55854E-06   672   0.882E-06   0.135E-05
DMP:  44    -0.609801267990E+02   -0.56252E-06   -0.58008E-06   672   0.998E-06   0.118E-05
DMP:  45    -0.609801273190E+02   -0.51996E-06   -0.73662E-06   672   0.151E-05   0.858E-06
DMP:  46    -0.609801276419E+02   -0.32296E-06   -0.15990E-05   672   0.414E-05  -0.378E-06
DMP:  47    -0.609801275618E+02    0.80159E-07   -0.51549E-05   672   0.147E-04  -0.480E-05
DMP:  48    -0.609801251437E+02    0.24181E-05   -0.22430E-04   672   0.656E-04  -0.249E-04
DMP:  49    -0.609801121944E+02    0.12949E-04   -0.10782E-03   672   0.316E-03  -0.122E-03
DMP:  50    -0.609800476131E+02    0.64581E-04   -0.48157E-03   672   0.143E-02  -0.592E-03
DMP:  51    -0.609798153444E+02    0.23227E-03   -0.17198E-02   672   0.520E-02  -0.237E-02
DMP:  52    -0.609791612688E+02    0.65408E-03   -0.48437E-02   672   0.150E-01  -0.757E-02
DMP:  53    -0.609778620379E+02    0.12992E-02   -0.10792E-01   672   0.341E-01  -0.186E-01
DMP:  54    -0.609753986421E+02    0.24634E-02   -0.21798E-01   672   0.695E-01  -0.393E-01
DMP:  55    -0.609711811131E+02    0.42175E-02   -0.41529E-01   672   0.133E+00  -0.755E-01
DMP:  56    -0.609630687243E+02    0.81124E-02   -0.73961E-01   672   0.240E+00  -0.144E+00
DMP:  57    -0.609551829050E+02    0.78858E-02   -0.10139E+00   672   0.339E+00  -0.224E+00
DMP:  58    -0.609514458567E+02    0.37370E-02   -0.10486E+00   672   0.366E+00  -0.271E+00
DMP:  59    -0.609583168992E+02   -0.68710E-02   -0.74109E-01   672   0.272E+00  -0.227E+00
DMP:  60    -0.609674355154E+02   -0.91186E-02   -0.38375E-01   672   0.149E+00  -0.139E+00
DMP:  61    -0.609755408676E+02   -0.81054E-02   -0.13304E-01   672   0.544E-01  -0.554E-01
DMP:  62    -0.609784914492E+02   -0.29506E-02   -0.45313E-02   672   0.184E-01  -0.184E-01
DMP:  63    -0.609793951118E+02   -0.90366E-03   -0.23882E-02   672   0.857E-02  -0.682E-02
DMP:  64    -0.609796749402E+02   -0.27983E-03   -0.14242E-02   672   0.531E-02  -0.458E-02
DMP:  65    -0.609799180331E+02   -0.24309E-03   -0.71320E-03   672   0.268E-02  -0.234E-02
DMP:  66    -0.609799578299E+02   -0.39797E-04   -0.61671E-03   672   0.215E-02  -0.158E-02
DMP:  67    -0.609800178067E+02   -0.59977E-04   -0.40325E-03   672   0.149E-02  -0.125E-02
DMP:  68    -0.609800575992E+02   -0.39792E-04   -0.23857E-03   672   0.903E-03  -0.802E-03
DMP:  69    -0.609801004238E+02   -0.42825E-04   -0.11760E-03   672   0.442E-03  -0.388E-03
DMP:  70    -0.609801085550E+02   -0.81312E-05   -0.80080E-04   672   0.295E-03  -0.249E-03
DMP:  71    -0.609801204775E+02   -0.11922E-04   -0.47207E-04   672   0.173E-03  -0.144E-03
DMP:  72    -0.609801219773E+02   -0.14999E-05   -0.37176E-04   672   0.134E-03  -0.109E-03
DMP:  73    -0.609801267693E+02   -0.47920E-05   -0.23041E-04   672   0.845E-04  -0.704E-04
DMP:  74    -0.609801278678E+02   -0.10985E-05   -0.16688E-04   672   0.613E-04  -0.512E-04
DMP:  75    -0.609801304368E+02   -0.25690E-05   -0.91759E-05   672   0.343E-04  -0.296E-04
DMP:  76    -0.609801310768E+02   -0.63996E-06   -0.59319E-05   672   0.222E-04  -0.193E-04
DMP:  77    -0.609801321929E+02   -0.11162E-05   -0.27846E-05   672   0.107E-04  -0.966E-05
DMP:  78    -0.609801324812E+02   -0.28825E-06   -0.15337E-05   672   0.586E-05  -0.531E-05
DMP:  79    -0.609801328506E+02   -0.36943E-06   -0.58829E-06   672   0.231E-05  -0.219E-05
DMP:  80    -0.609801329575E+02   -0.10692E-06   -0.25276E-06   672   0.969E-06  -0.883E-06
DMP:  81    -0.609801330543E+02   -0.96750E-07   -0.82851E-07   672   0.295E-06  -0.230E-06
   3 F= -.60980133E+02 E0= -.60980133E+02  d E =-.183281E+00
       N       E                     dE             d eps       ncg     rms           ort
SDA:   1    -0.609793627507E+02    0.77021E-03   -0.16932E-02   672   0.423E-02   0.000E+00
DMP:   2    -0.609800404911E+02   -0.67774E-03   -0.22758E-03   672   0.857E-03  -0.754E-03
DMP:   3    -0.609801613302E+02   -0.12084E-03   -0.16920E-03   672   0.409E-03   0.372E-04
DMP:   4    -0.609802308159E+02   -0.69486E-04   -0.26920E-04   672   0.106E-03  -0.100E-03
DMP:   5    -0.609802429564E+02   -0.12140E-04   -0.25533E-04   672   0.675E-04  -0.973E-05
DMP:   6    -0.609802503356E+02   -0.73792E-05   -0.62692E-05   672   0.228E-04  -0.187E-04
DMP:   7    -0.609802538474E+02   -0.35118E-05   -0.36362E-05   672   0.844E-05   0.170E-05
DMP:   8    -0.609802558454E+02   -0.19980E-05   -0.85500E-06   672   0.271E-05  -0.149E-05
DMP:   9    -0.609802562091E+02   -0.36376E-06   -0.51675E-06   672   0.132E-05  -0.822E-07
DMP:  10    -0.609802561334E+02    0.75704E-07   -0.13587E-06   672   0.476E-06  -0.357E-06
DMP:  11    -0.609802561956E+02   -0.62211E-07   -0.80262E-07   672   0.190E-06   0.285E-07
   4 F= -.60980256E+02 E0= -.60980256E+02  d E =-.183404E+00
       N       E                     dE             d eps       ncg     rms           ort
SDA:   1    -0.603826050538E+02    0.59765E+00   -0.71715E+00   672   0.179E+01   0.000E+00
DMP:   2    -0.608209320315E+02   -0.43833E+00   -0.19769E+00   672   0.342E+00   0.398E+00
DMP:   3    -0.609340865373E+02   -0.11315E+00   -0.62187E-01   672   0.128E+00   0.720E-01
DMP:   4    -0.609634535261E+02   -0.29367E-01   -0.11870E-01   672   0.329E-01  -0.837E-02
DMP:   5    -0.609676298928E+02   -0.41764E-02   -0.80274E-02   672   0.234E-01  -0.884E-02
DMP:   6    -0.609719146902E+02   -0.42848E-02   -0.36788E-02   672   0.866E-02   0.139E-02
DMP:   7    -0.609740380910E+02   -0.21234E-02   -0.16037E-02   672   0.346E-02   0.144E-02
DMP:   8    -0.609749753160E+02   -0.93723E-03   -0.50102E-03   672   0.999E-03   0.665E-03
DMP:   9    -0.609752424160E+02   -0.26710E-03   -0.18781E-03   672   0.441E-03   0.755E-04
DMP:  10    -0.609753395122E+02   -0.97096E-04   -0.72042E-04   672   0.169E-03   0.284E-04
DMP:  11    -0.609753770569E+02   -0.37545E-04   -0.32065E-04   672   0.742E-04   0.156E-04
DMP:  12    -0.609753959524E+02   -0.18895E-04   -0.14716E-04   672   0.313E-04   0.143E-04
DMP:  13    -0.609754045298E+02   -0.85774E-05   -0.79210E-05   672   0.176E-04   0.571E-05
DMP:  14    -0.609754087959E+02   -0.42661E-05   -0.49648E-05   672   0.116E-04   0.225E-05
DMP:  15    -0.609754110435E+02   -0.22476E-05   -0.35283E-05   672   0.898E-05  -0.423E-06
DMP:  16    -0.609754121128E+02   -0.10693E-05   -0.33935E-05   672   0.971E-05  -0.321E-05
DMP:  17    -0.609754128486E+02   -0.73578E-06   -0.32690E-05   672   0.997E-05  -0.470E-05
DMP:  18    -0.609754131352E+02   -0.28660E-06   -0.37643E-05   672   0.120E-04  -0.665E-05
DMP:  19    -0.609754133079E+02   -0.17266E-06   -0.45140E-05   672   0.145E-04  -0.839E-05
DMP:  20    -0.609754130838E+02    0.22407E-06   -0.58521E-05   672   0.193E-04  -0.123E-04
DMP:  21    -0.609754131767E+02   -0.92899E-07   -0.56485E-05   672   0.195E-04  -0.141E-04
DMP:  22    -0.609754136005E+02   -0.42386E-06   -0.39180E-05   672   0.143E-04  -0.119E-04
DMP:  23    -0.609754142318E+02   -0.63122E-06   -0.21024E-05   672   0.779E-05  -0.664E-05
DMP:  24    -0.609754145206E+02   -0.28879E-06   -0.13745E-05   672   0.486E-05  -0.372E-05
DMP:  25    -0.609754146417E+02   -0.12117E-06   -0.11439E-05   672   0.395E-05  -0.285E-05
DMP:  26    -0.609754146707E+02   -0.29013E-07   -0.12052E-05   672   0.403E-05  -0.267E-05
DMP:  27    -0.609754146727E+02   -0.20061E-08   -0.13941E-05   672   0.464E-05  -0.302E-05
DMP:  28    -0.609754145939E+02    0.78824E-07   -0.16025E-05   672   0.548E-05  -0.385E-05
DMP:  29    -0.609754147139E+02   -0.11999E-06   -0.12579E-05   672   0.446E-05  -0.344E-05
DMP:  30    -0.609754147971E+02   -0.83207E-07   -0.85717E-06   672   0.318E-05  -0.270E-05
DMP:  31    -0.609754149779E+02   -0.18082E-06   -0.35360E-06   672   0.137E-05  -0.126E-05
DMP:  32    -0.609754150450E+02   -0.67072E-07   -0.15925E-06   672   0.607E-06  -0.546E-06
DMP:  33    -0.609754150926E+02   -0.47562E-07   -0.70721E-07   672   0.240E-06  -0.166E-06
   5 F= -.60975415E+02 E0= -.60975415E+02  d E =0.484110E-02
       N       E                     dE             d eps       ncg     rms           ort
SDA:   1    -0.607893065500E+02    0.18611E+00   -0.19951E+00   672   0.499E+00   0.000E+00
DMP:   2    -0.609229660500E+02   -0.13366E+00   -0.75415E-01   672   0.124E+00   0.169E+00
DMP:   3    -0.609689714197E+02   -0.46005E-01   -0.26647E-01   672   0.508E-01   0.414E-01
DMP:   4    -0.609823342491E+02   -0.13363E-01   -0.45924E-02   672   0.113E-01   0.476E-03
DMP:   5    -0.609839521686E+02   -0.16179E-02   -0.20855E-02   672   0.648E-02  -0.332E-02
DMP:   6    -0.609850059585E+02   -0.10538E-02   -0.10579E-02   672   0.263E-02   0.331E-04
DMP:   7    -0.609856641017E+02   -0.65814E-03   -0.61486E-03   672   0.129E-02   0.642E-03
DMP:   8    -0.609860409981E+02   -0.37690E-03   -0.21902E-03   672   0.410E-03   0.361E-03
DMP:   9    -0.609861672688E+02   -0.12627E-03   -0.63249E-04   672   0.125E-03   0.877E-04
DMP:  10    -0.609862006773E+02   -0.33408E-04   -0.20364E-04   672   0.486E-04   0.603E-05
DMP:  11    -0.609862122885E+02   -0.11611E-04   -0.10635E-04   672   0.243E-04   0.600E-05
DMP:  12    -0.609862185234E+02   -0.62349E-05   -0.50346E-05   672   0.105E-04   0.552E-05
DMP:  13    -0.609862218966E+02   -0.33732E-05   -0.23647E-05   672   0.427E-05   0.431E-05
DMP:  14    -0.609862236105E+02   -0.17139E-05   -0.98790E-06   672   0.170E-05   0.202E-05
DMP:  15    -0.609862244088E+02   -0.79825E-06   -0.54489E-06   672   0.934E-06   0.112E-05
DMP:  16    -0.609862248554E+02   -0.44660E-06   -0.33118E-06   672   0.528E-06   0.786E-06
DMP:  17    -0.609862251532E+02   -0.29782E-06   -0.22244E-06   672   0.334E-06   0.580E-06
DMP:  18    -0.609862253740E+02   -0.22086E-06   -0.15380E-06   672   0.222E-06   0.426E-06
DMP:  19    -0.609862255318E+02   -0.15771E-06   -0.11123E-06   672   0.158E-06   0.313E-06
DMP:  20    -0.609862256453E+02   -0.11360E-06   -0.83089E-07   672   0.118E-06   0.236E-06
DMP:  21    -0.609862257330E+02   -0.87679E-07   -0.63367E-07   672   0.895E-07   0.181E-06
   6 F= -.60986226E+02 E0= -.60986226E+02  d E =-.596954E-02
       N       E                     dE             d eps       ncg     rms           ort
SDA:   1    -0.609657058972E+02    0.20520E-01   -0.22610E-01   672   0.565E-01   0.000E+00
DMP:   2    -0.609809727804E+02   -0.15267E-01   -0.83337E-02   672   0.132E-01   0.199E-01
DMP:   3    -0.609858641908E+02   -0.48914E-02   -0.17863E-02   672   0.308E-02   0.363E-02
DMP:   4    -0.609866602306E+02   -0.79604E-03   -0.41748E-03   672   0.124E-02  -0.510E-03
DMP:   5    -0.609868332904E+02   -0.17306E-03   -0.25907E-03   672   0.717E-03  -0.181E-03
DMP:   6    -0.609869764537E+02   -0.14316E-03   -0.12559E-03   672   0.284E-03   0.785E-04
DMP:   7    -0.609870533071E+02   -0.76853E-04   -0.51642E-04   672   0.102E-03   0.721E-04
DMP:   8    -0.609870841248E+02   -0.30818E-04   -0.18079E-04   672   0.361E-04   0.237E-04
DMP:   9    -0.609870942057E+02   -0.10081E-04   -0.64889E-05   672   0.139E-04   0.601E-05
DMP:  10    -0.609870974388E+02   -0.32332E-05   -0.23942E-05   672   0.548E-05   0.133E-05
DMP:  11    -0.609870987967E+02   -0.13578E-05   -0.10578E-05   672   0.233E-05   0.821E-06
DMP:  12    -0.609870995137E+02   -0.71708E-06   -0.52921E-06   672   0.114E-05   0.473E-06
DMP:  13    -0.609870998226E+02   -0.30882E-06   -0.31763E-06   672   0.737E-06   0.150E-06
DMP:  14    -0.609870999047E+02   -0.82156E-07   -0.31343E-06   672   0.871E-06  -0.229E-06
DMP:  15    -0.609870999395E+02   -0.34733E-07   -0.43207E-06   672   0.131E-05  -0.595E-06
DMP:  16    -0.609870999123E+02    0.27130E-07   -0.69152E-06   672   0.221E-05  -0.126E-05
DMP:  17    -0.609870998986E+02    0.13685E-07   -0.81632E-06   672   0.273E-05  -0.181E-05
DMP:  18    -0.609870998984E+02    0.24215E-09   -0.76942E-06   672   0.270E-05  -0.202E-05
DMP:  19    -0.609870999696E+02   -0.71206E-07   -0.61040E-06   672   0.212E-05  -0.156E-05
DMP:  20    -0.609870999178E+02    0.51782E-07   -0.94218E-06   672   0.303E-05  -0.178E-05
DMP:  21    -0.609870997927E+02    0.12512E-06   -0.15265E-05   672   0.495E-05  -0.297E-05
DMP:  22    -0.609870996021E+02    0.19063E-06   -0.21027E-05   672   0.708E-05  -0.476E-05
DMP:  23    -0.609870996291E+02   -0.26991E-07   -0.17983E-05   672   0.645E-05  -0.511E-05
DMP:  24    -0.609870998308E+02   -0.20172E-06   -0.88933E-06   672   0.355E-05  -0.348E-05
DMP:  25    -0.609871000709E+02   -0.24014E-06   -0.15662E-06   672   0.780E-06  -0.102E-05
DMP:  26    -0.609871001102E+02   -0.39249E-07   -0.12604E-06   672   0.387E-06  -0.187E-06
DMP:  27    -0.609871000947E+02    0.15455E-07   -0.17723E-06   672   0.592E-06  -0.390E-06
DMP:  28    -0.609871000917E+02    0.30113E-08   -0.18058E-06   672   0.624E-06  -0.452E-06
DMP:  29    -0.609871000951E+02   -0.34267E-08   -0.19808E-06   672   0.661E-06  -0.433E-06
DMP:  30    -0.609871000728E+02    0.22309E-07   -0.26121E-06   672   0.883E-06  -0.602E-06
DMP:  31    -0.609871000770E+02   -0.42226E-08   -0.27153E-06   672   0.920E-06  -0.633E-06
DMP:  32    -0.609871000537E+02    0.23336E-07   -0.33133E-06   672   0.113E-05  -0.792E-06
DMP:  33    -0.609871000649E+02   -0.11182E-07   -0.31436E-06   672   0.108E-05  -0.774E-06
DMP:  34    -0.609871000491E+02    0.15823E-07   -0.33823E-06   672   0.117E-05  -0.862E-06
DMP:  35    -0.609871000711E+02   -0.22038E-07   -0.28227E-06   672   0.988E-06  -0.738E-06
DMP:  36    -0.609871000637E+02    0.73580E-08   -0.27857E-06   672   0.979E-06  -0.739E-06
DMP:  37    -0.609871000869E+02   -0.23190E-07   -0.21411E-06   672   0.758E-06  -0.583E-06
DMP:  38    -0.609871000855E+02    0.13938E-08   -0.19537E-06   672   0.694E-06  -0.539E-06
DMP:  39    -0.609871001055E+02   -0.20020E-07   -0.13639E-06   672   0.490E-06  -0.391E-06
DMP:  40    -0.609871001080E+02   -0.24504E-08   -0.11226E-06   672   0.405E-06  -0.326E-06
DMP:  41    -0.609871001222E+02   -0.14199E-07   -0.69370E-07   672   0.254E-06  -0.211E-06
   7 F= -.60987100E+02 E0= -.60987100E+02  d E =-.874389E-03
       N       E                     dE             d eps       ncg     rms           ort
SDA:   1    -0.609836262004E+02    0.34739E-02   -0.37653E-02   672   0.941E-02   0.000E+00
DMP:   2    -0.609861640932E+02   -0.25379E-02   -0.13881E-02   672   0.220E-02   0.332E-02
DMP:   3    -0.609869795527E+02   -0.81546E-03   -0.29885E-03   672   0.514E-03   0.609E-03
DMP:   4    -0.609871151106E+02   -0.13556E-03   -0.70527E-04   672   0.207E-03  -0.805E-04
DMP:   5    -0.609871451556E+02   -0.30045E-04   -0.43353E-04   672   0.119E-03  -0.283E-04
DMP:   6    -0.609871687815E+02   -0.23626E-04   -0.20894E-04   672   0.471E-04   0.133E-04
DMP:   7    -0.609871815221E+02   -0.12741E-04   -0.85893E-05   672   0.169E-04   0.120E-04
DMP:   8    -0.609871867245E+02   -0.52025E-05   -0.30371E-05   672   0.607E-05   0.398E-05
DMP:   9    -0.609871883903E+02   -0.16658E-05   -0.11057E-05   672   0.235E-05   0.108E-05
DMP:  10    -0.609871888798E+02   -0.48950E-06   -0.40969E-06   672   0.924E-06   0.263E-06
DMP:  11    -0.609871891111E+02   -0.23133E-06   -0.18095E-06   672   0.394E-06   0.154E-06
DMP:  12    -0.609871892555E+02   -0.14437E-06   -0.90097E-07   672   0.192E-06   0.872E-07
DMP:  13    -0.609871893101E+02   -0.54554E-07   -0.52550E-07   672   0.119E-06   0.325E-07
   8 F= -.60987189E+02 E0= -.60987189E+02  d E =-.963577E-03
       N       E                     dE             d eps       ncg     rms           ort
SDA:   1    -0.609684548854E+02    0.18734E-01   -0.19845E-01   672   0.496E-01   0.000E+00
DMP:   2    -0.609813734232E+02   -0.12919E-01   -0.69816E-02   672   0.118E-01   0.148E-01
DMP:   3    -0.609857650365E+02   -0.43916E-02   -0.27888E-02   672   0.526E-02   0.448E-02
DMP:   4    -0.609871308909E+02   -0.13659E-02   -0.43548E-03   672   0.112E-02  -0.712E-04
DMP:   5    -0.609872930530E+02   -0.16216E-03   -0.20676E-03   672   0.618E-03  -0.263E-03
DMP:   6    -0.609873894735E+02   -0.96421E-04   -0.90450E-04   672   0.243E-03  -0.438E-04
DMP:   7    -0.609874443396E+02   -0.54866E-04   -0.57509E-04   672   0.125E-03   0.501E-04
DMP:   8    -0.609874765922E+02   -0.32253E-04   -0.20712E-04   672   0.419E-04   0.260E-04
DMP:   9    -0.609874896917E+02   -0.13100E-04   -0.84715E-05   672   0.156E-04   0.145E-04
DMP:  10    -0.609874951407E+02   -0.54490E-05   -0.25738E-05   672   0.508E-05   0.354E-05
DMP:  11    -0.609874968809E+02   -0.17402E-05   -0.12496E-05   672   0.255E-05   0.151E-05
DMP:  12    -0.609874975233E+02   -0.64235E-06   -0.50124E-06   672   0.978E-06   0.720E-06
DMP:  13    -0.609874978609E+02   -0.33758E-06   -0.26736E-06   672   0.475E-06   0.505E-06
DMP:  14    -0.609874981195E+02   -0.25864E-06   -0.12911E-06   672   0.208E-06   0.302E-06
DMP:  15    -0.609874982527E+02   -0.13316E-06   -0.75304E-07   672   0.119E-06   0.182E-06
DMP:  16    -0.609874983098E+02   -0.57176E-07   -0.46617E-07   672   0.709E-07   0.119E-06
   9 F= -.60987498E+02 E0= -.60987498E+02  d E =-.309000E-03
       N       E                     dE             d eps       ncg     rms           ort
SDA:   1    -0.609863642757E+02    0.11340E-02   -0.15048E-02   672   0.376E-02   0.000E+00
DMP:   2    -0.609872143024E+02   -0.85003E-03   -0.41067E-03   672   0.819E-03   0.543E-03
DMP:   3    -0.609874554114E+02   -0.24111E-03   -0.13365E-03   672   0.265E-03   0.181E-03
DMP:   4    -0.609875147747E+02   -0.59363E-04   -0.22554E-04   672   0.758E-04  -0.507E-04
DMP:   5    -0.609875227824E+02   -0.80078E-05   -0.17823E-04   672   0.509E-04  -0.167E-04
DMP:   6    -0.609875297402E+02   -0.69577E-05   -0.74556E-05   672   0.201E-04  -0.378E-05
DMP:   7    -0.609875342474E+02   -0.45073E-05   -0.34576E-05   672   0.714E-05   0.392E-05
DMP:   8    -0.609875364073E+02   -0.21599E-05   -0.10094E-05   672   0.233E-05   0.518E-06
DMP:   9    -0.609875369256E+02   -0.51835E-06   -0.40383E-06   672   0.954E-06   0.145E-06
DMP:  10    -0.609875369382E+02   -0.12536E-07   -0.13032E-06   672   0.377E-06  -0.133E-06
DMP:  11    -0.609875369996E+02   -0.61476E-07   -0.66528E-07   672   0.155E-06   0.299E-07
  10 F= -.60987537E+02 E0= -.60987537E+02  d E =-.347690E-03
       N       E                     dE             d eps       ncg     rms           ort
SDA:   1    -0.609840863518E+02    0.34506E-02   -0.36352E-02   672   0.909E-02   0.000E+00
DMP:   2    -0.609865278353E+02   -0.24415E-02   -0.13089E-02   672   0.209E-02   0.310E-02
DMP:   3    -0.609872991007E+02   -0.77127E-03   -0.45534E-03   672   0.917E-03   0.580E-03
DMP:   4    -0.609875377764E+02   -0.23868E-03   -0.85145E-04   672   0.188E-03   0.661E-04
DMP:   5    -0.609875641408E+02   -0.26364E-04   -0.32290E-04   672   0.111E-03  -0.798E-04
DMP:   6    -0.609875815840E+02   -0.17443E-04   -0.20923E-04   672   0.506E-04   0.442E-05
DMP:   7    -0.609875940880E+02   -0.12504E-04   -0.10243E-04   672   0.216E-04   0.104E-04
DMP:   8    -0.609876002443E+02   -0.61563E-05   -0.41304E-05   672   0.778E-05   0.667E-05
DMP:   9    -0.609876026840E+02   -0.24397E-05   -0.13138E-05   672   0.245E-05   0.218E-05
DMP:  10    -0.609876035066E+02   -0.82258E-06   -0.46571E-06   672   0.984E-06   0.473E-06
DMP:  11    -0.609876038170E+02   -0.31033E-06   -0.22665E-06   672   0.470E-06   0.252E-06
DMP:  12    -0.609876039469E+02   -0.12994E-06   -0.11424E-06   672   0.213E-06   0.189E-06
DMP:  13    -0.609876040191E+02   -0.72179E-07   -0.57099E-07   672   0.958E-07   0.123E-06
  11 F= -.60987604E+02 E0= -.60987604E+02  d E =-.670194E-04
       N       E                     dE             d eps       ncg     rms           ort
SDA:   1    -0.609876021740E+02    0.17729E-05   -0.19139E-05   672   0.478E-05   0.000E+00
DMP:   2    -0.609876035833E+02   -0.14093E-05   -0.71513E-06   672   0.115E-05   0.168E-05
DMP:   3    -0.609876040409E+02   -0.45762E-06   -0.26885E-06   672   0.520E-06   0.398E-06
DMP:   4    -0.609876041561E+02   -0.11516E-06   -0.61060E-07   672   0.118E-06   0.918E-07
DMP:   5    -0.609876041879E+02   -0.31881E-07   -0.26149E-07   672   0.690E-07  -0.939E-08
  12 F= -.60987604E+02 E0= -.60987604E+02  d E =-.671883E-04
       N       E                     dE             d eps       ncg     rms           ort
SDA:   1    -0.609845264316E+02    0.30777E-02   -0.33714E-02   672   0.843E-02   0.000E+00
DMP:   2    -0.609867395210E+02   -0.22131E-02   -0.11474E-02   672   0.186E-02   0.265E-02
DMP:   3    -0.609874178500E+02   -0.67833E-03   -0.35627E-03   672   0.689E-03   0.527E-03
DMP:   4    -0.609876000400E+02   -0.18219E-03   -0.63368E-04   672   0.149E-03   0.254E-04
DMP:   5    -0.609876181325E+02   -0.18092E-04   -0.30272E-04   672   0.101E-03  -0.676E-04
DMP:   6    -0.609876348428E+02   -0.16710E-04   -0.19887E-04   672   0.464E-04   0.856E-05
DMP:   7    -0.609876469991E+02   -0.12156E-04   -0.93577E-05   672   0.189E-04   0.116E-04
DMP:   8    -0.609876529506E+02   -0.59515E-05   -0.36284E-05   672   0.660E-05   0.646E-05
DMP:   9    -0.609876551497E+02   -0.21991E-05   -0.11562E-05   672   0.222E-05   0.175E-05
DMP:  10    -0.609876558223E+02   -0.67255E-06   -0.47390E-06   672   0.105E-05   0.352E-06
DMP:  11    -0.609876560832E+02   -0.26092E-06   -0.30805E-06   672   0.734E-06   0.936E-07
DMP:  12    -0.609876562001E+02   -0.11687E-06   -0.32372E-06   672   0.878E-06  -0.179E-06
DMP:  13    -0.609876562473E+02   -0.47266E-07   -0.38941E-06   672   0.117E-05  -0.523E-06
DMP:  14    -0.609876562629E+02   -0.15583E-07   -0.46281E-06   672   0.151E-05  -0.921E-06
DMP:  15    -0.609876562917E+02   -0.28762E-07   -0.40771E-06   672   0.139E-05  -0.961E-06
DMP:  16    -0.609876563239E+02   -0.32205E-07   -0.32568E-06   672   0.116E-05  -0.900E-06
DMP:  17    -0.609876563725E+02   -0.48658E-07   -0.17206E-06   672   0.632E-06  -0.527E-06
DMP:  18    -0.609876564016E+02   -0.29030E-07   -0.98703E-07   672   0.363E-06  -0.305E-06
  13 F= -.60987656E+02 E0= -.60987656E+02  d E =-.522136E-04
       N       E                     dE             d eps       ncg     rms           ort
SDA:   1    -0.609874417841E+02    0.21459E-03   -0.23234E-03   672   0.581E-03   0.000E+00
DMP:   2    -0.609875943699E+02   -0.15259E-03   -0.79701E-04   672   0.129E-03   0.184E-03
DMP:   3    -0.609876417130E+02   -0.47343E-04   -0.25067E-04   672   0.481E-04   0.382E-04
DMP:   4    -0.609876547895E+02   -0.13076E-04   -0.46388E-05   672   0.105E-04   0.296E-05
DMP:   5    -0.609876562655E+02   -0.14760E-05   -0.21020E-05   672   0.691E-05  -0.432E-05
DMP:   6    -0.609876574188E+02   -0.11533E-05   -0.13510E-05   672   0.316E-05   0.571E-06
DMP:   7    -0.609876582374E+02   -0.81855E-06   -0.64403E-06   672   0.131E-05   0.793E-06
DMP:   8    -0.609876586508E+02   -0.41339E-06   -0.25715E-06   672   0.468E-06   0.459E-06
DMP:   9    -0.609876588161E+02   -0.16530E-06   -0.88281E-07   672   0.168E-06   0.137E-06
DMP:  10    -0.609876588718E+02   -0.55759E-07   -0.40692E-07   672   0.905E-07   0.295E-07
  14 F= -.60987659E+02 E0= -.60987659E+02  d E =-.546839E-04
       N       E                     dE             d eps       ncg     rms           ort
SDA:   1    -0.609876458708E+02    0.12945E-04   -0.13127E-04   672   0.328E-04   0.000E+00
DMP:   2    -0.609876547498E+02   -0.88790E-05   -0.46437E-05   672   0.731E-05   0.113E-04
DMP:   3    -0.609876576345E+02   -0.28847E-05   -0.15825E-05   672   0.295E-05   0.264E-05
DMP:   4    -0.609876585064E+02   -0.87188E-06   -0.32943E-06   672   0.653E-06   0.448E-06
DMP:   5    -0.609876586214E+02   -0.11499E-06   -0.11381E-06   672   0.363E-06  -0.206E-06
DMP:   6    -0.609876586784E+02   -0.57016E-07   -0.64688E-07   672   0.158E-06   0.891E-08
  15 F= -.60987659E+02 E0= -.60987659E+02  d E =-.544904E-04
       N       E                     dE             d eps       ncg     rms           ort
SDA:   1    -0.609876279055E+02    0.30716E-04   -0.30638E-04   672   0.766E-04   0.000E+00
DMP:   2    -0.609876486242E+02   -0.20719E-04   -0.10791E-04   672   0.168E-04   0.265E-04
DMP:   3    -0.609876552639E+02   -0.66398E-05   -0.36502E-05   672   0.685E-05   0.595E-05
DMP:   4    -0.609876572990E+02   -0.20350E-05   -0.80997E-06   672   0.159E-05   0.114E-05
DMP:   5    -0.609876576074E+02   -0.30846E-06   -0.27403E-06   672   0.846E-06  -0.420E-06
DMP:   6    -0.609876577504E+02   -0.14293E-06   -0.15842E-06   672   0.380E-06   0.412E-07
DMP:   7    -0.609876578483E+02   -0.97905E-07   -0.73892E-07   672   0.154E-06   0.795E-07
  16 F= -.60987658E+02 E0= -.60987658E+02  d E =-.536603E-04
       N       E                     dE             d eps       ncg     rms           ort
SDA:   1    -0.609873680084E+02    0.28974E-03   -0.33685E-03   672   0.842E-03   0.000E+00
DMP:   2    -0.609875827481E+02   -0.21474E-03   -0.11132E-03   672   0.185E-03   0.244E-03
DMP:   3    -0.609876473614E+02   -0.64613E-04   -0.29091E-04   672   0.558E-04   0.443E-04
DMP:   4    -0.609876619236E+02   -0.14562E-04   -0.72484E-05   672   0.194E-04  -0.344E-05
DMP:   5    -0.609876649608E+02   -0.30372E-05   -0.39153E-05   672   0.110E-04  -0.315E-05
DMP:   6    -0.609876668599E+02   -0.18991E-05   -0.19988E-05   672   0.464E-05   0.924E-06
DMP:   7    -0.609876681483E+02   -0.12884E-05   -0.92079E-06   672   0.178E-05   0.137E-05
DMP:   8    -0.609876688058E+02   -0.65745E-06   -0.35565E-06   672   0.661E-06   0.596E-06
DMP:   9    -0.609876690202E+02   -0.21440E-06   -0.14405E-06   672   0.274E-06   0.225E-06
DMP:  10    -0.609876690731E+02   -0.52940E-07   -0.64571E-07   672   0.123E-06   0.995E-07
  17 F= -.60987669E+02 E0= -.60987669E+02  d E =-.112248E-04
       N       E                     dE             d eps       ncg     rms           ort
SDA:   1    -0.609876647752E+02    0.42450E-05   -0.55624E-05   672   0.139E-04   0.000E+00
DMP:   2    -0.609876681152E+02   -0.33400E-05   -0.19010E-05   672   0.315E-05   0.420E-05
DMP:   3    -0.609876692494E+02   -0.11342E-05   -0.51613E-06   672   0.962E-06   0.861E-06
DMP:   4    -0.609876695986E+02   -0.34916E-06   -0.13697E-06   672   0.337E-06   0.145E-07
DMP:   5    -0.609876696696E+02   -0.71054E-07   -0.77431E-07   672   0.201E-06  -0.195E-07
  18 F= -.60987670E+02 E0= -.60987670E+02  d E =-.118213E-04
       N       E                     dE             d eps       ncg     rms           ort
SDA:   1    -0.609876519192E+02    0.17679E-04   -0.21164E-04   672   0.529E-04   0.000E+00
DMP:   2    -0.609876648314E+02   -0.12912E-04   -0.67096E-05   672   0.112E-04   0.146E-04
DMP:   3    -0.609876686832E+02   -0.38518E-05   -0.18340E-05   672   0.368E-05   0.238E-05
DMP:   4    -0.609876697671E+02   -0.10839E-05   -0.51562E-06   672   0.131E-05  -0.590E-07
DMP:   5    -0.609876700156E+02   -0.24851E-06   -0.27015E-06   672   0.720E-06  -0.116E-06
DMP:   6    -0.609876701120E+02   -0.96438E-07   -0.13782E-06   672   0.308E-06   0.951E-07
DMP:   7    -0.609876702059E+02   -0.93823E-07   -0.65234E-07   672   0.122E-06   0.107E-06
  19 F= -.60987670E+02 E0= -.60987670E+02  d E =-.123576E-04
       N       E                     dE             d eps       ncg     rms           ort
SDA:   1    -0.609874699228E+02    0.20019E-03   -0.18451E-03   672   0.461E-03   0.000E+00
DMP:   2    -0.609876046282E+02   -0.13471E-03   -0.82670E-04   672   0.127E-03   0.208E-03
DMP:   3    -0.609876572797E+02   -0.52652E-04   -0.23385E-04   672   0.373E-04   0.553E-04
DMP:   4    -0.609876701381E+02   -0.12858E-04   -0.53739E-05   672   0.107E-04   0.714E-05
DMP:   5    -0.609876726508E+02   -0.25127E-05   -0.20018E-05   672   0.519E-05  -0.485E-06
DMP:   6    -0.609876738966E+02   -0.12458E-05   -0.12070E-05   672   0.263E-05   0.100E-05
DMP:   7    -0.609876747245E+02   -0.82792E-06   -0.61423E-06   672   0.114E-05   0.105E-05
DMP:   8    -0.609876751376E+02   -0.41317E-06   -0.26374E-06   672   0.441E-06   0.572E-06
DMP:   9    -0.609876753301E+02   -0.19241E-06   -0.11079E-06   672   0.179E-06   0.257E-06
DMP:  10    -0.609876754241E+02   -0.94065E-07   -0.53677E-07   672   0.862E-07   0.126E-06
  20 F= -.60987675E+02 E0= -.60987675E+02  d E =-.521825E-05
       N       E                     dE             d eps       ncg     rms           ort
SDA:   1    -0.609876744907E+02    0.83932E-06   -0.91492E-06   672   0.229E-05   0.000E+00
DMP:   2    -0.609876752202E+02   -0.72947E-06   -0.42726E-06   672   0.665E-06   0.105E-05
DMP:   3    -0.609876755159E+02   -0.29568E-06   -0.13312E-06   672   0.211E-06   0.320E-06
DMP:   4    -0.609876755807E+02   -0.64855E-07   -0.37791E-07   672   0.680E-07   0.692E-07
  21 F= -.60987676E+02 E0= -.60987676E+02  d E =-.537486E-05
       N       E                     dE             d eps       ncg     rms           ort
SDA:   1    -0.609876718951E+02    0.36208E-05   -0.33186E-05   672   0.830E-05   0.000E+00
DMP:   2    -0.609876744195E+02   -0.25244E-05   -0.14757E-05   672   0.229E-05   0.366E-05
DMP:   3    -0.609876754023E+02   -0.98275E-06   -0.46008E-06   672   0.753E-06   0.104E-05
DMP:   4    -0.609876756363E+02   -0.23408E-06   -0.11562E-06   672   0.212E-06   0.203E-06
DMP:   5    -0.609876756904E+02   -0.54100E-07   -0.44482E-07   672   0.103E-06   0.208E-07
  22 F= -.60987676E+02 E0= -.60987676E+02  d E =-.548457E-05
       N       E                     dE             d eps       ncg     rms           ort
SDA:   1    -0.609876605511E+02    0.15085E-04   -0.13447E-04   672   0.336E-04   0.000E+00
DMP:   2    -0.609876704889E+02   -0.99378E-05   -0.58738E-05   672   0.904E-05   0.148E-04
DMP:   3    -0.609876742742E+02   -0.37853E-05   -0.17285E-05   672   0.284E-05   0.388E-05
DMP:   4    -0.609876752008E+02   -0.92658E-06   -0.42932E-06   672   0.824E-06   0.652E-06
DMP:   5    -0.609876754015E+02   -0.20064E-06   -0.15726E-06   672   0.386E-06   0.188E-07
DMP:   6    -0.609876755132E+02   -0.11170E-06   -0.93712E-07   672   0.199E-06   0.927E-07
DMP:   7    -0.609876755834E+02   -0.70248E-07   -0.48770E-07   672   0.884E-07   0.878E-07
  23 F= -.60987676E+02 E0= -.60987676E+02  d E =-.537753E-05
       N       E                     dE             d eps       ncg     rms           ort
SDA:   1    -0.609875919355E+02    0.83578E-04   -0.81556E-04   672   0.204E-03   0.000E+00
DMP:   2    -0.609876496306E+02   -0.57695E-04   -0.33801E-04   672   0.533E-04   0.818E-04
DMP:   3    -0.609876705119E+02   -0.20881E-04   -0.10358E-04   672   0.185E-04   0.194E-04
DMP:   4    -0.609876760217E+02   -0.55098E-05   -0.23638E-05   672   0.490E-05   0.263E-05
DMP:   5    -0.609876770426E+02   -0.10209E-05   -0.85518E-06   672   0.241E-05  -0.703E-06
DMP:   6    -0.609876775895E+02   -0.54695E-06   -0.52993E-06   672   0.120E-05   0.320E-06
DMP:   7    -0.609876779468E+02   -0.35729E-06   -0.28054E-06   672   0.541E-06   0.419E-06
DMP:   8    -0.609876781138E+02   -0.16701E-06   -0.12145E-06   672   0.206E-06   0.256E-06
DMP:   9    -0.609876781915E+02   -0.77722E-07   -0.50083E-07   672   0.823E-07   0.112E-06
  24 F= -.60987678E+02 E0= -.60987678E+02  d E =-.260815E-05
