 vasp.6.5.1 10Mar25 (build May 05 2025 13:45:00) complex                        
  
 executed on             LinuxIFC date 2026.04.27  13:15:48
 running  112 mpi-ranks, on    1 nodes
 distrk:  each k-point on   28 cores,    4 groups
 distr:  one band on NCORE=   1 cores,   28 groups


--------------------------------------------------------------------------------------------------------


 INCAR:
   ALGO = Damped
   PREC = Normal
   LREAL = False
   EDIFF = 1e-07
   ENCUT = 400.0
   LASPH = True
   NELM = 100
   ISIF = 3
   IBRION = 2
   EDIFFG = -0.005
   NSW = 300
   ISMEAR = -5
   SIGMA = 0.1
   LWAVE = True
   LCHARG = False
   LORBIT = 10
   LHFCALC = True
   PRECFOCK = Fast
   AEXX = 0.36
   HFSCREEN = 0.2
   TIME = 0.4
   KPAR = 4

 POTCAR:    PAW_PBE Nd_3 06Sep2000                
 POTCAR:    PAW_PBE O 08Apr2002                   
 -----------------------------------------------------------------------------
|                                                                             |
|           W    W    AA    RRRRR   N    N  II  N    N   GGGG   !!!           |
|           W    W   A  A   R    R  NN   N  II  NN   N  G    G  !!!           |
|           W    W  A    A  R    R  N N  N  II  N N  N  G       !!!           |
|           W WW W  AAAAAA  RRRRR   N  N N  II  N  N N  G  GGG   !            |
|           WW  WW  A    A  R   R   N   NN  II  N   NN  G    G                |
|           W    W  A    A  R    R  N    N  II  N    N   GGGG   !!!           |
|                                                                             |
|     For optimal performance we recommend to set                             |
|       NCORE = 2 up to number-of-cores-per-socket                            |
|     NCORE specifies how many cores store one orbital (NPAR=cpu/NCORE).      |
|     This setting can greatly improve the performance of VASP for DFT.       |
|     The default, NCORE=1 might be grossly inefficient on modern             |
|     multi-core architectures or massively parallel machines. Do your        |
|     own testing! More info at https://www.vasp.at/wiki/index.php/NCORE      |
|     Unfortunately you need to use the default for GW and RPA                |
|     calculations (for HF NCORE is supported but not extensively tested      |
|     yet).                                                                   |
|                                                                             |
 -----------------------------------------------------------------------------

 POTCAR:    PAW_PBE Nd_3 06Sep2000                
   SHA256 =  90782177844a5d17e05a83442c3981b109958f4399d5595472847236a982ac31 Nd_3/POTCAR           
   COPYR  = (c) Copyright 06Sep2000 Georg Kresse                                                    
   COPYR  = This file is part of the software VASP. Any use, copying, and all other rights are regul
   COPYR  = If you do not have a valid VASP license, you may not use, copy or distribute this file. 
   VRHFIN =Nd : [core=Xe4]                                                                          
   LEXCH  = PE                                                                                      
   EATOM  =   934.1494 eV,   68.6580 Ry                                                             
                                                                                                    
   TITEL  = PAW_PBE Nd_3 06Sep2000                                                                  
   LULTRA =        F    use ultrasoft PP ?                                                          
   IUNSCR =        1    unscreen: 0-lin 1-nonlin 2-no                                               
   RPACOR =    2.400    partial core radius                                                         
   POMASS =  144.240; ZVAL   =   11.000    mass and valenz                                          
   RCORE  =    2.800    outmost cutoff radius                                                       
   RWIGS  =    3.000; RWIGS  =    1.588    wigner-seitz radius (au A)                               
   ENMAX  =  182.619; ENMIN  =  136.964 eV                                                          
   RCLOC  =    2.418    cutoff for local pot                                                        
   LCOR   =        T    correct aug charges                                                         
   LPAW   =        T    paw PP                                                                      
   EAUG   =  299.021                                                                                
   DEXC   =    0.000                                                                                
   RMAX   =    2.866    core radius for proj-oper                                                   
   RAUG   =    1.300    factor for augmentation sphere                                              
   RDEP   =    2.838    radius for radial grids                                                     
   RDEPT  =    2.433    core radius for aug-charge                                                  
                                                                                                    
   Atomic configuration                                                                             
   14 entries                                                                                       
     n  l   j            E        occ.                                                              
     1  0  0.50    -43395.8286   2.0000                                                             
     2  0  0.50     -7023.8781   2.0000                                                             
     2  1  1.50     -6278.5294   6.0000                                                             
     3  0  0.50     -1529.8925   2.0000                                                             
     3  1  1.50     -1294.9660   6.0000                                                             
     3  2  2.50      -969.3626  10.0000                                                             
     4  0  0.50      -309.7145   2.0000                                                             
     4  1  1.50      -232.6371   6.0000                                                             
     4  2  2.50      -123.0912  10.0000                                                             
     4  3  2.50        -6.9199   3.0000                                                             
     5  0  0.50       -43.6910   2.0000                                                             
     6  0  0.50        -3.8688   2.0000                                                             
     5  1  1.50       -24.6661   6.0000                                                             
     5  2  2.50        -2.9249   1.0000                                                             
   Description                                                                                      
     l       E           TYP  RCUT    TYP  RCUT                                                     
     0    -43.6910211     23  2.800                                                                 
     0     -3.8687565     23  2.800                                                                 
     1    -24.6660554     23  2.800                                                                 
     1     13.6058260     23  2.800                                                                 
     2     -2.9249058     23  2.800                                                                 
     2      0.2001824     23  2.800                                                                 
  local pseudopotential read in
  partial core-charges read in
  partial kinetic energy density read in
  atomic valenz-charges read in
  non local Contribution for L=           0  read in
    real space projection operators read in
  non local Contribution for L=           0  read in
    real space projection operators read in
  non local Contribution for L=           1  read in
    real space projection operators read in
  non local Contribution for L=           1  read in
    real space projection operators read in
  non local Contribution for L=           2  read in
    real space projection operators read in
  non local Contribution for L=           2  read in
    real space projection operators read in
    PAW grid and wavefunctions read in
 
   number of l-projection  operators is LMAX  =           6
   number of lm-projection operators is LMMAX =          18
 
 POTCAR:    PAW_PBE O 08Apr2002                   
   SHA256 =  818f92134a0a090dccd8ba1447fa70422a3b330e708bb4f08108d8ae51209ddf O/POTCAR              
   COPYR  = (c) Copyright 08Apr2002 Georg Kresse                                                    
   COPYR  = This file is part of the software VASP. Any use, copying, and all other rights are regul
   COPYR  = If you do not have a valid VASP license, you may not use, copy or distribute this file. 
   VRHFIN =O: s2p4                                                                                  
   LEXCH  = PE                                                                                      
   EATOM  =   432.3788 eV,   31.7789 Ry                                                             
                                                                                                    
   TITEL  = PAW_PBE O 08Apr2002                                                                     
   LULTRA =        F    use ultrasoft PP ?                                                          
   IUNSCR =        1    unscreen: 0-lin 1-nonlin 2-no                                               
   RPACOR =    1.200    partial core radius                                                         
   POMASS =   16.000; ZVAL   =    6.000    mass and valenz                                          
   RCORE  =    1.520    outmost cutoff radius                                                       
   RWIGS  =    1.550; RWIGS  =    0.820    wigner-seitz radius (au A)                               
   ENMAX  =  400.000; ENMIN  =  300.000 eV                                                          
   ICORE  =        2    local potential                                                             
   LCOR   =        T    correct aug charges                                                         
   LPAW   =        T    paw PP                                                                      
   EAUG   =  605.392                                                                                
   DEXC   =    0.000                                                                                
   RMAX   =    1.553    core radius for proj-oper                                                   
   RAUG   =    1.300    factor for augmentation sphere                                              
   RDEP   =    1.550    radius for radial grids                                                     
   RDEPT  =    1.329    core radius for aug-charge                                                  
                                                                                                    
   Atomic configuration                                                                             
    4 entries                                                                                       
     n  l   j            E        occ.                                                              
     1  0  0.50      -514.6923   2.0000                                                             
     2  0  0.50       -23.9615   2.0000                                                             
     2  1  0.50        -9.0305   4.0000                                                             
     3  2  1.50        -9.5241   0.0000                                                             
   Description                                                                                      
     l       E           TYP  RCUT    TYP  RCUT                                                     
     0    -23.9615318     23  1.200                                                                 
     0     -9.5240782     23  1.200                                                                 
     1     -9.0304911     23  1.520                                                                 
     1      8.1634956     23  1.520                                                                 
     2     -9.5240782      7  1.500                                                                 
  local pseudopotential read in
  partial core-charges read in
  partial kinetic energy density read in
  kinetic energy density of atom read in
  atomic valenz-charges read in
  non local Contribution for L=           0  read in
    real space projection operators read in
  non local Contribution for L=           0  read in
    real space projection operators read in
  non local Contribution for L=           1  read in
    real space projection operators read in
  non local Contribution for L=           1  read in
    real space projection operators read in
    PAW grid and wavefunctions read in
 
   number of l-projection  operators is LMAX  =           4
   number of lm-projection operators is LMMAX =           8
 
  PAW_PBE Nd_3 06Sep2000                :
 energy of atom  1       EATOM= -934.1494
 kinetic energy error for atom=    0.0015 (will be added to EATOM!!)
  PAW_PBE O 08Apr2002                   :
 energy of atom  2       EATOM= -432.3788
 kinetic energy error for atom=    0.1156 (will be added to EATOM!!)
 
 
 POSCAR: Nd2 O4
  positions in direct lattice
  No initial velocities read in


 exchange-correlation table for PE
   RHO(1)=    0.500       N(1)  =     2000
   RHO(2)=  100.500       N(2)  =     4000
 


--------------------------------------------------------------------------------------------------------


 ion  position               nearest neighbor table
   1  0.802  0.802  0.769-   4 2.35   4 2.36   4 2.36   3 2.40   5 2.50   6 2.58   6 2.58   6 2.69
                             2 3.74   2 3.76   2 3.76
   2  0.198  0.198  0.231-   3 2.35   3 2.36   3 2.36   4 2.40   6 2.50   5 2.58   5 2.58   5 2.69
                             1 3.74   1 3.76   1 3.76
   3  0.848  0.848  0.142-   2 2.35   2 2.36   2 2.36   1 2.40
   4  0.152  0.152  0.858-   1 2.35   1 2.36   1 2.36   2 2.40
   5  0.578  0.578  0.428-   6 1.50   1 2.50   2 2.58   2 2.58   2 2.69
   6  0.422  0.422  0.572-   5 1.50   2 2.50   1 2.58   1 2.58   1 2.69
 
  LATTYP: Found a base centered monoclinic cell.
 ALAT       =     6.7107096336
 B/A-ratio  =     0.6009542436
 C/A-ratio  =     0.9699422232
 COS(beta)  =    -0.1369080752
  
  Lattice vectors:
  
 A1 = (   3.3553548168,  -2.0164147160,   0.0000000000)
 A2 = (   3.3553548168,   2.0164147160,   0.0000000000)
 A3 = (  -0.8911347467,   0.0000000000,   6.4477102876)


Analysis of symmetry for initial positions (statically):
=====================================================================
 Subroutine PRICEL returns:
 Original cell was already a primitive cell.
 

 Routine SETGRP: Setting up the symmetry group for a 
 base centered monoclinic supercell.


 Subroutine GETGRP returns: Found  4 space group operations
 (whereof  4 operations were pure point group operations)
 out of a pool of  4 trial point group operations.


The static configuration has the point symmetry C_2h.


Analysis of symmetry for dynamics (positions and initial velocities):
=====================================================================
 Subroutine PRICEL returns:
 Original cell was already a primitive cell.
 

 Routine SETGRP: Setting up the symmetry group for a 
 base centered monoclinic supercell.


 Subroutine GETGRP returns: Found  4 space group operations
 (whereof  4 operations were pure point group operations)
 out of a pool of  4 trial point group operations.


The dynamic configuration has the point symmetry C_2h.


 Subroutine INISYM returns: Found  4 space group operations
 (whereof  4 operations are pure point group operations),
 and found     1 'primitive' translations


----------------------------------------------------------------------------------------

                                     Primitive cell                                     

  volume of cell :      87.2477

  direct lattice vectors                    reciprocal lattice vectors
     3.355354817 -2.016414716  0.000000000     0.149015537 -0.247964864  0.020595361
     3.355354817  2.016414716  0.000000000     0.149015537  0.247964864  0.020595361
    -0.891134747  0.000000000  6.447710288     0.000000000  0.000000000  0.155093817

  length of vectors
     3.914630794  3.914630794  6.509000621     0.290028228  0.290028228  0.155093817

  position of ions in fractional coordinates (direct lattice)
     0.801511150  0.801511150  0.768788440
     0.198488850  0.198488850  0.231211560
     0.847655220  0.847655220  0.141667530
     0.152344780  0.152344780  0.858332470
     0.578016570  0.578016570  0.427927700
     0.421983430  0.421983430  0.572072300

  ion indices of the primitive-cell ions
   primitive index   ion index
                 1           1
                 2           2
                 3           3
                 4           4
                 5           5
                 6           6

----------------------------------------------------------------------------------------

 
 
 KPOINTS: Num irrep kpoints: 24                   

Automatic generation of k-mesh.
 Grid dimensions read from file:
 generate k-points for:    5    5    3

 Generating k-lattice:

  Cartesian coordinates                     Fractional coordinates (reciprocal lattice)
     0.029803107 -0.049592973  0.004119072     0.200000000 -0.000000000  0.000000000
     0.029803107  0.049592973  0.004119072    -0.000000000  0.200000000  0.000000000
     0.000000000  0.000000000  0.051697939     0.000000000  0.000000000  0.333333333

  Length of vectors
     0.058005646  0.058005646  0.051697939

  Shift w.r.t. Gamma in fractional coordinates (k-lattice)
     0.000000000  0.000000000  0.000000000

 TETIRR: Found    114 inequivalent tetrahedra from      450
 
 Subroutine IBZKPT returns following result:
 ===========================================
 
 Found     24 irreducible k-points:
 
 Following reciprocal coordinates:
            Coordinates               Weight
  0.000000  0.000000  0.000000      1.000000
  0.200000  0.000000 -0.000000      4.000000
  0.400000  0.000000 -0.000000      4.000000
  0.200000  0.200000 -0.000000      2.000000
  0.400000  0.200000  0.000000      4.000000
 -0.400000  0.200000  0.000000      4.000000
 -0.200000  0.200000  0.000000      2.000000
  0.400000  0.400000  0.000000      2.000000
 -0.400000  0.400000  0.000000      2.000000
  0.000000  0.000000  0.333333      2.000000
  0.200000  0.000000  0.333333      4.000000
  0.400000  0.000000  0.333333      4.000000
 -0.400000 -0.000000  0.333333      4.000000
 -0.200000 -0.000000  0.333333      4.000000
  0.200000  0.200000  0.333333      2.000000
  0.400000  0.200000  0.333333      4.000000
 -0.400000  0.200000  0.333333      4.000000
 -0.200000  0.200000  0.333333      4.000000
  0.400000  0.400000  0.333333      2.000000
 -0.400000  0.400000  0.333333      4.000000
 -0.200000  0.400000  0.333333      4.000000
 -0.400000 -0.400000  0.333333      2.000000
 -0.200000 -0.400000  0.333333      4.000000
 -0.200000 -0.200000  0.333333      2.000000
 
 Following cartesian coordinates:
            Coordinates               Weight
  0.000000  0.000000  0.000000      1.000000
  0.029803 -0.049593  0.004119      4.000000
  0.059606 -0.099186  0.008238      4.000000
  0.059606 -0.000000  0.008238      2.000000
  0.089409 -0.049593  0.012357      4.000000
 -0.029803  0.148779 -0.004119      4.000000
  0.000000  0.099186  0.000000      2.000000
  0.119212 -0.000000  0.016476      2.000000
 -0.000000  0.198372  0.000000      2.000000
  0.000000  0.000000  0.051698      2.000000
  0.029803 -0.049593  0.055817      4.000000
  0.059606 -0.099186  0.059936      4.000000
 -0.059606  0.099186  0.043460      4.000000
 -0.029803  0.049593  0.047579      4.000000
  0.059606 -0.000000  0.059936      2.000000
  0.089409 -0.049593  0.064055      4.000000
 -0.029803  0.148779  0.047579      4.000000
  0.000000  0.099186  0.051698      4.000000
  0.119212 -0.000000  0.068174      2.000000
 -0.000000  0.198372  0.051698      4.000000
  0.029803  0.148779  0.055817      4.000000
 -0.119212  0.000000  0.035222      2.000000
 -0.089409 -0.049593  0.039341      4.000000
 -0.059606  0.000000  0.043460      2.000000
 
 
 Subroutine IBZKPT_HF returns following result:
 ==============================================
 
 Found     75 k-points in 1st BZ
 the following     75 k-points will be used (e.g. in the exchange kernel)
 Following reciprocal coordinates:   # in IRBZ
  0.000000  0.000000  0.000000    0.01333333   1 t-inv F
  0.200000  0.000000 -0.000000    0.01333333   2 t-inv F
  0.400000  0.000000 -0.000000    0.01333333   3 t-inv F
  0.200000  0.200000 -0.000000    0.01333333   4 t-inv F
  0.400000  0.200000  0.000000    0.01333333   5 t-inv F
 -0.400000  0.200000  0.000000    0.01333333   6 t-inv F
 -0.200000  0.200000  0.000000    0.01333333   7 t-inv F
  0.400000  0.400000  0.000000    0.01333333   8 t-inv F
 -0.400000  0.400000  0.000000    0.01333333   9 t-inv F
  0.000000  0.000000  0.333333    0.01333333  10 t-inv F
  0.200000  0.000000  0.333333    0.01333333  11 t-inv F
  0.400000  0.000000  0.333333    0.01333333  12 t-inv F
 -0.400000 -0.000000  0.333333    0.01333333  13 t-inv F
 -0.200000 -0.000000  0.333333    0.01333333  14 t-inv F
  0.200000  0.200000  0.333333    0.01333333  15 t-inv F
  0.400000  0.200000  0.333333    0.01333333  16 t-inv F
 -0.400000  0.200000  0.333333    0.01333333  17 t-inv F
 -0.200000  0.200000  0.333333    0.01333333  18 t-inv F
  0.400000  0.400000  0.333333    0.01333333  19 t-inv F
 -0.400000  0.400000  0.333333    0.01333333  20 t-inv F
 -0.200000  0.400000  0.333333    0.01333333  21 t-inv F
 -0.400000 -0.400000  0.333333    0.01333333  22 t-inv F
 -0.200000 -0.400000  0.333333    0.01333333  23 t-inv F
 -0.200000 -0.200000  0.333333    0.01333333  24 t-inv F
 -0.200000 -0.000000  0.000000    0.01333333   2 t-inv F
 -0.000000 -0.200000  0.000000    0.01333333   2 t-inv F
  0.000000  0.200000 -0.000000    0.01333333   2 t-inv F
 -0.400000 -0.000000  0.000000    0.01333333   3 t-inv F
 -0.000000 -0.400000  0.000000    0.01333333   3 t-inv F
  0.000000  0.400000 -0.000000    0.01333333   3 t-inv F
 -0.200000 -0.200000  0.000000    0.01333333   4 t-inv F
 -0.400000 -0.200000 -0.000000    0.01333333   5 t-inv F
 -0.200000 -0.400000 -0.000000    0.01333333   5 t-inv F
  0.200000  0.400000  0.000000    0.01333333   5 t-inv F
  0.400000 -0.200000 -0.000000    0.01333333   6 t-inv F
 -0.200000  0.400000 -0.000000    0.01333333   6 t-inv F
  0.200000 -0.400000  0.000000    0.01333333   6 t-inv F
  0.200000 -0.200000 -0.000000    0.01333333   7 t-inv F
 -0.400000 -0.400000 -0.000000    0.01333333   8 t-inv F
  0.400000 -0.400000 -0.000000    0.01333333   9 t-inv F
  0.000000  0.000000 -0.333333    0.01333333  10 t-inv F
 -0.200000 -0.000000 -0.333333    0.01333333  11 t-inv F
 -0.000000 -0.200000 -0.333333    0.01333333  11 t-inv F
  0.000000  0.200000  0.333333    0.01333333  11 t-inv F
 -0.400000 -0.000000 -0.333333    0.01333333  12 t-inv F
 -0.000000 -0.400000 -0.333333    0.01333333  12 t-inv F
  0.000000  0.400000  0.333333    0.01333333  12 t-inv F
  0.400000  0.000000 -0.333333    0.01333333  13 t-inv F
  0.000000  0.400000 -0.333333    0.01333333  13 t-inv F
 -0.000000 -0.400000  0.333333    0.01333333  13 t-inv F
  0.200000  0.000000 -0.333333    0.01333333  14 t-inv F
  0.000000  0.200000 -0.333333    0.01333333  14 t-inv F
 -0.000000 -0.200000  0.333333    0.01333333  14 t-inv F
 -0.200000 -0.200000 -0.333333    0.01333333  15 t-inv F
 -0.400000 -0.200000 -0.333333    0.01333333  16 t-inv F
 -0.200000 -0.400000 -0.333333    0.01333333  16 t-inv F
  0.200000  0.400000  0.333333    0.01333333  16 t-inv F
  0.400000 -0.200000 -0.333333    0.01333333  17 t-inv F
 -0.200000  0.400000 -0.333333    0.01333333  17 t-inv F
  0.200000 -0.400000  0.333333    0.01333333  17 t-inv F
  0.200000 -0.200000 -0.333333    0.01333333  18 t-inv F
 -0.200000  0.200000 -0.333333    0.01333333  18 t-inv F
  0.200000 -0.200000  0.333333    0.01333333  18 t-inv F
 -0.400000 -0.400000 -0.333333    0.01333333  19 t-inv F
  0.400000 -0.400000 -0.333333    0.01333333  20 t-inv F
 -0.400000  0.400000 -0.333333    0.01333333  20 t-inv F
  0.400000 -0.400000  0.333333    0.01333333  20 t-inv F
  0.200000 -0.400000 -0.333333    0.01333333  21 t-inv F
 -0.400000  0.200000 -0.333333    0.01333333  21 t-inv F
  0.400000 -0.200000  0.333333    0.01333333  21 t-inv F
  0.400000  0.400000 -0.333333    0.01333333  22 t-inv F
  0.200000  0.400000 -0.333333    0.01333333  23 t-inv F
  0.400000  0.200000 -0.333333    0.01333333  23 t-inv F
 -0.400000 -0.200000  0.333333    0.01333333  23 t-inv F
  0.200000  0.200000 -0.333333    0.01333333  24 t-inv F


--------------------------------------------------------------------------------------------------------




 Dimension of arrays:
   k-points           NKPTS =     24   k-points in BZ     NKDIM =     75   number of bands    NBANDS=     28
   number of dos      NEDOS =    301   number of ions     NIONS =      6
   non local maximal  LDIM  =      6   non local SUM 2l+1 LMDIM =     18
   total plane-waves  NPLWV =  12800
   max r-space proj   IRMAX =      1   max aug-charges    IRDMAX=  11886
   dimension x,y,z NGX =    20 NGY =   20 NGZ =   32
   dimension x,y,z NGXF=    40 NGYF=   40 NGZF=   64
   support grid    NGXF=    40 NGYF=   40 NGZF=   64
   ions per type =               2   4
   NGX,Y,Z   is equivalent  to a cutoff of   8.49,  8.49,  8.17 a.u.
   NGXF,Y,Z  is equivalent  to a cutoff of  16.99, 16.99, 16.35 a.u.

 SYSTEM =  unknown system                          
 POSCAR =  Nd2 O4                                  

 Startparameter for this run:
   NWRITE =      2    write-flag & timer
   PREC   = normal    normal or accurate (medium, high low for compatibility)
   ISTART =      0    job   : 0-new  1-cont  2-samecut
   ICHARG =      2    charge: 1-file 2-atom 10-const
   ISPIN  =      1    spin polarized calculation?
   LNONCOLLINEAR =      F non collinear calculations
   LSORBIT =      F    spin-orbit coupling
   INIWAV =      1    electr: 0-lowe 1-rand  2-diag
   LASPH  =      T    aspherical Exc in radial PAW
 Electronic Relaxation 1
   ENCUT  =  400.0 eV  29.40 Ry    5.42 a.u.   6.38  6.38 10.61*2*pi/ulx,y,z
   ENINI  =  400.0     initial cutoff
   ENAUG  =  605.4 eV  augmentation charge cutoff
   NELM   =    100;   NELMIN=  2; NELMDL= -5     # of ELM steps 
   EDIFF  = 0.1E-06   stopping-criterion for ELM
   LREAL  =      F    real-space projection
   NLSPLINE    = F    spline interpolate recip. space projectors
   LCOMPAT=      F    compatible to vasp.4.4
   GGA_COMPAT  = T    GGA compatible to vasp.4.4-vasp.4.6
   LMAXPAW     = -100 max onsite density
   LMAXMIX     =    2 max onsite mixed and CHGCAR
   VOSKOWN=      0    Vosko Wilk Nusair interpolation
   ROPT   =    0.00000   0.00000
 Ionic relaxation
   EDIFFG = -.5E-02   stopping-criterion for IOM
   NSW    =    300    number of steps for IOM
   NBLOCK =      1;   KBLOCK =    300    inner block; outer block 
   IBRION =      2    ionic relax: 0-MD 1-quasi-New 2-CG
   NFREE  =      1    steps in history (QN), initial steepest desc. (CG)
   ISIF   =      3    stress and relaxation
   IWAVPR =     11    prediction:  0-non 1-charg 2-wave 3-comb
   ISYM   =      3    0-nonsym 1-usesym 2-fastsym
   LCORR  =      T    Harris-Foulkes like correction to forces

   POTIM  = 0.5000    time-step for ionic-motion
   TEIN   =    0.0    initial temperature
   TEBEG  =    0.0;   TEEND  =   0.0 temperature during run
   SMASS  =  -3.00    Nose mass-parameter (am)
   estimated Nose-frequenzy (Omega)   =  0.10E-29 period in steps = 0.13E+47 mass=  -0.350E-27a.u.
   SCALEE = 1.0000    scale energy and forces
   NPACO  =    256;   APACO  = 10.0  distance and # of slots for P.C.
   PSTRESS=    0.0 pullay stress

  Mass of Ions in am
   POMASS = 144.24 16.00
  Ionic Valenz
   ZVAL   =  11.00  6.00
  Atomic Wigner-Seitz radii
   RWIGS  =  -1.00 -1.00
  virtual crystal weights 
   VCA    =   1.00  1.00
   NELECT =      46.0000    total number of electrons
   NUPDOWN=      -1.0000    fix difference up-down

 DOS related values:
   EMIN   =  10.00;   EMAX   =-10.00  energy-range for DOS
   EFERMI =   0.00;   METHOD = LEGACY      
   ISMEAR =    -5;   SIGMA  =   0.10  broadening in eV -4-tet -1-fermi 0-gaus
   EFERMI_NEDOS =   21; number of points for ismear=-14 and -15

 Electronic relaxation 2 (details)
   IALGO  =     53    algorithm
   LDIAG  =      T    sub-space diagonalisation (order eigenvalues)
   LSUBROT=      F    optimize rotation matrix (better conditioning)
   LROBUST=      F    robust break criterion during scf (extrapolated energy error)
   ISEARCH=      0    line search for conjugate gradient (0, 1=use gradient)
   TURBO    =      0    0=normal 1=particle mesh
   IRESTART =      0    0=no restart 2=restart with 2 vectors
   NREBOOT  =      0    no. of reboots
   NMIN     =      0    reboot dimension
   EREF     =   0.00    reference energy to select bands
   IMIX   =      4    mixing-type and parameters
     AMIX     =   0.40;   BMIX     =  1.00
     AMIX_MAG =   1.60;   BMIX_MAG =  1.00
     AMIN     =   0.10
     WC   =   100.;   INIMIX=   1;  MIXPRE=   1;  MAXMIX= -45

 Intra band minimization:
   WEIMIN = 0.0010     energy-eigenvalue tresh-hold
   EBREAK =  0.89E-09  absolut break condition
   DEPER  =   0.30     relativ break condition  

   TIME   =   0.40     timestep for ELM

  volume/ion in A,a.u.               =      14.54        98.13
  Fermi-wavevector in a.u.,A,eV,Ry     =   1.322542  2.499242 23.798189  1.749118
  Thomas-Fermi vector in A             =   2.452216
 
 Write flags
   LWAVE        =      T    write WAVECAR
   LDOWNSAMPLE  =      F    k-point downsampling of WAVECAR
   LCHARG       =      F    write CHGCAR
   LVTOT        =      F    write LOCPOT, total local potential
   LVHAR        =      F    write LOCPOT, Hartree potential only
   WRT_POTENTIAL= false  ! write potential to hdf5 file
   LELF         =      F    write electronic localiz. function (ELF)
   LORBIT       =     10    0 simple, 1 ext, 2 COOP (PROOUT), +10 PAW based schemes


 Python interface
   PLUGINS active      =      F    recompile with -DPLUGINS to activate
 
 Dipole corrections
   LMONO      =      F    monopole corrections only (constant potential shift)
   LDIPOL     =      F    correct potential (dipole corrections)
   IDIPOL     =      0    1-x, 2-y, 3-z, 4-all directions 
   EPSILON    =  1.0000000 bulk dielectric constant
   LVACPOTAV  =      F  vacuum potentials using an averaging scheme for the charge density
   VACPOTFLAT =  0.1000000 required flatness to determine vacuum potential
 
Coulomb truncation method
  LTRUNCATE          =      F  Coulomb kernel truncation to be used

 
 Exchange correlation treatment:
   GGA     = PE    functional components
   XC_C    = 1    coefficients multiplying the functional components
   LIBXC   =     F    Libxc                    
   VOSKOWN =     0    Vosko Wilk Nusair interpolation
   EXXOEP  =     0    0=HF, 1=EXX-LHF (local Hartree Fock) 2=EXX OEP
   LHFCALC =     T    Hartree Fock is set to
   LSYMGRAD=     F    symmetrize gradient (conserves proper symmetry)
   PRECFOCK=fast      Normal, Fast or Accurate (Low or Medium for compatibility)
   LRHFCALC=     F    long range Hartree Fock
   LRSCOR  =     F    long range correlation only (use DFT for short range part)
   LTHOMAS =     F    Thomas Fermi screening in HF
   LMODELHF=     F    short range full HF, long range fraction AEXX
   FOCKCORR=     1    mode to apply convergence corrections
   LFOCKACE=     T    use Adeptively-Compressed-Exchange operator
   ENCUT4O =  -1.0   cutoff for four orbital integrals eV
   LMAXFOCK=     4    L truncation for augmentation on plane wave grid
   LMAXFOCKAE=  -1    L truncation for all-electron charge restoration on plane wave grid
   NMAXFOCKAE=   1    number of basis functions for all-electron charge restoration
   LFOCKAEDFT=     F  apply the AE augmentation even for DFT
   NKREDX  =     1    reduce k-point grid by
   NKREDY  =     1    reduce k-point grid by
   NKREDZ  =     1    reduce k-point grid by
   SHIFTRED=     F    shift reduced grid of Gamma
   HFKIDENT=     F    idential grid for each k-point
   ODDONLY =     F    use only odd q-grid points
   EVENONLY=     F    use only even q-grid points
   HFALPHA =   -1.0000 decay constant for conv. correction
   MCALPHA =    0.0000 extent of test-charge in conv. correction in multipole expansion
   AEXX    =    0.3600 exact exchange contribution
   HFSCREEN=    0.2000 screening length (either q_TF or 0.3 A-1)
   HFSCREENC=   0.2000 screening length for correlation (either q_TF or 0.3 A-1)
   HFRCUT  =    0.0000 spherical cutoff for potential kernel
   ALDAX   =    0.6400 LDA exchange part
   AGGAX   =    0.6400 GGA exchange part
   AMGGAX  =    0.6400 meta-GGA exchange part
   ALDAC   =    1.0000 LDA correlation
   AGGAC   =    1.0000 GGA correlation
   AMGGAC  =    1.0000 meta-GGA correlation
   ENCUTFOCK=  -1.0 apply spherical cutoff to Coloumb kernel
   NBANDSGWLOW=     1    first orbital included in HF term
   NBLOCK_FOCK=    64    blocking factor in FOCK_ACC

 Parameters of functionals:
   PE:
     No parameter
 
 Van der Waals corrections
   IVDW    =     0    specifies the selected vdW correction

 Linear response parameters
   LEPSILON=     F    determine dielectric tensor
   LRPA    =     F    only Hartree local field effects (RPA)
   LNABLA  =     F    use nabla operator in PAW spheres
   LVEL    =     F    velocity operator in full k-point grid
   CSHIFT  =0.1000    complex shift for real part using Kramers Kronig
   OMEGAMAX=  -1.0    maximum frequency
   DEG_THRESHOLD= 0.2000000E-02 threshold for treating states as degnerate
   RTIME   =   -0.100 relaxation time in fs
  (WPLASMAI=    0.000 imaginary part of plasma frequency in eV, 0.658/RTIME)
   DFIELD  = 0.0000000 0.0000000 0.0000000 field for delta impulse in time
 
  Optional k-point grid parameters
   LKPOINTS_OPT  =     F    use optional k-point grid
   KPOINTS_OPT_MODE=     1    mode for optional k-point grid
 
 Orbital magnetization related:
   ORBITALMAG=     F  switch on orbital magnetization
   LCHIMAG   =     F  perturbation theory with respect to B field
   DQ        =  0.001000  dq finite difference perturbation B field
   LLRAUG    =     F  two centre corrections for induced B field
   LBONE     =     F  B-component reconstruction in AE one-centre
   LVGVCALC  =     T  calculate vGv susceptibility
   LVGVAPPL  =     F  apply vGv susceptibility instead of pGv for G=0

 Random number generation:
   RANDOM_GENERATOR = DEFAULT
   PCG_SEED         = not used


--------------------------------------------------------------------------------------------------------


 conjugate gradient relaxation of ions
 charge density and potential will be updated during run
 non-spin polarized calculation
 Conjugate gradient for all bands (Freysoldt, et al. PRB 79, 241103 (2009))
 perform sub-space diagonalisation
    before iterative eigenvector-optimisation
 modified Broyden-mixing scheme, WC =      100.0
 initial mixing is a Kerker type mixing with AMIX =  0.4000 and BMIX =      1.0000
 Hartree-type preconditioning will be used
 using additional bands            5
 reciprocal scheme for non local part
 use partial core corrections
 no Harris-corrections to forces 
 use gradient corrections 
 use of overlap-Matrix (Vanderbilt PP)
 Fermi weights with tetrahedron method with Bloechl corrections


--------------------------------------------------------------------------------------------------------


  energy-cutoff  :      400.00
  volume of cell :       87.25
      direct lattice vectors                 reciprocal lattice vectors
     3.355354817 -2.016414716  0.000000000     0.149015537 -0.247964864  0.020595361
     3.355354817  2.016414716  0.000000000     0.149015537  0.247964864  0.020595361
    -0.891134747  0.000000000  6.447710288     0.000000000  0.000000000  0.155093817

  length of vectors
     3.914630794  3.914630794  6.509000621     0.290028228  0.290028228  0.155093817


 
 k-points in units of 2pi/SCALE and weight: Num irrep kpoints: 24                   
   0.00000000  0.00000000  0.00000000       0.013
   0.02980311 -0.04959297  0.00411907       0.053
   0.05960621 -0.09918595  0.00823814       0.053
   0.05960621 -0.00000000  0.00823814       0.027
   0.08940932 -0.04959297  0.01235722       0.053
  -0.02980311  0.14877892 -0.00411907       0.053
   0.00000000  0.09918595  0.00000000       0.027
   0.11921243 -0.00000000  0.01647629       0.027
  -0.00000000  0.19837189  0.00000000       0.027
   0.00000000  0.00000000  0.05169794       0.027
   0.02980311 -0.04959297  0.05581701       0.053
   0.05960621 -0.09918595  0.05993608       0.053
  -0.05960621  0.09918595  0.04345979       0.053
  -0.02980311  0.04959297  0.04757887       0.053
   0.05960621 -0.00000000  0.05993608       0.027
   0.08940932 -0.04959297  0.06405516       0.053
  -0.02980311  0.14877892  0.04757887       0.053
   0.00000000  0.09918595  0.05169794       0.053
   0.11921243 -0.00000000  0.06817423       0.027
  -0.00000000  0.19837189  0.05169794       0.053
   0.02980311  0.14877892  0.05581701       0.053
  -0.11921243  0.00000000  0.03522165       0.027
  -0.08940932 -0.04959297  0.03934072       0.053
  -0.05960621  0.00000000  0.04345979       0.027
 
 k-points in reciprocal lattice and weights: Num irrep kpoints: 24                   
   0.00000000  0.00000000  0.00000000       0.013
   0.20000000  0.00000000 -0.00000000       0.053
   0.40000000  0.00000000 -0.00000000       0.053
   0.20000000  0.20000000 -0.00000000       0.027
   0.40000000  0.20000000  0.00000000       0.053
  -0.40000000  0.20000000  0.00000000       0.053
  -0.20000000  0.20000000  0.00000000       0.027
   0.40000000  0.40000000  0.00000000       0.027
  -0.40000000  0.40000000  0.00000000       0.027
   0.00000000  0.00000000  0.33333333       0.027
   0.20000000  0.00000000  0.33333333       0.053
   0.40000000  0.00000000  0.33333333       0.053
  -0.40000000 -0.00000000  0.33333333       0.053
  -0.20000000 -0.00000000  0.33333333       0.053
   0.20000000  0.20000000  0.33333333       0.027
   0.40000000  0.20000000  0.33333333       0.053
  -0.40000000  0.20000000  0.33333333       0.053
  -0.20000000  0.20000000  0.33333333       0.053
   0.40000000  0.40000000  0.33333333       0.027
  -0.40000000  0.40000000  0.33333333       0.053
  -0.20000000  0.40000000  0.33333333       0.053
  -0.40000000 -0.40000000  0.33333333       0.027
  -0.20000000 -0.40000000  0.33333333       0.053
  -0.20000000 -0.20000000  0.33333333       0.027
 
 position of ions in fractional coordinates (direct lattice) 
   0.80151115  0.80151115  0.76878844
   0.19848885  0.19848885  0.23121156
   0.84765522  0.84765522  0.14166753
   0.15234478  0.15234478  0.85833247
   0.57801657  0.57801657  0.42792770
   0.42198343  0.42198343  0.57207230
 
 position of ions in cartesian coordinates  (Angst):
   4.69361450 -0.00000000  4.95692513
   1.12596038  0.00000000  1.49078515
   5.56212319 -0.00000000  0.91343119
   0.25745169 -0.00000000  5.53427910
   3.49756012 -0.00000000  2.75915383
   2.32201476 -0.00000000  3.68855645
 


--------------------------------------------------------------------------------------------------------


 k-point     1 :   0.0000 0.0000 0.0000  plane waves:    1597
 k-point     2 :   0.2000 0.0000-0.0000  plane waves:    1595
 k-point     3 :   0.4000 0.0000-0.0000  plane waves:    1580
 k-point     4 :   0.2000 0.2000-0.0000  plane waves:    1607
 k-point     5 :   0.4000 0.2000 0.0000  plane waves:    1588
 k-point     6 :  -0.4000 0.2000 0.0000  plane waves:    1574
 k-point     7 :  -0.2000 0.2000 0.0000  plane waves:    1583
 k-point     8 :   0.4000 0.4000 0.0000  plane waves:    1587
 k-point     9 :  -0.4000 0.4000 0.0000  plane waves:    1580
 k-point    10 :   0.0000 0.0000 0.3333  plane waves:    1596
 k-point    11 :   0.2000 0.0000 0.3333  plane waves:    1592
 k-point    12 :   0.4000 0.0000 0.3333  plane waves:    1583
 k-point    13 :  -0.4000-0.0000 0.3333  plane waves:    1586
 k-point    14 :  -0.2000-0.0000 0.3333  plane waves:    1588
 k-point    15 :   0.2000 0.2000 0.3333  plane waves:    1591
 k-point    16 :   0.4000 0.2000 0.3333  plane waves:    1580
 k-point    17 :  -0.4000 0.2000 0.3333  plane waves:    1579
 k-point    18 :  -0.2000 0.2000 0.3333  plane waves:    1585
 k-point    19 :   0.4000 0.4000 0.3333  plane waves:    1572
 k-point    20 :  -0.4000 0.4000 0.3333  plane waves:    1576
 k-point    21 :  -0.2000 0.4000 0.3333  plane waves:    1577
 k-point    22 :  -0.4000-0.4000 0.3333  plane waves:    1580
 k-point    23 :  -0.2000-0.4000 0.3333  plane waves:    1586
 k-point    24 :  -0.2000-0.2000 0.3333  plane waves:    1598

 maximum and minimum number of plane-waves per node :      1607     1572

 maximum number of plane-waves:      1607
 maximum index in each direction: 
   IXMAX=    6   IYMAX=    6   IZMAX=   10
   IXMIN=   -6   IYMIN=   -6   IZMIN=  -10


 serial   3D FFT for wavefunctions
 parallel 3D FFT for charge:
    minimum data exchange during FFTs selected (reduces bandwidth)


 FFT grid for exact exchange (Hartree Fock) 
  NGX = 14; NGY = 14; NGZ = 24

 
 Radii for the augmentation spheres in the non-local exchange
 for species   1 augmentation radius   1.784 (default was   1.321)
       energy cutoff for augmentation   1600.0
 for species   2 augmentation radius   0.974 (default was   0.722)
       energy cutoff for augmentation   1600.0
 Maximum index for augmentation-charges in exchange         1283
  SETUP_FOCK is finished

 total amount of memory used by VASP MPI-rank0    45360. kBytes
=======================================================================

   base                                    :      30000. kBytes
   nonl-proj                               :      11380. kBytes
   fftplans                                :        218. kBytes
   grid                                    :        811. kBytes
   one-center                              :         93. kBytes
   HF                                      :        129. kBytes
   nonlr-proj                              :        764. kBytes
   wavefun                                 :       1965. kBytes
 
     INWAV:  cpu time      0.0000: real time      0.0004
 Broyden mixing: mesh for mixing (old mesh)
   NGX = 13   NGY = 13   NGZ = 21
  (NGX  = 40   NGY  = 40   NGZ  = 64)
  gives a total of   3549 points

 initial charge density was supplied:
 charge density of overlapping atoms calculated
 number of electron      46.0000000 magnetization 
 keeping initial charge density in first step


--------------------------------------------------------------------------------------------------------


 BZINTS: Fermi energy:   30.131119;   46.000000 electrons
         Band energy: 0.832693E+03;  BLOECHL correction:  -58.415096
 Maximum index for augmentation-charges          922 (set IRDMAX)


--------------------------------------------------------------------------------------------------------


 First call to EWALD:  gamma=   0.400
 Maximum number of real-space cells   3x   3x   2
 Maximum number of reciprocal cells   2x   2x   4

    FEWALD:  cpu time      0.0067: real time      0.0071


--------------------------------------- Ionic step        1  -------------------------------------------


 -----------------------------------------------------------------------------
|                                                                             |
|           W    W    AA    RRRRR   N    N  II  N    N   GGGG   !!!           |
|           W    W   A  A   R    R  NN   N  II  NN   N  G    G  !!!           |
|           W    W  A    A  R    R  N N  N  II  N N  N  G       !!!           |
|           W WW W  AAAAAA  RRRRR   N  N N  II  N  N N  G  GGG   !            |
|           WW  WW  A    A  R   R   N   NN  II  N   NN  G    G                |
|           W    W  A    A  R    R  N    N  II  N    N   GGGG   !!!           |
|                                                                             |
|     ALGO=A and IALGO=5X tend to fail with the tetrahedron method (e.g.      |
|     Bloechl's method, ISMEAR=-5, is not variational). Please switch to      |
|     IMSEAR=0-n, except for DOS calculations. For DOS calculations use       |
|     IALGO=53 after pre-converging with ISMEAR>=0.                           |
|     I HOPE YOU KNOW WHAT YOU ARE DOING!                                     |
|                                                                             |
 -----------------------------------------------------------------------------



--------------------------------------- Iteration      1(   1)  ---------------------------------------


    POTLOK:  cpu time      0.0200: real time      0.0241
    SETDIJ:  cpu time      0.0592: real time      0.0600
 BZINTS: Fermi energy:   15.450277;   46.000000 electrons
         Band energy:-0.138169E+03;  BLOECHL correction:   -0.343015
    TRIAL :  cpu time      0.1030: real time      0.2962
 BZINTS: Fermi energy:   15.450277;   46.000000 electrons
         Band energy:-0.138169E+03;  BLOECHL correction:   -0.343015
    CORREC:  cpu time      0.0015: real time      0.0015
    --------------------------------------------
      LOOP:  cpu time      0.1860: real time      0.3846

 eigenvalue-minimisations  :  2016
 total energy-change (2. order) :-0.3998759E+04  (-0.2238492E+04)
 number of electron      46.0000000 magnetization 
 augmentation part       46.0000000 magnetization 

 Free energy of the ion-electron system (eV)
  ---------------------------------------------------
  alpha Z        PSCENC =       305.22198693
  Ewald energy   TEWEN  =     -2998.72999636
  -Hartree energ DENC   =      -698.01316672
  -exchange      EXHF   =         0.00000000
  -V(xc)+E(xc)   XCENC  =       165.35407883
  PAW double counting   =      2826.97677587    -7053.10965335
  entropy T*S    EENTRO =         0.00000000
  eigenvalues    EBANDS =      -138.16859633
  atomic energy  EATOM  =      3591.70966704
  ---------------------------------------------------
  free energy    TOTEN  =     -3998.75890409 eV

  energy without entropy =    -3998.75890409  energy(sigma->0) =    -3998.75890409
  exchange ACFDT corr.  =         0.00000000  see jH, gK, PRB 81, 115126


--------------------------------------------------------------------------------------------------------




--------------------------------------- Iteration      1(   2)  ---------------------------------------


 BZINTS: Fermi energy:    4.698347;   46.000000 electrons
         Band energy:-0.517743E+03;  BLOECHL correction:    0.000000
    TRIAL :  cpu time      0.0947: real time      0.1231
 BZINTS: Fermi energy:    4.698347;   46.000000 electrons
         Band energy:-0.517743E+03;  BLOECHL correction:    0.000000
    CORREC:  cpu time      0.0006: real time      0.0006
    --------------------------------------------
      LOOP:  cpu time      0.1109: real time      0.1468

 eigenvalue-minimisations  :  2688
 total energy-change (2. order) :-0.3795744E+03  (-0.3784862E+03)
 number of electron      46.0000000 magnetization 
 augmentation part       46.0000000 magnetization 

 Free energy of the ion-electron system (eV)
  ---------------------------------------------------
  alpha Z        PSCENC =       305.22198693
  Ewald energy   TEWEN  =     -2998.72999636
  -Hartree energ DENC   =      -698.01316672
  -exchange      EXHF   =         0.00000000
  -V(xc)+E(xc)   XCENC  =       165.35407883
  PAW double counting   =      2826.97677587    -7053.10965335
  entropy T*S    EENTRO =         0.00000000
  eigenvalues    EBANDS =      -517.74304442
  atomic energy  EATOM  =      3591.70966704
  ---------------------------------------------------
  free energy    TOTEN  =     -4378.33335218 eV

  energy without entropy =    -4378.33335218  energy(sigma->0) =    -4378.33335218
  exchange ACFDT corr.  =         0.00000000  see jH, gK, PRB 81, 115126


--------------------------------------------------------------------------------------------------------




--------------------------------------- Iteration      1(   3)  ---------------------------------------


 BZINTS: Fermi energy:    1.282349;   46.000000 electrons
         Band energy:-0.548529E+03;  BLOECHL correction:    0.000000
    TRIAL :  cpu time      0.0889: real time      0.1011
 BZINTS: Fermi energy:    1.282349;   46.000000 electrons
         Band energy:-0.548529E+03;  BLOECHL correction:    0.000000
    CORREC:  cpu time      0.0007: real time      0.0007
    --------------------------------------------
      LOOP:  cpu time      0.1032: real time      0.1258

 eigenvalue-minimisations  :  2688
 total energy-change (2. order) :-0.3078627E+02  (-0.3078627E+02)
 number of electron      46.0000000 magnetization 
 augmentation part       46.0000000 magnetization 

 Free energy of the ion-electron system (eV)
  ---------------------------------------------------
  alpha Z        PSCENC =       305.22198693
  Ewald energy   TEWEN  =     -2998.72999636
  -Hartree energ DENC   =      -698.01316672
  -exchange      EXHF   =         0.00000000
  -V(xc)+E(xc)   XCENC  =       165.35407883
  PAW double counting   =      2826.97677587    -7053.10965335
  entropy T*S    EENTRO =         0.00000000
  eigenvalues    EBANDS =      -548.52931614
  atomic energy  EATOM  =      3591.70966704
  ---------------------------------------------------
  free energy    TOTEN  =     -4409.11962390 eV

  energy without entropy =    -4409.11962390  energy(sigma->0) =    -4409.11962390
  exchange ACFDT corr.  =         0.00000000  see jH, gK, PRB 81, 115126


--------------------------------------------------------------------------------------------------------




--------------------------------------- Iteration      1(   4)  ---------------------------------------


 BZINTS: Fermi energy:    0.403727;   46.000000 electrons
         Band energy:-0.552069E+03;  BLOECHL correction:    0.000000
    TRIAL :  cpu time      0.0971: real time      0.0979
 BZINTS: Fermi energy:    0.403727;   46.000000 electrons
         Band energy:-0.552069E+03;  BLOECHL correction:    0.000000
    CORREC:  cpu time      0.0013: real time      0.0014
    --------------------------------------------
      LOOP:  cpu time      0.1205: real time      0.1302

 eigenvalue-minimisations  :  2688
 total energy-change (2. order) :-0.3539429E+01  (-0.3539431E+01)
 number of electron      46.0000000 magnetization 
 augmentation part       46.0000000 magnetization 

 Free energy of the ion-electron system (eV)
  ---------------------------------------------------
  alpha Z        PSCENC =       305.22198693
  Ewald energy   TEWEN  =     -2998.72999636
  -Hartree energ DENC   =      -698.01316672
  -exchange      EXHF   =         0.00000000
  -V(xc)+E(xc)   XCENC  =       165.35407883
  PAW double counting   =      2826.97677587    -7053.10965335
  entropy T*S    EENTRO =         0.00000000
  eigenvalues    EBANDS =      -552.06874556
  atomic energy  EATOM  =      3591.70966704
  ---------------------------------------------------
  free energy    TOTEN  =     -4412.65905332 eV

  energy without entropy =    -4412.65905332  energy(sigma->0) =    -4412.65905332
  exchange ACFDT corr.  =         0.00000000  see jH, gK, PRB 81, 115126


--------------------------------------------------------------------------------------------------------




--------------------------------------- Iteration      1(   5)  ---------------------------------------


    POTLOK:  cpu time      0.0079: real time      0.0079
    SETDIJ:  cpu time      0.2034: real time      0.2042
 BZINTS: Fermi energy:   -1.742823;   46.000000 electrons
         Band energy:-0.631341E+03;  BLOECHL correction:    0.000000
    TRIAL :  cpu time      2.4825: real time      2.5143
 BZINTS: Fermi energy:   -1.742823;   46.000000 electrons
         Band energy:-0.631341E+03;  BLOECHL correction:    0.000000
    CORREC:  cpu time      0.0005: real time      0.0005
    CHARGE:  cpu time      0.0099: real time      0.0109
    --------------------------------------------
      LOOP:  cpu time      2.7279: real time      2.7656

 eigenvalue-minimisations  :  2688
 total energy-change (2. order) : 0.4344252E+04  (-0.2585454E+01)
 number of electron      46.0000086 magnetization 
 augmentation part        4.8956789 magnetization 

 Free energy of the ion-electron system (eV)
  ---------------------------------------------------
  alpha Z        PSCENC =       305.22198693
  Ewald energy   TEWEN  =     -2998.72999636
  -Hartree energ DENC   =      -698.01316672
  -exchange      EXHF   =       192.88964519
  -V(xc)+E(xc)   XCENC  =       109.34278062
  PAW double counting   =      2879.18909831    -2818.67636089
  entropy T*S    EENTRO =         0.00000000
  eigenvalues    EBANDS =      -631.34072503
  atomic energy  EATOM  =      3591.70966704
  ---------------------------------------------------
  free energy    TOTEN  =       -68.40707090 eV

  energy without entropy =      -68.40707090  energy(sigma->0) =      -68.40707090
  exchange ACFDT corr.  =         0.00000000  see jH, gK, PRB 81, 115126


--------------------------------------------------------------------------------------------------------




--------------------------------------- Iteration      1(   6)  ---------------------------------------


    POTLOK:  cpu time      0.0062: real time      0.0062
    SETDIJ:  cpu time      0.1798: real time      0.1805
    TRIAL :  cpu time      2.1867: real time      2.2355
 BZINTS: Fermi energy:   -0.977064;   46.000000 electrons
         Band energy:-0.589771E+03;  BLOECHL correction:    0.000000
    CORREC:  cpu time      0.0006: real time      0.0006
    CHARGE:  cpu time      0.0030: real time      0.0030
    --------------------------------------------
      LOOP:  cpu time      2.3926: real time      2.4476

 eigenvalue-minimisations  :     0
 total energy-change (2. order) : 0.2083324E+02  (-0.2935462E+02)
 number of electron      46.0000063 magnetization 
 augmentation part        4.4747282 magnetization 

 Free energy of the ion-electron system (eV)
  ---------------------------------------------------
  alpha Z        PSCENC =       305.22198693
  Ewald energy   TEWEN  =     -2998.72999636
  -Hartree energ DENC   =      -872.56165467
  -exchange      EXHF   =       192.65490351
  -V(xc)+E(xc)   XCENC  =       116.68869265
  PAW double counting   =      4074.73999619    -4035.01655772
  entropy T*S    EENTRO =         0.00000000
  eigenvalues    EBANDS =      -422.28087274
  atomic energy  EATOM  =      3591.70966704
  ---------------------------------------------------
  free energy    TOTEN  =       -47.57383516 eV

  energy without entropy =      -47.57383516  energy(sigma->0) =      -47.57383516
  exchange ACFDT corr.  =         0.00000000  see jH, gK, PRB 81, 115126


--------------------------------------------------------------------------------------------------------




--------------------------------------- Iteration      1(   7)  ---------------------------------------


    POTLOK:  cpu time      0.0062: real time      0.0062
    SETDIJ:  cpu time      0.1797: real time      0.1803
    TRIAL :  cpu time      2.1017: real time      2.1118
 BZINTS: Fermi energy:   -0.332359;   46.000000 electrons
         Band energy:-0.568426E+03;  BLOECHL correction:    0.000000
    CORREC:  cpu time      0.0006: real time      0.0006
    CHARGE:  cpu time      0.0025: real time      0.0025
    --------------------------------------------
      LOOP:  cpu time      2.3111: real time      2.3242

 eigenvalue-minimisations  :     0
 total energy-change (2. order) :-0.1054600E+02  (-0.6159487E+00)
 number of electron      46.0000057 magnetization 
 augmentation part        4.2723546 magnetization 

 Free energy of the ion-electron system (eV)
  ---------------------------------------------------
  alpha Z        PSCENC =       305.22198693
  Ewald energy   TEWEN  =     -2998.72999636
  -Hartree energ DENC   =      -729.40815839
  -exchange      EXHF   =       181.07733782
  -V(xc)+E(xc)   XCENC  =       110.66974933
  PAW double counting   =      4216.73277297    -4173.90511977
  entropy T*S    EENTRO =         0.00000000
  eigenvalues    EBANDS =      -561.48807295
  atomic energy  EATOM  =      3591.70966704
  ---------------------------------------------------
  free energy    TOTEN  =       -58.11983338 eV

  energy without entropy =      -58.11983338  energy(sigma->0) =      -58.11983338
  exchange ACFDT corr.  =        -0.00049963  see jH, gK, PRB 81, 115126


--------------------------------------------------------------------------------------------------------




--------------------------------------- Iteration      1(   8)  ---------------------------------------


    POTLOK:  cpu time      0.0069: real time      0.0069
    SETDIJ:  cpu time      0.1785: real time      0.1791
    TRIAL :  cpu time      2.1018: real time      2.1118
 BZINTS: Fermi energy:   -0.019192;   46.000000 electrons
         Band energy:-0.562308E+03;  BLOECHL correction:    0.000000
    CORREC:  cpu time      0.0006: real time      0.0006
    CHARGE:  cpu time      0.0025: real time      0.0025
    --------------------------------------------
      LOOP:  cpu time      2.3125: real time      2.3236

 eigenvalue-minimisations  :     0
 total energy-change (2. order) : 0.7629610E-01  (-0.4519136E+01)
 number of electron      46.0000061 magnetization 
 augmentation part        4.2594640 magnetization 

 Free energy of the ion-electron system (eV)
  ---------------------------------------------------
  alpha Z        PSCENC =       305.22198693
  Ewald energy   TEWEN  =     -2998.72999636
  -Hartree energ DENC   =      -710.26271044
  -exchange      EXHF   =       179.40195382
  -V(xc)+E(xc)   XCENC  =       109.81989430
  PAW double counting   =      4205.18969958    -4162.00284904
  entropy T*S    EENTRO =         0.00000000
  eigenvalues    EBANDS =      -578.39118311
  atomic energy  EATOM  =      3591.70966704
  ---------------------------------------------------
  free energy    TOTEN  =       -58.04353728 eV

  energy without entropy =      -58.04353728  energy(sigma->0) =      -58.04353728
  exchange ACFDT corr.  =         0.00000000  see jH, gK, PRB 81, 115126


--------------------------------------------------------------------------------------------------------




--------------------------------------- Iteration      1(   9)  ---------------------------------------


    POTLOK:  cpu time      0.0059: real time      0.0060
    SETDIJ:  cpu time      0.1816: real time      0.1822
    TRIAL :  cpu time      2.1070: real time      2.1175
 BZINTS: Fermi energy:    0.130159;   46.000000 electrons
         Band energy:-0.557440E+03;  BLOECHL correction:    0.000000
    CORREC:  cpu time      0.0006: real time      0.0006
    CHARGE:  cpu time      0.0024: real time      0.0025
    --------------------------------------------
      LOOP:  cpu time      2.3204: real time      2.3354

 eigenvalue-minimisations  :     0
 total energy-change (2. order) :-0.2295732E+01  (-0.4826893E+00)
 number of electron      46.0000064 magnetization 
 augmentation part        4.2976184 magnetization 

 Free energy of the ion-electron system (eV)
  ---------------------------------------------------
  alpha Z        PSCENC =       305.22198693
  Ewald energy   TEWEN  =     -2998.72999636
  -Hartree energ DENC   =      -745.05887498
  -exchange      EXHF   =       182.10494502
  -V(xc)+E(xc)   XCENC  =       111.31529706
  PAW double counting   =      4114.75748572    -4072.05528071
  entropy T*S    EENTRO =         0.00000000
  eigenvalues    EBANDS =      -549.60449884
  atomic energy  EATOM  =      3591.70966704
  ---------------------------------------------------
  free energy    TOTEN  =       -60.33926912 eV

  energy without entropy =      -60.33926912  energy(sigma->0) =      -60.33926912
  exchange ACFDT corr.  =         0.00000000  see jH, gK, PRB 81, 115126


--------------------------------------------------------------------------------------------------------




--------------------------------------- Iteration      1(  10)  ---------------------------------------


    POTLOK:  cpu time      0.0062: real time      0.0063
    SETDIJ:  cpu time      0.1796: real time      0.1802
    TRIAL :  cpu time      2.1010: real time      2.1110
 BZINTS: Fermi energy:    0.329555;   46.000000 electrons
         Band energy:-0.551021E+03;  BLOECHL correction:    0.000000
    CORREC:  cpu time      0.0006: real time      0.0006
    CHARGE:  cpu time      0.0025: real time      0.0025
    --------------------------------------------
      LOOP:  cpu time      2.3043: real time      2.3243

 eigenvalue-minimisations  :     0
 total energy-change (2. order) :-0.9022525E-01  (-0.4887131E+00)
 number of electron      46.0000064 magnetization 
 augmentation part        4.3011347 magnetization 

 Free energy of the ion-electron system (eV)
  ---------------------------------------------------
  alpha Z        PSCENC =       305.22198693
  Ewald energy   TEWEN  =     -2998.72999636
  -Hartree energ DENC   =      -762.25074011
  -exchange      EXHF   =       183.34526337
  -V(xc)+E(xc)   XCENC  =       112.03950232
  PAW double counting   =      4066.51850308    -4023.72076910
  entropy T*S    EENTRO =         0.00000000
  eigenvalues    EBANDS =      -534.56291155
  atomic energy  EATOM  =      3591.70966704
  ---------------------------------------------------
  free energy    TOTEN  =       -60.42949437 eV

  energy without entropy =      -60.42949437  energy(sigma->0) =      -60.42949437
  exchange ACFDT corr.  =         0.00000000  see jH, gK, PRB 81, 115126


--------------------------------------------------------------------------------------------------------




--------------------------------------- Iteration      1(  11)  ---------------------------------------


    POTLOK:  cpu time      0.0073: real time      0.0074
    SETDIJ:  cpu time      0.1791: real time      0.1797
    TRIAL :  cpu time      2.1080: real time      2.1180
 BZINTS: Fermi energy:    0.490015;   46.000000 electrons
         Band energy:-0.546600E+03;  BLOECHL correction:    0.000000
    CORREC:  cpu time      0.0006: real time      0.0006
    CHARGE:  cpu time      0.0025: real time      0.0025
    --------------------------------------------
      LOOP:  cpu time      2.3194: real time      2.3340

 eigenvalue-minimisations  :     0
 total energy-change (2. order) :-0.2826785E+00  (-0.1203929E+00)
 number of electron      46.0000063 magnetization 
 augmentation part        4.2785444 magnetization 

 Free energy of the ion-electron system (eV)
  ---------------------------------------------------
  alpha Z        PSCENC =       305.22198693
  Ewald energy   TEWEN  =     -2998.72999636
  -Hartree energ DENC   =      -755.35960822
  -exchange      EXHF   =       182.65031290
  -V(xc)+E(xc)   XCENC  =       111.74221803
  PAW double counting   =      4056.84494549    -4013.67274422
  entropy T*S    EENTRO =         0.00000000
  eigenvalues    EBANDS =      -541.11895447
  atomic energy  EATOM  =      3591.70966704
  ---------------------------------------------------
  free energy    TOTEN  =       -60.71217287 eV

  energy without entropy =      -60.71217287  energy(sigma->0) =      -60.71217287
  exchange ACFDT corr.  =         0.00000000  see jH, gK, PRB 81, 115126


--------------------------------------------------------------------------------------------------------




--------------------------------------- Iteration      1(  12)  ---------------------------------------


    POTLOK:  cpu time      0.0061: real time      0.0061
    SETDIJ:  cpu time      0.1797: real time      0.1803
    TRIAL :  cpu time      2.1029: real time      2.1132
 BZINTS: Fermi energy:    0.604811;   46.000000 electrons
         Band energy:-0.545244E+03;  BLOECHL correction:    0.000000
    CORREC:  cpu time      0.0006: real time      0.0006
    CHARGE:  cpu time      0.0025: real time      0.0025
    --------------------------------------------
      LOOP:  cpu time      2.3058: real time      2.3247

 eigenvalue-minimisations  :     0
 total energy-change (2. order) :-0.2834943E-01  (-0.5390372E-01)
 number of electron      46.0000063 magnetization 
 augmentation part        4.2569618 magnetization 

 Free energy of the ion-electron system (eV)
  ---------------------------------------------------
  alpha Z        PSCENC =       305.22198693
  Ewald energy   TEWEN  =     -2998.72999636
  -Hartree energ DENC   =      -747.41771701
  -exchange      EXHF   =       181.92228245
  -V(xc)+E(xc)   XCENC  =       111.40548427
  PAW double counting   =      4057.04608857    -4013.64964707
  entropy T*S    EENTRO =         0.00000000
  eigenvalues    EBANDS =      -548.24867114
  atomic energy  EATOM  =      3591.70966704
  ---------------------------------------------------
  free energy    TOTEN  =       -60.74052230 eV

  energy without entropy =      -60.74052230  energy(sigma->0) =      -60.74052230
  exchange ACFDT corr.  =         0.00000000  see jH, gK, PRB 81, 115126


--------------------------------------------------------------------------------------------------------




--------------------------------------- Iteration      1(  13)  ---------------------------------------


    POTLOK:  cpu time      0.0066: real time      0.0066
    SETDIJ:  cpu time      0.1805: real time      0.1812
    TRIAL :  cpu time      2.1051: real time      2.1160
 BZINTS: Fermi energy:    0.581726;   46.000000 electrons
         Band energy:-0.545328E+03;  BLOECHL correction:    0.000000
    CORREC:  cpu time      0.0006: real time      0.0006
    CHARGE:  cpu time      0.0025: real time      0.0025
    --------------------------------------------
      LOOP:  cpu time      2.3206: real time      2.3329

 eigenvalue-minimisations  :     0
 total energy-change (2. order) :-0.3186066E-01  (-0.2503793E-01)
 number of electron      46.0000064 magnetization 
 augmentation part        4.2494463 magnetization 

 Free energy of the ion-electron system (eV)
  ---------------------------------------------------
  alpha Z        PSCENC =       305.22198693
  Ewald energy   TEWEN  =     -2998.72999636
  -Hartree energ DENC   =      -747.40143479
  -exchange      EXHF   =       181.89159212
  -V(xc)+E(xc)   XCENC  =       111.41056388
  PAW double counting   =      4054.45056315    -4011.07164163
  entropy T*S    EENTRO =         0.00000000
  eigenvalues    EBANDS =      -548.25368331
  atomic energy  EATOM  =      3591.70966704
  ---------------------------------------------------
  free energy    TOTEN  =       -60.77238297 eV

  energy without entropy =      -60.77238297  energy(sigma->0) =      -60.77238297
  exchange ACFDT corr.  =         0.00000000  see jH, gK, PRB 81, 115126


--------------------------------------------------------------------------------------------------------




--------------------------------------- Iteration      1(  14)  ---------------------------------------


    POTLOK:  cpu time      0.0068: real time      0.0068
    SETDIJ:  cpu time      0.1804: real time      0.1810
    TRIAL :  cpu time      2.1047: real time      2.1149
 BZINTS: Fermi energy:    0.559023;   46.000000 electrons
         Band energy:-0.545539E+03;  BLOECHL correction:    0.000000
    CORREC:  cpu time      0.0006: real time      0.0007
    CHARGE:  cpu time      0.0025: real time      0.0025
    --------------------------------------------
      LOOP:  cpu time      2.3097: real time      2.3319

 eigenvalue-minimisations  :     0
 total energy-change (2. order) :-0.9698765E-02  (-0.6216358E-02)
 number of electron      46.0000064 magnetization 
 augmentation part        4.2487972 magnetization 

 Free energy of the ion-electron system (eV)
  ---------------------------------------------------
  alpha Z        PSCENC =       305.22198693
  Ewald energy   TEWEN  =     -2998.72999636
  -Hartree energ DENC   =      -749.76525288
  -exchange      EXHF   =       182.07615956
  -V(xc)+E(xc)   XCENC  =       111.51300230
  PAW double counting   =      4053.10587784    -4009.69397620
  entropy T*S    EENTRO =         0.00000000
  eigenvalues    EBANDS =      -546.21954997
  atomic energy  EATOM  =      3591.70966704
  ---------------------------------------------------
  free energy    TOTEN  =       -60.78208173 eV

  energy without entropy =      -60.78208173  energy(sigma->0) =      -60.78208173
  exchange ACFDT corr.  =         0.00000000  see jH, gK, PRB 81, 115126


--------------------------------------------------------------------------------------------------------




--------------------------------------- Iteration      1(  15)  ---------------------------------------


    POTLOK:  cpu time      0.0070: real time      0.0070
    SETDIJ:  cpu time      0.1803: real time      0.1809
    TRIAL :  cpu time      2.1116: real time      2.1221
 BZINTS: Fermi energy:    0.583781;   46.000000 electrons
         Band energy:-0.545649E+03;  BLOECHL correction:    0.000000
    CORREC:  cpu time      0.0007: real time      0.0007
    CHARGE:  cpu time      0.0024: real time      0.0024
    --------------------------------------------
      LOOP:  cpu time      2.3204: real time      2.3366

 eigenvalue-minimisations  :     0
 total energy-change (2. order) :-0.4124886E-02  (-0.5696552E-02)
 number of electron      46.0000064 magnetization 
 augmentation part        4.2464325 magnetization 

 Free energy of the ion-electron system (eV)
  ---------------------------------------------------
  alpha Z        PSCENC =       305.22198693
  Ewald energy   TEWEN  =     -2998.72999636
  -Hartree energ DENC   =      -750.48972834
  -exchange      EXHF   =       182.13291114
  -V(xc)+E(xc)   XCENC  =       111.54220987
  PAW double counting   =      4055.01405577    -4011.49844560
  entropy T*S    EENTRO =         0.00000000
  eigenvalues    EBANDS =      -545.68886708
  atomic energy  EATOM  =      3591.70966704
  ---------------------------------------------------
  free energy    TOTEN  =       -60.78620662 eV

  energy without entropy =      -60.78620662  energy(sigma->0) =      -60.78620662
  exchange ACFDT corr.  =         0.00000000  see jH, gK, PRB 81, 115126


--------------------------------------------------------------------------------------------------------




--------------------------------------- Iteration      1(  16)  ---------------------------------------


    POTLOK:  cpu time      0.0069: real time      0.0070
    SETDIJ:  cpu time      0.1793: real time      0.1799
    TRIAL :  cpu time      2.0979: real time      2.1106
 BZINTS: Fermi energy:    0.565953;   46.000000 electrons
         Band energy:-0.545816E+03;  BLOECHL correction:    0.000000
    CORREC:  cpu time      0.0006: real time      0.0006
    CHARGE:  cpu time      0.0025: real time      0.0025
    --------------------------------------------
      LOOP:  cpu time      2.3085: real time      2.3244

 eigenvalue-minimisations  :     0
 total energy-change (2. order) :-0.3474622E-02  (-0.1765557E-02)
 number of electron      46.0000064 magnetization 
 augmentation part        4.2425481 magnetization 

 Free energy of the ion-electron system (eV)
  ---------------------------------------------------
  alpha Z        PSCENC =       305.22198693
  Ewald energy   TEWEN  =     -2998.72999636
  -Hartree energ DENC   =      -749.91802983
  -exchange      EXHF   =       182.08553307
  -V(xc)+E(xc)   XCENC  =       111.51644407
  PAW double counting   =      4057.99302815    -4014.39444166
  entropy T*S    EENTRO =         0.00000000
  eigenvalues    EBANDS =      -546.27387264
  atomic energy  EATOM  =      3591.70966704
  ---------------------------------------------------
  free energy    TOTEN  =       -60.78968124 eV

  energy without entropy =      -60.78968124  energy(sigma->0) =      -60.78968124
  exchange ACFDT corr.  =         0.00000000  see jH, gK, PRB 81, 115126


--------------------------------------------------------------------------------------------------------




--------------------------------------- Iteration      1(  17)  ---------------------------------------


    POTLOK:  cpu time      0.0070: real time      0.0070
    SETDIJ:  cpu time      0.1799: real time      0.1805
    TRIAL :  cpu time      2.1076: real time      2.1204
 BZINTS: Fermi energy:    0.549971;   46.000000 electrons
         Band energy:-0.546048E+03;  BLOECHL correction:    0.000000
    CORREC:  cpu time      0.0006: real time      0.0006
    CHARGE:  cpu time      0.0025: real time      0.0025
    --------------------------------------------
      LOOP:  cpu time      2.3202: real time      2.3345

 eigenvalue-minimisations  :     0
 total energy-change (2. order) :-0.1285464E-02  (-0.1448615E-02)
 number of electron      46.0000064 magnetization 
 augmentation part        4.2388300 magnetization 

 Free energy of the ion-electron system (eV)
  ---------------------------------------------------
  alpha Z        PSCENC =       305.22198693
  Ewald energy   TEWEN  =     -2998.72999636
  -Hartree energ DENC   =      -749.53292560
  -exchange      EXHF   =       182.05512060
  -V(xc)+E(xc)   XCENC  =       111.49966128
  PAW double counting   =      4060.01452298    -4016.37125487
  entropy T*S    EENTRO =         0.00000000
  eigenvalues    EBANDS =      -546.65774872
  atomic energy  EATOM  =      3591.70966704
  ---------------------------------------------------
  free energy    TOTEN  =       -60.79096670 eV

  energy without entropy =      -60.79096670  energy(sigma->0) =      -60.79096670
  exchange ACFDT corr.  =         0.00000000  see jH, gK, PRB 81, 115126


--------------------------------------------------------------------------------------------------------




--------------------------------------- Iteration      1(  18)  ---------------------------------------


    POTLOK:  cpu time      0.0075: real time      0.0075
    SETDIJ:  cpu time      0.1799: real time      0.1805
    TRIAL :  cpu time      2.1023: real time      2.1122
 BZINTS: Fermi energy:    0.535621;   46.000000 electrons
         Band energy:-0.546252E+03;  BLOECHL correction:    0.000000
    CORREC:  cpu time      0.0006: real time      0.0006
    CHARGE:  cpu time      0.0024: real time      0.0025
    --------------------------------------------
      LOOP:  cpu time      2.3111: real time      2.3274

 eigenvalue-minimisations  :     0
 total energy-change (2. order) :-0.1173273E-02  (-0.8514518E-03)
 number of electron      46.0000064 magnetization 
 augmentation part        4.2364991 magnetization 

 Free energy of the ion-electron system (eV)
  ---------------------------------------------------
  alpha Z        PSCENC =       305.22198693
  Ewald energy   TEWEN  =     -2998.72999636
  -Hartree energ DENC   =      -749.60883232
  -exchange      EXHF   =       182.06289034
  -V(xc)+E(xc)   XCENC  =       111.50290009
  PAW double counting   =      4061.01196497    -4017.34040780
  entropy T*S    EENTRO =         0.00000000
  eigenvalues    EBANDS =      -546.62231287
  atomic energy  EATOM  =      3591.70966704
  ---------------------------------------------------
  free energy    TOTEN  =       -60.79213998 eV

  energy without entropy =      -60.79213998  energy(sigma->0) =      -60.79213998
  exchange ACFDT corr.  =         0.00000000  see jH, gK, PRB 81, 115126


--------------------------------------------------------------------------------------------------------




--------------------------------------- Iteration      1(  19)  ---------------------------------------


    POTLOK:  cpu time      0.0076: real time      0.0076
    SETDIJ:  cpu time      0.1785: real time      0.1791
    TRIAL :  cpu time      2.1088: real time      2.1191
 BZINTS: Fermi energy:    0.522981;   46.000000 electrons
         Band energy:-0.546377E+03;  BLOECHL correction:    0.000000
    CORREC:  cpu time      0.0006: real time      0.0006
    CHARGE:  cpu time      0.0025: real time      0.0025
    --------------------------------------------
      LOOP:  cpu time      2.3211: real time      2.3330

 eigenvalue-minimisations  :     0
 total energy-change (2. order) :-0.7208489E-03  (-0.5807974E-03)
 number of electron      46.0000064 magnetization 
 augmentation part        4.2349321 magnetization 

 Free energy of the ion-electron system (eV)
  ---------------------------------------------------
  alpha Z        PSCENC =       305.22198693
  Ewald energy   TEWEN  =     -2998.72999636
  -Hartree energ DENC   =      -749.80150138
  -exchange      EXHF   =       182.07945253
  -V(xc)+E(xc)   XCENC  =       111.51080917
  PAW double counting   =      4061.67489394    -4017.96996372
  entropy T*S    EENTRO =         0.00000000
  eigenvalues    EBANDS =      -546.48820899
  atomic energy  EATOM  =      3591.70966704
  ---------------------------------------------------
  free energy    TOTEN  =       -60.79286082 eV

  energy without entropy =      -60.79286082  energy(sigma->0) =      -60.79286082
  exchange ACFDT corr.  =         0.00000000  see jH, gK, PRB 81, 115126


--------------------------------------------------------------------------------------------------------




--------------------------------------- Iteration      1(  20)  ---------------------------------------


    POTLOK:  cpu time      0.0076: real time      0.0077
    SETDIJ:  cpu time      0.1800: real time      0.1807
    TRIAL :  cpu time      2.1028: real time      2.1128
 BZINTS: Fermi energy:    0.511974;   46.000000 electrons
         Band energy:-0.546440E+03;  BLOECHL correction:    0.000000
    CORREC:  cpu time      0.0006: real time      0.0006
    CHARGE:  cpu time      0.0025: real time      0.0025
    --------------------------------------------
      LOOP:  cpu time      2.3079: real time      2.3311

 eigenvalue-minimisations  :     0
 total energy-change (2. order) :-0.5402943E-03  (-0.4401234E-03)
 number of electron      46.0000064 magnetization 
 augmentation part        4.2333747 magnetization 

 Free energy of the ion-electron system (eV)
  ---------------------------------------------------
  alpha Z        PSCENC =       305.22198693
  Ewald energy   TEWEN  =     -2998.72999636
  -Hartree energ DENC   =      -749.87835487
  -exchange      EXHF   =       182.08557629
  -V(xc)+E(xc)   XCENC  =       111.51363280
  PAW double counting   =      4062.29966995    -4018.56130589
  entropy T*S    EENTRO =         0.00000000
  eigenvalues    EBANDS =      -546.45427701
  atomic energy  EATOM  =      3591.70966704
  ---------------------------------------------------
  free energy    TOTEN  =       -60.79340112 eV

  energy without entropy =      -60.79340112  energy(sigma->0) =      -60.79340112
  exchange ACFDT corr.  =         0.00000000  see jH, gK, PRB 81, 115126


--------------------------------------------------------------------------------------------------------




--------------------------------------- Iteration      1(  21)  ---------------------------------------


[...]
      9     -16.7291      2.00000
     10     -15.1609      2.00000
     11     -14.2317      2.00000
     12     -13.6038      2.00000
     13      -4.6407      2.00000
     14      -4.2721      2.00000
     15      -3.8266      2.00000
     16      -1.5448      2.00000
     17      -1.3130      2.00000
     18      -0.9736      2.00000
     19      -0.7992      2.00000
     20      -0.2759      2.00000
     21       0.2026      2.00000
     22       0.6070      2.00000
     23       0.8866      2.00000
     24       7.3582      0.00000
     25       8.5804      0.00000
     26       9.2451      0.00000
     27       9.7895      0.00000
     28      10.6970      0.00000

 k-point    18 :      -0.2000    0.2000    0.3333
  band No.  band energies     occupation 
      1     -37.4714      2.00000
      2     -37.4180      2.00000
      3     -22.8642      2.00000
      4     -19.7318      2.00000
      5     -19.2288      2.00000
      6     -17.2514      2.00000
      7     -16.9889      2.00000
      8     -16.8421      2.00000
      9     -16.5024      2.00000
     10     -15.4245      2.00000
     11     -14.6436      2.00000
     12     -13.7493      2.00000
     13      -4.7495      2.00000
     14      -4.0538      2.00000
     15      -3.8994      2.00000
     16      -1.7569      2.00000
     17      -1.5633      2.00000
     18      -1.2679      2.00000
     19      -0.6184      2.00000
     20      -0.4790      2.00000
     21      -0.0757      2.00000
     22       0.3961      2.00000
     23       0.6391      2.00000
     24       7.7135      0.00000
     25       8.8227      0.00000
     26       9.4392      0.00000
     27       9.6170      0.00000
     28      10.3740      0.00000

 k-point    19 :       0.4000    0.4000    0.3333
  band No.  band energies     occupation 
      1     -37.4401      2.00000
      2     -37.4153      2.00000
      3     -22.8227      2.00000
      4     -19.6908      2.00000
      5     -19.2051      2.00000
      6     -17.5926      2.00000
      7     -17.0738      2.00000
      8     -16.9890      2.00000
      9     -16.8701      2.00000
     10     -14.9508      2.00000
     11     -14.5475      2.00000
     12     -13.9128      2.00000
     13      -4.6852      2.00000
     14      -4.0856      2.00000
     15      -3.9899      2.00000
     16      -1.8909      2.00000
     17      -1.4054      2.00000
     18      -1.2549      2.00000
     19      -0.5401      2.00000
     20      -0.0479      2.00000
     21      -0.0247      2.00000
     22       0.8440      2.00000
     23       0.9157      2.00000
     24       8.0254      0.00000
     25       8.4442      0.00000
     26       8.9186      0.00000
     27       9.5848      0.00000
     28      10.3746      0.00000

 k-point    20 :      -0.4000    0.4000    0.3333
  band No.  band energies     occupation 
      1     -37.4242      2.00000
      2     -37.4057      2.00000
      3     -22.8096      2.00000
      4     -19.7187      2.00000
      5     -19.6168      2.00000
      6     -17.8394      2.00000
      7     -17.1471      2.00000
      8     -16.8757      2.00000
      9     -16.7015      2.00000
     10     -14.6789      2.00000
     11     -14.3678      2.00000
     12     -13.9622      2.00000
     13      -4.6938      2.00000
     14      -4.1583      2.00000
     15      -4.0171      2.00000
     16      -1.4077      2.00000
     17      -1.1904      2.00000
     18      -1.0595      2.00000
     19      -0.5776      2.00000
     20      -0.2800      2.00000
     21       0.2794      2.00000
     22       0.6780      2.00000
     23       0.8594      2.00000
     24       7.3700      0.00000
     25       8.6090      0.00000
     26       9.0545      0.00000
     27      10.0141      0.00000
     28      10.4490      0.00000

 k-point    21 :      -0.2000    0.4000    0.3333
  band No.  band energies     occupation 
      1     -37.4342      2.00000
      2     -37.4049      2.00000
      3     -22.8429      2.00000
      4     -19.7414      2.00000
      5     -19.7034      2.00000
      6     -17.6309      2.00000
      7     -17.1545      2.00000
      8     -16.8505      2.00000
      9     -16.5169      2.00000
     10     -15.1311      2.00000
     11     -14.2056      2.00000
     12     -13.7451      2.00000
     13      -4.6204      2.00000
     14      -4.3060      2.00000
     15      -3.9224      2.00000
     16      -1.4794      2.00000
     17      -1.1289      2.00000
     18      -1.0666      2.00000
     19      -0.6664      2.00000
     20      -0.4766      2.00000
     21       0.2820      2.00000
     22       0.5600      2.00000
     23       0.9070      2.00000
     24       7.3410      0.00000
     25       8.5511      0.00000
     26       9.5517      0.00000
     27       9.8478      0.00000
     28      10.4839      0.00000

 k-point    22 :      -0.4000   -0.4000    0.3333
  band No.  band energies     occupation 
      1     -37.4538      2.00000
      2     -37.4015      2.00000
      3     -22.8062      2.00000
      4     -19.6666      2.00000
      5     -19.4160      2.00000
      6     -17.5102      2.00000
      7     -17.0664      2.00000
      8     -16.8779      2.00000
      9     -16.6669      2.00000
     10     -15.1234      2.00000
     11     -14.7296      2.00000
     12     -13.7860      2.00000
     13      -4.8364      2.00000
     14      -4.1046      2.00000
     15      -4.0432      2.00000
     16      -1.5473      2.00000
     17      -1.3916      2.00000
     18      -1.1119      2.00000
     19      -0.6080      2.00000
     20      -0.2621      2.00000
     21      -0.0119      2.00000
     22       0.8757      2.00000
     23       0.9048      2.00000
     24       7.8322      0.00000
     25       8.3616      0.00000
     26       9.3039      0.00000
     27       9.5239      0.00000
     28      10.7005      0.00000

 k-point    23 :      -0.2000   -0.4000    0.3333
  band No.  band energies     occupation 
      1     -37.4732      2.00000
      2     -37.4068      2.00000
      3     -22.8402      2.00000
      4     -19.6427      2.00000
      5     -19.1355      2.00000
      6     -17.6849      2.00000
      7     -17.1004      2.00000
      8     -16.7285      2.00000
      9     -16.6527      2.00000
     10     -14.7689      2.00000
     11     -14.6533      2.00000
     12     -14.1960      2.00000
     13      -4.7882      2.00000
     14      -4.2827      2.00000
     15      -3.8414      2.00000
     16      -1.7917      2.00000
     17      -1.3430      2.00000
     18      -1.0445      2.00000
     19      -0.8592      2.00000
     20      -0.4667      2.00000
     21      -0.1114      2.00000
     22       0.7184      2.00000
     23       0.8064      2.00000
     24       7.8755      0.00000
     25       8.3574      0.00000
     26       9.2458      0.00000
     27       9.8423      0.00000
     28      10.4466      0.00000

 k-point    24 :      -0.2000   -0.2000    0.3333
  band No.  band energies     occupation 
      1     -37.5235      2.00000
      2     -37.4314      2.00000
      3     -22.8550      2.00000
      4     -19.3457      2.00000
      5     -18.3948      2.00000
      6     -16.9357      2.00000
      7     -16.9075      2.00000
      8     -16.8345      2.00000
      9     -16.7574      2.00000
     10     -15.6093      2.00000
     11     -15.2432      2.00000
     12     -14.1328      2.00000
     13      -4.8463      2.00000
     14      -4.0599      2.00000
     15      -4.0484      2.00000
     16      -1.9258      2.00000
     17      -1.6444      2.00000
     18      -1.5409      2.00000
     19      -1.0375      2.00000
     20      -0.9488      2.00000
     21       0.0056      2.00000
     22       0.4826      2.00000
     23       0.6457      2.00000
     24       7.8762      0.00000
     25       8.2419      0.00000
     26       8.7988      0.00000
     27       9.8078      0.00000
     28      10.1758      0.00000


--------------------------------------------------------------------------------------------------------


 soft charge-density along one line, spin component           1
         0         1         2         3         4         5         6         7         8         9
 total charge-density along one line
 
 pseudopotential strength for first ion, spin component:           1
-15.361  -3.416  -0.000   0.023   0.001   0.000  -0.020  -0.002
 -3.416  -3.278  -0.000  -0.003   0.001   0.000   0.006   0.000
 -0.000  -0.000 -13.715  -0.000  -0.000   3.091   0.000   0.000
  0.023  -0.003  -0.000 -13.720   0.003   0.000   3.097  -0.004
  0.001   0.001  -0.000   0.003 -13.718   0.000  -0.004   3.094
  0.000   0.000   3.091   0.000   0.000   9.545  -0.000  -0.000
 -0.020   0.006   0.000   3.097  -0.004  -0.000   9.543   0.002
 -0.002   0.000   0.000  -0.004   3.094  -0.000   0.002   9.544
 -0.000  -0.000  -0.002   0.000  -0.000   0.003  -0.000   0.000
 -0.000  -0.000   0.007  -0.000   0.000  -0.009   0.000  -0.000
 -0.001  -0.001   0.000   0.010  -0.001  -0.000  -0.013   0.001
  0.001   0.001   0.000  -0.000   0.007  -0.000   0.000  -0.009
 -0.001  -0.001   0.000  -0.000   0.004  -0.000   0.000  -0.005
 -0.000  -0.000  -0.003   0.000  -0.000   0.003  -0.000   0.000
 -0.000  -0.000   0.010  -0.000   0.000  -0.012   0.000  -0.000
 -0.002  -0.002   0.000   0.014  -0.001  -0.000  -0.017   0.002
  0.002   0.002   0.000  -0.001   0.010  -0.000  -0.000  -0.011
 -0.001  -0.001   0.000  -0.000   0.005  -0.000   0.000  -0.006
 total augmentation occupancy for first ion, spin component:           1
  2.004  -0.014   0.000  -0.002  -0.000   0.000  -0.003  -0.000  -0.000  -0.000  -0.002   0.000   0.001   0.000   0.000   0.002
 -0.014   0.671   0.000  -0.037  -0.002   0.000   0.047   0.005  -0.000   0.000  -0.078   0.066  -0.042   0.000  -0.000   0.044
  0.000   0.000   2.010   0.000  -0.000  -0.048  -0.000   0.000   0.045  -0.000  -0.000   0.000   0.000  -0.003  -0.013   0.000
 -0.002  -0.037   0.000   2.010   0.001   0.000  -0.047  -0.001   0.000   0.000  -0.017   0.020  -0.007  -0.000  -0.000  -0.006
 -0.000  -0.002  -0.000   0.001   2.009  -0.000  -0.001  -0.045   0.000  -0.000   0.010  -0.000  -0.050  -0.000   0.000  -0.002
  0.000   0.000  -0.048   0.000  -0.000   0.068   0.000  -0.000  -0.194   0.071   0.000  -0.000  -0.000   0.109  -0.039  -0.000
 -0.003   0.047  -0.000  -0.047  -0.001   0.000   0.063   0.002  -0.000  -0.000   0.081  -0.051   0.013   0.000  -0.000  -0.046
 -0.000   0.005   0.000  -0.001  -0.045  -0.000   0.002   0.065   0.000   0.000  -0.037   0.073   0.218   0.000  -0.000   0.022
 -0.000  -0.000   0.045   0.000   0.000  -0.194  -0.000   0.000   3.653  -1.377  -0.000   0.000   0.000  -2.107   0.816   0.000
 -0.000   0.000  -0.000   0.000  -0.000   0.071  -0.000   0.000  -1.377   2.598   0.000  -0.000  -0.000   0.816  -1.499  -0.000
 -0.002  -0.078  -0.000  -0.017   0.010   0.000   0.081  -0.037  -0.000   0.000   4.594   0.431   0.004   0.000  -0.000  -2.651
  0.000   0.066   0.000   0.020  -0.000  -0.000  -0.051   0.073   0.000  -0.000   0.431   2.646   1.423  -0.000   0.000  -0.263
  0.001  -0.042   0.000  -0.007  -0.050  -0.000   0.013   0.218   0.000  -0.000   0.004   1.423   3.855  -0.000   0.000  -0.016
  0.000   0.000  -0.003  -0.000  -0.000   0.109   0.000   0.000  -2.107   0.816   0.000  -0.000  -0.000   1.222  -0.487  -0.000
  0.000  -0.000  -0.013  -0.000   0.000  -0.039  -0.000  -0.000   0.816  -1.499  -0.000   0.000   0.000  -0.487   0.869   0.000
  0.002   0.044   0.000  -0.006  -0.002  -0.000  -0.046   0.022   0.000  -0.000  -2.651  -0.263  -0.016  -0.000   0.000   1.540
 -0.002  -0.043  -0.000  -0.007  -0.013   0.000   0.031  -0.039  -0.000   0.000  -0.263  -1.537  -0.853   0.000  -0.000   0.160
 -0.000   0.023  -0.000   0.002   0.002   0.000  -0.006  -0.122  -0.000   0.000  -0.016  -0.854  -2.228   0.000  -0.000   0.017


------------------------ aborting loop because EDIFF is reached ----------------------------------------





 total charge

# of ion       s       p       d       tot
------------------------------------------
    1        2.087   5.940   0.794   8.822
    2        2.087   5.940   0.794   8.822
    3        1.589   3.548   0.000   5.137
    4        1.589   3.548   0.000   5.137
    5        1.597   3.439   0.000   5.036
    6        1.597   3.439   0.000   5.036
--------------------------------------------------
tot         10.545  25.855   1.588  37.989
 
    FORLOC:  cpu time      0.0001: real time      0.0001
    FORHF :  cpu time      6.3250: real time      6.3577
    FORNL :  cpu time      0.0123: real time      0.0135
    STRESS:  cpu time      0.0827: real time      0.0833
    FORCOR:  cpu time      0.0298: real time      0.0326
    OFIELD:  cpu time      0.0008: real time      0.0009

  FORCE on cell =-STRESS in cart. coord.  units (eV):
  Direction    XX          YY          ZZ          XY          YZ          ZX
  --------------------------------------------------------------------------------------
  Alpha Z   323.63180   323.63180   323.63180
  Ewald    -950.31955 -1120.89814  -983.69960    -0.00000    -0.00000   -34.57921
  Hartree   272.70749   188.95399   268.76117     0.00000     0.00000   -15.30706
  E(xc)    -133.25698  -133.41483  -133.28343     0.00000    -0.00000    -0.07119
  Local     -94.71387   129.05395   -68.35674    -0.00000    -0.00000    29.32346
  n-local  -116.13283  -119.11559  -116.40993    -1.34226    -0.36561    -1.95607
  augment    32.28962    36.00899    33.55304     0.00000     0.00000     2.56875
  Kinetic   786.56545   818.54396   797.21728     1.53950     1.08907    21.40746
  Fock     -120.77261  -122.77129  -121.41202     0.03461    -0.11024    -1.38829
  -------------------------------------------------------------------------------------
  Total      -0.00148    -0.00717     0.00156     0.00000     0.00000    -0.00215
  in kB      -0.02886    -0.13959     0.03032     0.00000     0.00000    -0.04195
  external pressure =       -0.05 kB  Pullay stress =        0.00 kB


 VOLUME and BASIS-vectors are now :
 -----------------------------------------------------------------------------
  energy-cutoff  :      400.00
  volume of cell :       82.28
      direct lattice vectors                 reciprocal lattice vectors
     3.297222801 -1.967010700 -0.010498305     0.151710958 -0.254192822  0.021415897
     3.297222801  1.967010700 -0.010498305     0.151710958  0.254192822  0.021415897
    -0.895876214  0.000000000  6.346418143     0.000501923 -0.000000000  0.157640048

  length of vectors
     3.839390512  3.839390512  6.409338300     0.296797652  0.296797652  0.157640847


 FORCES acting on ions:
    Electron-Ion                     Ewald-Force                    Non-Local-Force
 -----------------------------------------------------------------------------------------------
   -.182E+02 -.782E-06 0.593E+01   0.183E+02 0.255E-13 -.388E+01   0.389E-02 0.828E-17 0.167E+00
   0.182E+02 0.781E-06 -.593E+01   -.183E+02 -.183E-13 0.388E+01   -.389E-02 -.120E-16 -.167E+00
   0.172E+01 -.405E-06 -.269E+01   -.215E+01 0.855E-14 0.380E+01   0.349E+00 -.481E-16 -.896E+00
   -.172E+01 0.404E-06 0.269E+01   0.215E+01 0.133E-13 -.380E+01   -.349E+00 -.384E-17 0.896E+00
   -.875E+02 0.149E-07 0.779E+02   0.109E+03 0.133E-13 -.960E+02   -.178E+02 -.294E-15 0.147E+02
   0.875E+02 -.144E-07 -.779E+02   -.109E+03 -.363E-13 0.960E+02   0.178E+02 0.681E-16 -.147E+02
 -----------------------------------------------------------------------------------------------
   0.291E-06 0.307E-08 -.221E-06   0.142E-13 0.617E-14 0.142E-13   0.000E+00 -.282E-15 0.000E+00
 
 
 POSITION                                       TOTAL-FORCE (eV/Angst)
 -----------------------------------------------------------------------------------
      4.59515      0.00000      4.86894        -0.001059      0.000000      0.003475
      1.10342      0.00000      1.45648         0.001059     -0.000000     -0.003475
      5.46944     -0.00000      0.87275        -0.000457      0.000000      0.002910
      0.22913      0.00000      5.45268         0.000457     -0.000000     -0.002910
      3.41758      0.00000      2.71155        -0.003835      0.000000      0.001383
      2.28099     -0.00000      3.61388         0.003835     -0.000000     -0.001383
 -----------------------------------------------------------------------------------
    total drift:                                0.000000      0.000000     -0.000000


--------------------------------------------------------------------------------------------------------



  FREE ENERGIE OF THE ION-ELECTRON SYSTEM (eV)
  ---------------------------------------------------
  free  energy   TOTEN  =       -60.98767819 eV

  energy  without entropy=      -60.98767819  energy(sigma->0) =      -60.98767819
 d Force = 0.2338903E-05[ 0.113E-05, 0.355E-05]  d Energy = 0.2608146E-05-0.269E-06
 d Force =-0.1542133E-01[-0.154E-01,-0.154E-01]  d Ewald  =-0.5619727E-01 0.408E-01
 


--------------------------------------------------------------------------------------------------------


    POTLOK:  cpu time      0.2002: real time      0.2019


--------------------------------------------------------------------------------------------------------


 Conjugate gradient step on ions:
 trial-energy change:   -0.000003  1 .order   -0.000003   -0.000004   -0.000001
  (g-gl).g = 0.898E-05      g.g   = 0.831E-05  gl.gl    = 0.183E-04
 g(Force)  = 0.781E-05   g(Stress)= 0.497E-06 ortho     =-0.877E-06
 gamma     =   0.49067
 trial     =   0.49682
 opt step  =   0.72289  (harmonic =   0.72289) maximal distance =0.00033951
 next E    =   -60.987678   (d E  =  -0.00000)


--------------------------------------------------------------------------------------------------------


  
 reached required accuracy - stopping structural energy minimisation
 writing wavefunctions
     LOOP+:  cpu time     30.2625: real time     30.4762
    4ORBIT:  cpu time      0.0003: real time      0.0003



 total charge

# of ion       s       p       d       tot
------------------------------------------
    1        2.087   5.940   0.794   8.822
    2        2.087   5.940   0.794   8.822
    3        1.589   3.548   0.000   5.137
    4        1.589   3.548   0.000   5.137
    5        1.597   3.439   0.000   5.036
    6        1.597   3.439   0.000   5.036
--------------------------------------------------
tot         10.545  25.855   1.588  37.989
 
 BZINTS: Fermi energy:    1.080872;   46.000000 electrons
         Band energy:-0.531008E+03;  BLOECHL correction:    0.000000

 total amount of memory used by VASP MPI-rank0    85154. kBytes
=======================================================================

   base                                    :      30000. kBytes
   nonl-proj                               :      11380. kBytes
   fftplans                                :        218. kBytes
   grid                                    :        811. kBytes
   one-center                              :         93. kBytes
   HF                                      :        129. kBytes
   nonlr-proj                              :      34813. kBytes
   wavefun                                 :       1965. kBytes
   fock_wrk                                :       5745. kBytes
 
  
  
 General timing and accounting informations for this job:
 ========================================================
  
                  Total CPU time used (sec):     1401.716
                            User time (sec):     1393.992
                          System time (sec):        7.724
                         Elapsed time (sec):     1412.567
  
                   Maximum memory used (kb):      423892.
                   Average memory used (kb):          N/A
  
                          Minor page faults:        96757
                          Major page faults:         3541
                 Voluntary context switches:        25904
