<?xml version="1.0" encoding="ISO-8859-1"?>
<modeling>
 <generator>
  <i name="program" type="string">vasp </i>
  <i name="version" type="string">6.5.1  </i>
  <i name="subversion" type="string">10Mar25 (build May 05 2025 13:45:00) complex                          parallel </i>
  <i name="platform" type="string">LinuxIFC </i>
  <i name="date" type="string">2026 04 27 </i>
  <i name="time" type="string">13:15:48 </i>
 </generator>
 <incar>
  <i type="string" name="PREC">Normal</i>
  <i type="string" name="ALGO">Damped</i>
  <i type="int" name="NELM">   100</i>
  <i type="int" name="IBRION">     2</i>
  <i name="EDIFF">      0.00000010</i>
  <i name="EDIFFG">     -0.00500000</i>
  <i type="int" name="NSW">   300</i>
  <i type="int" name="ISIF">     3</i>
  <i name="ENCUT">    400.00000000</i>
  <i type="logical" name="LREAL"> F  </i>
  <i name="TIME">      0.40000000</i>
  <i type="int" name="ISMEAR">    -5</i>
  <i name="SIGMA">      0.10000000</i>
  <i type="logical" name="LWAVE"> T  </i>
  <i type="logical" name="LCHARG"> F  </i>
  <i type="int" name="LORBIT">    10</i>
  <i type="logical" name="LASPH"> T  </i>
  <i name="HFSCREEN">      0.20000000</i>
  <i type="logical" name="LHFCALC"> T  </i>
  <i name="AEXX">      0.36000000</i>
  <i type="string" name="PRECFOCK">Fast</i>
 </incar>
 <primitive_cell>
  <structure name="primitive_cell" >
   <crystal>
    <varray name="basis" >
     <v>       3.35535482      -2.01641472       0.00000000 </v>
     <v>       3.35535482       2.01641472       0.00000000 </v>
     <v>      -0.89113475       0.00000000       6.44771029 </v>
    </varray>
    <i name="volume">     87.24766669 </i>
    <varray name="rec_basis" >
     <v>       0.14901554      -0.24796486       0.02059536 </v>
     <v>       0.14901554       0.24796486       0.02059536 </v>
     <v>       0.00000000       0.00000000       0.15509382 </v>
    </varray>
   </crystal>
   <varray name="positions" >
    <v>       0.80151115       0.80151115       0.76878844 </v>
    <v>       0.19848885       0.19848885       0.23121156 </v>
    <v>       0.84765522       0.84765522       0.14166753 </v>
    <v>       0.15234478       0.15234478       0.85833247 </v>
    <v>       0.57801657       0.57801657       0.42792770 </v>
    <v>       0.42198343       0.42198343       0.57207230 </v>
   </varray>
  </structure>
  <varray name="primitive_index" >
   <v type="int" >        1 </v>
   <v type="int" >        2 </v>
   <v type="int" >        3 </v>
   <v type="int" >        4 </v>
   <v type="int" >        5 </v>
   <v type="int" >        6 </v>
  </varray>
 </primitive_cell>
 <kpoints>
  <generation param="Gamma">
   <v type="int" name="divisions">       5        5        3 </v>
   <v name="usershift">      0.00000000       0.00000000       0.00000000 </v>
   <v name="genvec1">      0.20000000      -0.00000000       0.00000000 </v>
   <v name="genvec2">     -0.00000000       0.20000000       0.00000000 </v>
   <v name="genvec3">      0.00000000       0.00000000       0.33333333 </v>
   <v name="shift">      0.00000000       0.00000000       0.00000000 </v>
  </generation>
  <varray name="kpointlist" >
   <v>       0.00000000       0.00000000       0.00000000 </v>
   <v>       0.20000000       0.00000000      -0.00000000 </v>
   <v>       0.40000000       0.00000000      -0.00000000 </v>
   <v>       0.20000000       0.20000000      -0.00000000 </v>
   <v>       0.40000000       0.20000000       0.00000000 </v>
   <v>      -0.40000000       0.20000000       0.00000000 </v>
   <v>      -0.20000000       0.20000000       0.00000000 </v>
   <v>       0.40000000       0.40000000       0.00000000 </v>
   <v>      -0.40000000       0.40000000       0.00000000 </v>
   <v>       0.00000000       0.00000000       0.33333333 </v>
   <v>       0.20000000       0.00000000       0.33333333 </v>
   <v>       0.40000000       0.00000000       0.33333333 </v>
   <v>      -0.40000000      -0.00000000       0.33333333 </v>
   <v>      -0.20000000      -0.00000000       0.33333333 </v>
   <v>       0.20000000       0.20000000       0.33333333 </v>
   <v>       0.40000000       0.20000000       0.33333333 </v>
   <v>      -0.40000000       0.20000000       0.33333333 </v>
   <v>      -0.20000000       0.20000000       0.33333333 </v>
   <v>       0.40000000       0.40000000       0.33333333 </v>
   <v>      -0.40000000       0.40000000       0.33333333 </v>
   <v>      -0.20000000       0.40000000       0.33333333 </v>
   <v>      -0.40000000      -0.40000000       0.33333333 </v>
   <v>      -0.20000000      -0.40000000       0.33333333 </v>
   <v>      -0.20000000      -0.20000000       0.33333333 </v>
  </varray>
  <varray name="weights" >
   <v>       0.01333333 </v>
   <v>       0.05333333 </v>
   <v>       0.05333333 </v>
   <v>       0.02666667 </v>
   <v>       0.05333333 </v>
   <v>       0.05333333 </v>
   <v>       0.02666667 </v>
   <v>       0.02666667 </v>
   <v>       0.02666667 </v>
   <v>       0.02666667 </v>
   <v>       0.05333333 </v>
   <v>       0.05333333 </v>
   <v>       0.05333333 </v>
   <v>       0.05333333 </v>
   <v>       0.02666667 </v>
   <v>       0.05333333 </v>
   <v>       0.05333333 </v>
   <v>       0.05333333 </v>
   <v>       0.02666667 </v>
   <v>       0.05333333 </v>
   <v>       0.05333333 </v>
   <v>       0.02666667 </v>
   <v>       0.05333333 </v>
   <v>       0.02666667 </v>
  </varray>
  <varray name="tetrahedronlist"  type="int" >
   <v type="int" >        4       11       12       18       18 </v>
   <v type="int" >        4       12       18       18       21 </v>
   <v type="int" >        4       12       17       18       21 </v>
   <v type="int" >        4       11       12       14       18 </v>
   <v type="int" >        4       12       13       14       18 </v>
   <v type="int" >        4       12       13       17       18 </v>
   <v type="int" >        4       12       13       17       21 </v>
   <v type="int" >        4       13       17       21       23 </v>
   <v type="int" >        4       13       16       17       23 </v>
   <v type="int" >        8       12       13       13       17 </v>
   <v type="int" >        4       12       13       16       17 </v>
   <v type="int" >        4       13       14       16       23 </v>
   <v type="int" >        4       14       16       23       24 </v>
   <v type="int" >        4       14       15       16       24 </v>
   <v type="int" >        4       12       13       14       16 </v>
   <v type="int" >        4       11       12       14       16 </v>
   <v type="int" >        4       11       14       15       16 </v>
   <v type="int" >        4       10       14       15       24 </v>
   <v type="int" >        4       10       11       14       15 </v>
   <v type="int" >        4       10       10       11       15 </v>
   <v type="int" >        4       10       11       11       14 </v>
   <v type="int" >        4       11       11       14       18 </v>
   <v type="int" >        2       11       11       18       18 </v>
   <v type="int" >        2       10       10       11       11 </v>
   <v type="int" >        4        6       17       18       21 </v>
   <v type="int" >        4        6       17       20       21 </v>
   <v type="int" >        4        6        9       17       20 </v>
   <v type="int" >        4        6        7       17       18 </v>
   <v type="int" >        4        6        6        7       17 </v>
   <v type="int" >        4        6        6        9       17 </v>
   <v type="int" >        4        9       16       17       20 </v>
   <v type="int" >        4        9       16       19       20 </v>
   <v type="int" >        4        8        9       16       19 </v>
   <v type="int" >        4        6        9       16       17 </v>
   <v type="int" >        4        5        6        9       16 </v>
   <v type="int" >        4        5        8        9       16 </v>
   <v type="int" >        4        8       15       16       19 </v>
   <v type="int" >        4        5        8       15       16 </v>
   <v type="int" >        4        4        5        8       15 </v>
   <v type="int" >        4        5       11       15       16 </v>
   <v type="int" >        4        5       11       12       16 </v>
   <v type="int" >        4        3        5       11       12 </v>
   <v type="int" >        4        4        5       11       15 </v>
   <v type="int" >        4        2        4        5       11 </v>
   <v type="int" >        4        2        3        5       11 </v>
   <v type="int" >        4        3       11       12       18 </v>
   <v type="int" >        4        3       12       18       21 </v>
   <v type="int" >        4        3        6       18       21 </v>
   <v type="int" >        4        2        3       11       18 </v>
   <v type="int" >        4        2        3        7       18 </v>
   <v type="int" >        4        3        6        7       18 </v>
   <v type="int" >        4        8        8        9       19 </v>
   <v type="int" >        4        8        9       19       20 </v>
   <v type="int" >        4        8       19       20       22 </v>
   <v type="int" >        4        5        8        9       20 </v>
   <v type="int" >        4        5        6        9       20 </v>
   <v type="int" >        4        5        6       20       21 </v>
   <v type="int" >        4        5        8       20       22 </v>
   <v type="int" >        4        5       20       22       23 </v>
   <v type="int" >        4        5       20       21       23 </v>
   <v type="int" >        4        3        5        6       21 </v>
   <v type="int" >        4        3        3        6       21 </v>
   <v type="int" >        4        3        3       12       21 </v>
   <v type="int" >        4        3        5       21       23 </v>
   <v type="int" >        4        3       13       21       23 </v>
   <v type="int" >        4        3       12       13       21 </v>
   <v type="int" >        4        3        3        6       12 </v>
   <v type="int" >        4        3        5        6       12 </v>
   <v type="int" >        4        5        6       12       16 </v>
   <v type="int" >        4        3        6       12       13 </v>
   <v type="int" >        4        6       12       13       17 </v>
   <v type="int" >        4        6       12       16       17 </v>
   <v type="int" >        4       15       16       19       24 </v>
   <v type="int" >        4       16       19       23       24 </v>
   <v type="int" >        4       19       22       23       24 </v>
   <v type="int" >        4       16       19       20       23 </v>
   <v type="int" >        4       16       17       20       23 </v>
   <v type="int" >        4       17       20       21       23 </v>
   <v type="int" >        4       19       20       22       23 </v>
   <v type="int" >        4       20       20       22       23 </v>
   <v type="int" >        4       20       20       21       23 </v>
   <v type="int" >        4       17       20       21       21 </v>
   <v type="int" >        4       17       18       21       21 </v>
   <v type="int" >        2       18       18       21       21 </v>
   <v type="int" >        2       20       20       21       21 </v>
   <v type="int" >        4        2       14       23       24 </v>
   <v type="int" >        4        2       13       14       23 </v>
   <v type="int" >        4        2        3       13       23 </v>
   <v type="int" >        4        2        4       23       24 </v>
   <v type="int" >        4        2        4        5       23 </v>
   <v type="int" >        4        2        3        5       23 </v>
   <v type="int" >        4        2       11       14       18 </v>
   <v type="int" >        4        2       10       11       14 </v>
   <v type="int" >        4        1        2       10       14 </v>
   <v type="int" >        4        2        7       14       18 </v>
   <v type="int" >        4        2        2        7       14 </v>
   <v type="int" >        4        1        2        2       14 </v>
   <v type="int" >        4        1       10       14       24 </v>
   <v type="int" >        4        1        2       14       24 </v>
   <v type="int" >        4        1        2        4       24 </v>
   <v type="int" >        4        7       13       14       18 </v>
   <v type="int" >        4        7       13       17       18 </v>
   <v type="int" >        4        6        7       13       17 </v>
   <v type="int" >        4        2        7       13       14 </v>
   <v type="int" >        4        2        3        7       13 </v>
   <v type="int" >        4        3        6        7       13 </v>
   <v type="int" >        4        4       10       11       15 </v>
   <v type="int" >        4        2        4       10       11 </v>
   <v type="int" >        4        1        2        4       10 </v>
   <v type="int" >        4        4        5        8       22 </v>
   <v type="int" >        4        4        5       22       23 </v>
   <v type="int" >        4        4       22       23       24 </v>
   <v type="int" >        4       19       20       22       22 </v>
   <v type="int" >        2       20       20       22       22 </v>
  </varray>
  <i name="volumeweight">      0.00222222 </i>
 </kpoints>
 <parameters>
  <separator name="general" >
   <i type="string" name="SYSTEM">unknown system</i>
   <i type="logical" name="LCOMPAT"> F  </i>
  </separator>
  <separator name="electronic" >
   <i type="string" name="PREC">normal</i>
   <i name="ENMAX">    400.00000000</i>
   <i name="ENAUG">    605.39200000</i>
   <i name="EDIFF">      0.00000010</i>
   <i type="int" name="IALGO">    53</i>
   <i type="int" name="IWAVPR">    11</i>
   <i type="int" name="NBANDS">    28</i>
   <i type="int" name="NBANDSLOW">    -1</i>
   <i type="int" name="NBANDSHIGH">    -1</i>
   <i name="NELECT">     46.00000000</i>
   <i type="int" name="TURBO">     0</i>
   <i type="int" name="IRESTART">     0</i>
   <i type="int" name="NREBOOT">     0</i>
   <i type="int" name="NMIN">     0</i>
   <i name="EREF">      0.00000000</i>
   <separator name="electronic smearing" >
    <i type="int" name="ISMEAR">    -5</i>
    <i name="SIGMA">      0.10000000</i>
    <i name="KSPACING">      0.50000000</i>
    <i type="logical" name="KGAMMA"> T  </i>
    <i type="logical" name="KBLOWUP"> T  </i>
   </separator>
   <separator name="electronic projectors" >
    <i type="logical" name="LREAL"> F  </i>
    <v name="ROPT">      0.00000000      0.00000000</v>
    <i type="int" name="LMAXPAW">  -100</i>
    <i type="int" name="LMAXMIX">     2</i>
    <i type="logical" name="NLSPLINE"> F  </i>
   </separator>
   <separator name="electronic startup" >
    <i type="int" name="ISTART">     0</i>
    <i type="int" name="ICHARG">     2</i>
    <i type="int" name="INIWAV">     1</i>
   </separator>
   <separator name="electronic spin" >
    <i type="int" name="ISPIN">     1</i>
    <i type="logical" name="LNONCOLLINEAR"> F  </i>
    <v name="MAGMOM">      1.00000000      1.00000000      1.00000000      1.00000000      1.00000000      1.00000000</v>
    <i name="NUPDOWN">     -1.00000000</i>
    <i type="logical" name="LSORBIT"> F  </i>
    <v name="SAXIS">      0.00000000      0.00000000      1.00000000</v>
    <i type="logical" name="LSPIRAL"> F  </i>
    <v name="QSPIRAL">      0.00000000      0.00000000      0.00000000</v>
    <i type="logical" name="LZEROZ"> F  </i>
   </separator>
   <separator name="electronic exchange-correlation" >
    <i type="logical" name="LASPH"> T  </i>
   </separator>
   <separator name="electronic convergence" >
    <i type="int" name="NELM">   100</i>
    <i type="int" name="NELMDL">    -5</i>
    <i type="int" name="NELMIN">     2</i>
    <i name="ENINI">    400.00000000</i>
    <separator name="electronic convergence detail" >
     <i type="logical" name="LDIAG"> T  </i>
     <i type="logical" name="LSUBROT"> F  </i>
     <i type="logical" name="LROBUST"> F  </i>
     <i type="int" name="ISEARCH">     0</i>
     <i name="WEIMIN">      0.00100000</i>
     <i name="EBREAK">      0.00000000</i>
     <i name="DEPER">      0.30000000</i>
     <i type="int" name="NRMM">     4</i>
     <i name="TIME">      0.40000000</i>
    </separator>
   </separator>
   <separator name="electronic mixer" >
    <i name="AMIX">      0.40000000</i>
    <i name="BMIX">      1.00000000</i>
    <i name="AMIN">      0.10000000</i>
    <i name="AMIX_MAG">      1.60000000</i>
    <i name="BMIX_MAG">      1.00000000</i>
    <separator name="electronic mixer details" >
     <i type="int" name="IMIX">     4</i>
     <i type="logical" name="MIXFIRST"> F  </i>
     <i type="int" name="MAXMIX">   -45</i>
     <i name="WC">    100.00000000</i>
     <i type="int" name="INIMIX">     1</i>
     <i type="int" name="MIXPRE">     1</i>
     <i type="int" name="MREMOVE">     5</i>
    </separator>
   </separator>
   <separator name="electronic dipolcorrection" >
    <i type="logical" name="LDIPOL"> F  </i>
    <i type="logical" name="LMONO"> F  </i>
    <i type="int" name="IDIPOL">     0</i>
    <i name="EPSILON">      1.00000000</i>
    <v name="DIPOL">   -100.00000000   -100.00000000   -100.00000000</v>
    <i name="EFIELD">      0.00000000</i>
    <i type="logical" name="LVACPOTAV"> F  </i>
   </separator>
  </separator>
  <separator name="grids" >
   <i type="int" name="NGX">    20</i>
   <i type="int" name="NGY">    20</i>
   <i type="int" name="NGZ">    32</i>
   <i type="int" name="NGXF">    40</i>
   <i type="int" name="NGYF">    40</i>
   <i type="int" name="NGZF">    64</i>
   <i type="logical" name="ADDGRID"> F  </i>
  </separator>
  <separator name="ionic" >
   <i type="int" name="NSW">   300</i>
   <i type="int" name="IBRION">     2</i>
   <i type="int" name="MDALGO">     0</i>
   <i type="int" name="ISIF">     3</i>
   <i name="PSTRESS">      0.00000000</i>
   <i name="EDIFFG">     -0.00500000</i>
   <i type="int" name="NFREE">     1</i>
   <i name="POTIM">      0.50000000</i>
   <i name="SMASS">     -3.00000000</i>
   <i name="SCALEE">      1.00000000</i>
  </separator>
  <separator name="ionic md" >
   <i name="TEBEG">      0.00010000</i>
   <i name="TEEND">      0.00010000</i>
   <i type="int" name="NBLOCK">     1</i>
   <i type="int" name="KBLOCK">   300</i>
   <i type="int" name="NPACO">   256</i>
   <i name="APACO">     10.00000000</i>
  </separator>
  <separator name="symmetry" >
   <i type="int" name="ISYM">     3</i>
   <i name="SYMPREC">      0.00001000</i>
  </separator>
  <separator name="dos" >
   <i type="int" name="LORBIT">    10</i>
   <v name="RWIGS">     -1.00000000     -1.00000000</v>
   <i type="int" name="NEDOS">   301</i>
   <i name="EMIN">     10.00000000</i>
   <i name="EMAX">    -10.00000000</i>
   <i name="EFERMI">      0.00000000</i>
  </separator>
  <separator name="writing" >
   <i type="int" name="NWRITE">     2</i>
   <i type="logical" name="LWAVE"> T  </i>
   <i type="logical" name="LDOWNSAMPLE"> F  </i>
   <i type="logical" name="LCHARG"> F  </i>
   <i type="logical" name="LPARD"> F  </i>
   <i type="logical" name="LVTOT"> F  </i>
   <i type="logical" name="LVHAR"> F  </i>
   <i type="logical" name="LELF"> F  </i>
   <i type="logical" name="LOPTICS"> F  </i>
   <v name="STM">      0.00000000      0.00000000      0.00000000      0.00000000      0.00000000      0.00000000      0.00000000</v>
  </separator>
  <separator name="performance" >
   <i type="int" name="NPAR">    28</i>
   <i type="int" name="NSIM">     4</i>
   <i type="int" name="NBLK">    -1</i>
   <i type="logical" name="LPLANE"> T  </i>
   <i type="logical" name="LSCALAPACK"> T  </i>
   <i type="logical" name="LSCAAWARE"> F  </i>
   <i type="logical" name="LSCALU"> F  </i>
   <i type="logical" name="LASYNC"> F  </i>
   <i type="logical" name="LORBITALREAL"> F  </i>
  </separator>
  <separator name="miscellaneous" >
   <i type="int" name="IDIOT">     3</i>
   <i type="int" name="PHON_NSTRUCT">    -1</i>
   <i type="logical" name="LMUSIC"> F  </i>
   <v name="POMASS">    144.24000000     16.00000000</v>
   <v name="DARWINR">      0.00000000      0.00000000</v>
   <v name="DARWINV">      1.00000000      1.00000000</v>
   <i type="logical" name="LCORR"> T  </i>
  </separator>
  <i type="logical" name="GGA_COMPAT"> T  </i>
  <i type="logical" name="LBERRY"> F  </i>
  <i type="int" name="ICORELEVEL">     0</i>
  <i type="logical" name="LDAU"> F  </i>
  <i type="int" name="I_CONSTRAINED_M">     0</i>
  <separator name="electronic exchange-correlation" >
   <i type="string" name="GGA    ">PE</i>
   <i type="string" name="XC_C">1</i>
   <i type="int" name="VOSKOWN">     0</i>
   <i type="logical" name="LHFCALC"> T  </i>
   <i type="string" name="PRECFOCK">fast</i>
   <i type="logical" name="LSYMGRAD"> F  </i>
   <i type="logical" name="LHFONE"> F  </i>
   <i type="logical" name="LRHFCALC"> F  </i>
   <i type="logical" name="LTHOMAS"> F  </i>
   <i type="logical" name="LMODELHF"> F  </i>
   <i type="logical" name="LFOCKACE"> T  </i>
   <i name="ENCUT4O">     -1.00000000</i>
   <i type="int" name="EXXOEP">     0</i>
   <i type="int" name="FOURORBIT">     0</i>
   <i name="AEXX">      0.36000000</i>
   <i name="HFALPHA">     -1.00000000</i>
   <i name="MCALPHA">      0.00000000</i>
   <i name="ALDAX">      0.64000000</i>
   <i name="AGGAX">      0.64000000</i>
   <i name="AMGGAX">      0.64000000</i>
   <i name="ALDAC">      1.00000000</i>
   <i name="AGGAC">      1.00000000</i>
   <i name="AMGGAC">      1.00000000</i>
   <i type="int" name="NKREDX">     1</i>
   <i type="int" name="NKREDY">     1</i>
   <i type="int" name="NKREDZ">     1</i>
   <i type="logical" name="SHIFTRED"> F  </i>
   <i type="logical" name="ODDONLY"> F  </i>
   <i type="logical" name="EVENONLY"> F  </i>
   <i type="int" name="LMAXFOCK">     4</i>
   <i type="int" name="NMAXFOCKAE">     1</i>
   <i type="logical" name="LFOCKAEDFT"> F  </i>
   <i name="HFSCREEN">      0.20000000</i>
   <i name="HFSCREENC">      0.20000000</i>
   <i type="int" name="NBANDSGWLOW">     1</i>
  </separator>
  <separator name="vdW DFT" >
   <i type="logical" name="LUSE_VDW"> F  </i>
   <i type="int" name="IVDW_NL">    -1</i>
   <i type="logical" name="LSPIN_VDW"> F  </i>
   <i name="ZAB_VDW">     -0.84910000</i>
   <i name="GAMMA_VDW">      1.39626340</i>
   <i name="ALPHA_VDW">      0.00000000</i>
   <i name="PARAM1">      0.12340000</i>
   <i name="PARAM2">      1.00000000</i>
   <i name="BPARAM">      6.30000000</i>
   <i name="CPARAM">      0.00930000</i>
  </separator>
  <separator name="model GW" >
   <i type="int" name="MODEL_GW">     0</i>
   <i name="MODEL_EPS0">      8.72476667</i>
   <i name="MODEL_ALPHA">      1.00000000</i>
  </separator>
  <separator name="linear response parameters" >
   <i type="logical" name="LEPSILON"> F  </i>
   <i type="logical" name="LRPA"> F  </i>
   <i type="logical" name="LNABLA"> F  </i>
   <i type="logical" name="LVEL"> F  </i>
   <i name="CSHIFT">      0.10000000</i>
   <i name="OMEGAMAX">     -1.00000000</i>
   <i name="DEG_THRESHOLD">      0.00200000</i>
   <i name="RTIME">     -0.10000000</i>
   <i name="WPLASMAI">      0.00000000</i>
   <v name="DFIELD">      0.00000000      0.00000000      0.00000000</v>
   <v name="WPLASMA">      0.00000000      0.00000000      0.00000000      0.00000000      0.00000000      0.00000000      0.00000000      0.00000000      0.00000000</v>
  </separator>
  <separator name="orbital magnetization" >
   <i type="logical" name="NUCIND"> F  </i>
   <v name="MAGPOS">      0.00000000      0.00000000      0.00000000</v>
   <i type="logical" name="LNICSALL"> T  </i>
   <i type="logical" name="ORBITALMAG"> F  </i>
   <i type="logical" name="LMAGBLOCH"> F  </i>
   <i type="logical" name="LCHIMAG"> F  </i>
   <i type="logical" name="LGAUGE"> T  </i>
   <i type="int" name="MAGATOM">     0</i>
   <v name="MAGDIPOL">      0.00000000      0.00000000      0.00000000</v>
   <v name="AVECCONST">      0.00000000      0.00000000      0.00000000</v>
  </separator>
  <separator name="response functions" >
   <i type="logical" name="LALL_IN_ONE"> F  </i>
   <i type="int" name="IALL_IN_ONE">    -1</i>
   <i type="int" name="NBANDS_WAVE">    -1</i>
   <i type="logical" name="LFINITE_TEMPERATURE"> F  </i>
   <i type="logical" name="LADDER"> F  </i>
   <i type="logical" name="LRPAFORCE"> F  </i>
   <i type="logical" name="LFXC"> F  </i>
   <i type="logical" name="LHARTREE"> T  </i>
   <i type="int" name="IBSE">     2</i>
   <v type="int" name="KPOINT">    -1     0     0     0</v>
   <i type="logical" name="LTCTC"> F  </i>
   <i type="logical" name="LTCTE"> F  </i>
   <i type="logical" name="LTETE"> F  </i>
   <i type="logical" name="LTRIPLET"> F  </i>
   <i type="logical" name="LFXCEPS"> F  </i>
   <i type="logical" name="LFXHEG"> F  </i>
   <i type="int" name="NATURALO">     2</i>
   <i type="logical" name="LHOLEGF"> F  </i>
   <i type="logical" name="L2ORDER"> F  </i>
   <i type="logical" name="LDMP1"> F  </i>
   <i type="logical" name="LMP2LT"> F  </i>
   <i type="logical" name="LSMP2LT"> F  </i>
   <i type="logical" name="LGWLF"> F  </i>
   <i name="ENCUTGW">     -1.60000002</i>
   <i name="ENCUTGWSOFT">     -1.60000002</i>
   <i name="ENCUTLF">     -1.00000000</i>
   <i type="logical" name="ESF_SPLINES"> F  </i>
   <i name="ESF_CONV">      0.01000000</i>
   <i type="int" name="ESF_NINTER">    15</i>
   <i type="int" name="LMAXMP2">    -1</i>
   <i name="SCISSOR">      0.00000000</i>
   <i type="int" name="NOMEGA">     0</i>
   <i type="int" name="NOMEGAR">     0</i>
   <i type="int" name="NBANDSGW">    -1</i>
   <i type="int" name="NBANDSO">    -1</i>
   <i type="int" name="NBANDSV">    -1</i>
   <i type="int" name="NELMGW">     1</i>
   <i type="int" name="NELMHF">     1</i>
   <i type="int" name="DIM">     3</i>
   <i type="int" name="IESPILON">     4</i>
   <i type="int" name="ANTIRES">     0</i>
   <i name="OMEGAMAX">    -30.00000000</i>
   <i name="OMEGAMIN">    -30.00000000</i>
   <i name="OMEGATL">   -200.00000000</i>
   <i type="int" name="OMEGAGRID">     0</i>
   <i name="CSHIFT">     -0.10000000</i>
   <i type="logical" name="LSELFENERGY"> F  </i>
   <i type="logical" name="LSPECTRAL"> F  </i>
   <i type="logical" name="LSPECTRALGW"> F  </i>
   <i type="logical" name="LSINGLES"> F  </i>
   <i type="logical" name="LFERMIGW"> F  </i>
   <i type="logical" name="ODDONLYGW"> F  </i>
   <i type="logical" name="EVENONLYGW"> F  </i>
   <i type="int" name="NKREDLFX">     1</i>
   <i type="int" name="NKREDLFY">     1</i>
   <i type="int" name="NKREDLFZ">     1</i>
   <i type="int" name="MAXMEM">  2800</i>
   <i type="int" name="TELESCOPE">     0</i>
   <i type="int" name="NTAUPAR">    -1</i>
   <i type="int" name="NOMEGAPAR">    -1</i>
   <i name="DAMP_NEWTON">      0.80000001</i>
   <i name="LAMBDA">      1.00000000</i>
  </separator>
  <separator name="External order field" >
   <i name="OFIELD_KAPPA">      0.00000000</i>
   <v name="OFIELD_K">      0.00000000      0.00000000      0.00000000</v>
   <i name="OFIELD_Q6_NEAR">      0.00000000</i>
   <i name="OFIELD_Q6_FAR">      0.00000000</i>
   <i name="OFIELD_A">      0.00000000</i>
  </separator>
  <separator name="optional k-points parameters" >
   <i type="int" name="KPOINTS_OPT_MODE">     1</i>
   <i type="logical" name="LKPOINTS_OPT"> F  </i>
  </separator>
 </parameters>
 <atominfo>
  <atoms>       6 </atoms>
  <types>       2 </types>
  <array name="atoms" >
   <dimension dim="1">ion</dimension>
   <field type="string">element</field>
   <field type="int">atomtype</field>
   <set>
    <rc><c>Nd</c><c>   1</c></rc>
    <rc><c>Nd</c><c>   1</c></rc>
    <rc><c>O </c><c>   2</c></rc>
    <rc><c>O </c><c>   2</c></rc>
    <rc><c>O </c><c>   2</c></rc>
    <rc><c>O </c><c>   2</c></rc>
   </set>
  </array>
  <array name="atomtypes" >
   <dimension dim="1">type</dimension>
   <field type="int">atomspertype</field>
   <field type="string">element</field>
   <field>mass</field>
   <field>valence</field>
   <field type="string">pseudopotential</field>
   <set>
    <rc><c>   2</c><c>Nd</c><c>    144.24000000</c><c>     11.00000000</c><c>  PAW_PBE Nd_3 06Sep2000                </c></rc>
    <rc><c>   4</c><c>O </c><c>     16.00000000</c><c>      6.00000000</c><c>  PAW_PBE O 08Apr2002                   </c></rc>
   </set>
  </array>
 </atominfo>
 <structure name="initialpos" >
  <crystal>
   <varray name="basis" >
    <v>       3.35535482      -2.01641472       0.00000000 </v>
    <v>       3.35535482       2.01641472       0.00000000 </v>
    <v>      -0.89113475       0.00000000       6.44771029 </v>
   </varray>
   <i name="volume">     87.24766669 </i>
   <varray name="rec_basis" >
    <v>       0.14901554      -0.24796486       0.02059536 </v>
    <v>       0.14901554       0.24796486       0.02059536 </v>
    <v>       0.00000000       0.00000000       0.15509382 </v>
   </varray>
  </crystal>
  <varray name="positions" >
   <v>       0.80151115       0.80151115       0.76878844 </v>
   <v>       0.19848885       0.19848885       0.23121156 </v>
   <v>       0.84765522       0.84765522       0.14166753 </v>
   <v>       0.15234478       0.15234478       0.85833247 </v>
   <v>       0.57801657       0.57801657       0.42792770 </v>
   <v>       0.42198343       0.42198343       0.57207230 </v>
  </varray>
 </structure>
 <calculation>
  <scstep>
   <time name="total">    0.19    0.38</time>
   <energy>
    <i name="alphaZ">    305.22198693 </i>
    <i name="ewald">  -2998.72999636 </i>
    <i name="hartreedc">   -698.01316672 </i>
    <i name="XCdc">    165.35407883 </i>
    <i name="pawpsdc">   2826.97677587 </i>
    <i name="pawaedc">  -7053.10965335 </i>
    <i name="eentropy">      0.00000000 </i>
    <i name="bandstr">   -138.16859633 </i>
    <i name="atom">   3591.70966704 </i>
    <i name="e_fr_energy">  -3998.75890409 </i>
    <i name="e_wo_entrp">  -3998.75890409 </i>
    <i name="e_0_energy">  -3998.75890409 </i>
   </energy>
  </scstep>
  <scstep>
   <time name="total">    0.11    0.15</time>
   <energy>
    <i name="e_fr_energy">  -4378.33335218 </i>
    <i name="e_wo_entrp">  -4378.33335218 </i>
    <i name="e_0_energy">  -4378.33335218 </i>
   </energy>
  </scstep>
  <scstep>
   <time name="total">    0.10    0.13</time>
   <energy>
    <i name="e_fr_energy">  -4409.11962390 </i>
    <i name="e_wo_entrp">  -4409.11962390 </i>
    <i name="e_0_energy">  -4409.11962390 </i>
   </energy>
  </scstep>
  <scstep>
   <time name="total">    0.12    0.13</time>
   <energy>
    <i name="e_fr_energy">  -4412.65905332 </i>
    <i name="e_wo_entrp">  -4412.65905332 </i>
    <i name="e_0_energy">  -4412.65905332 </i>
   </energy>
  </scstep>
  <scstep>
   <time name="total">    2.73    2.77</time>
   <energy>
    <i name="e_fr_energy">    -68.40707090 </i>
    <i name="e_wo_entrp">    -68.40707090 </i>
    <i name="e_0_energy">    -68.40707090 </i>
   </energy>
  </scstep>
  <scstep>
   <time name="total">    2.39    2.45</time>
   <energy>
    <i name="e_fr_energy">    -47.57383516 </i>
    <i name="e_wo_entrp">    -47.57383516 </i>
    <i name="e_0_energy">    -47.57383516 </i>
   </energy>
  </scstep>
  <scstep>
   <time name="total">    2.31    2.32</time>
   <energy>
    <i name="e_fr_energy">    -58.11983338 </i>
    <i name="e_wo_entrp">    -58.11983338 </i>
    <i name="e_0_energy">    -58.11983338 </i>
   </energy>
  </scstep>
  <scstep>
   <time name="total">    2.31    2.32</time>
   <energy>
    <i name="e_fr_energy">    -58.04353728 </i>
    <i name="e_wo_entrp">    -58.04353728 </i>
    <i name="e_0_energy">    -58.04353728 </i>
   </energy>
  </scstep>
  <scstep>
   <time name="total">    2.32    2.34</time>
   <energy>
    <i name="e_fr_energy">    -60.33926912 </i>
    <i name="e_wo_entrp">    -60.33926912 </i>
    <i name="e_0_energy">    -60.33926912 </i>
   </energy>
  </scstep>
  <scstep>
   <time name="total">    2.30    2.32</time>
   <energy>
    <i name="e_fr_energy">    -60.42949437 </i>
    <i name="e_wo_entrp">    -60.42949437 </i>
    <i name="e_0_energy">    -60.42949437 </i>
   </energy>
  </scstep>
  <scstep>
   <time name="total">    2.32    2.33</time>
   <energy>
    <i name="e_fr_energy">    -60.71217287 </i>
    <i name="e_wo_entrp">    -60.71217287 </i>
    <i name="e_0_energy">    -60.71217287 </i>
   </energy>
  </scstep>
  <scstep>
   <time name="total">    2.31    2.32</time>
   <energy>
    <i name="e_fr_energy">    -60.74052230 </i>
    <i name="e_wo_entrp">    -60.74052230 </i>
    <i name="e_0_energy">    -60.74052230 </i>
   </energy>
  </scstep>
  <scstep>
   <time name="total">    2.32    2.33</time>
   <energy>
    <i name="e_fr_energy">    -60.77238297 </i>
    <i name="e_wo_entrp">    -60.77238297 </i>
    <i name="e_0_energy">    -60.77238297 </i>
   </energy>
  </scstep>
  <scstep>
   <time name="total">    2.31    2.33</time>
   <energy>
    <i name="e_fr_energy">    -60.78208173 </i>
    <i name="e_wo_entrp">    -60.78208173 </i>
    <i name="e_0_energy">    -60.78208173 </i>
   </energy>
  </scstep>
  <scstep>
   <time name="total">    2.32    2.34</time>
   <energy>
    <i name="e_fr_energy">    -60.78620662 </i>
    <i name="e_wo_entrp">    -60.78620662 </i>
    <i name="e_0_energy">    -60.78620662 </i>
   </energy>
  </scstep>
  <scstep>
   <time name="total">    2.31    2.32</time>
   <energy>
    <i name="e_fr_energy">    -60.78968124 </i>
    <i name="e_wo_entrp">    -60.78968124 </i>
    <i name="e_0_energy">    -60.78968124 </i>
   </energy>
  </scstep>
  <scstep>
   <time name="total">    2.32    2.33</time>
   <energy>
    <i name="e_fr_energy">    -60.79096670 </i>
    <i name="e_wo_entrp">    -60.79096670 </i>
    <i name="e_0_energy">    -60.79096670 </i>
   </energy>
  </scstep>
  <scstep>
   <time name="total">    2.31    2.33</time>
   <energy>
    <i name="e_fr_energy">    -60.79213998 </i>
    <i name="e_wo_entrp">    -60.79213998 </i>
    <i name="e_0_energy">    -60.79213998 </i>
   </energy>
  </scstep>
  <scstep>
   <time name="total">    2.32    2.33</time>
   <energy>
    <i name="e_fr_energy">    -60.79286082 </i>
    <i name="e_wo_entrp">    -60.79286082 </i>
    <i name="e_0_energy">    -60.79286082 </i>
   </energy>
  </scstep>
  <scstep>
   <time name="total">    2.31    2.33</time>
   <energy>
    <i name="e_fr_energy">    -60.79340112 </i>
    <i name="e_wo_entrp">    -60.79340112 </i>
    <i name="e_0_energy">    -60.79340112 </i>
   </energy>
  </scstep>
  <scstep>
   <time name="total">    2.31    2.32</time>
   <energy>
    <i name="e_fr_energy">    -60.79381164 </i>
    <i name="e_wo_entrp">    -60.79381164 </i>
    <i name="e_0_energy">    -60.79381164 </i>
   </energy>
  </scstep>
  <scstep>
   <time name="total">    2.30    2.33</time>
   <energy>
    <i name="e_fr_energy">    -60.79412613 </i>
    <i name="e_wo_entrp">    -60.79412613 </i>
    <i name="e_0_energy">    -60.79412613 </i>
   </energy>
  </scstep>
  <scstep>
   <time name="total">    2.31    2.32</time>
   <energy>
    <i name="e_fr_energy">    -60.79438012 </i>
    <i name="e_wo_entrp">    -60.79438012 </i>
    <i name="e_0_energy">    -60.79438012 </i>
   </energy>
  </scstep>
  <scstep>
   <time name="total">    2.31    2.32</time>
   <energy>
    <i name="e_fr_energy">    -60.79458602 </i>
    <i name="e_wo_entrp">    -60.79458602 </i>
    <i name="e_0_energy">    -60.79458602 </i>
   </energy>
  </scstep>
  <scstep>
   <time name="total">    2.31    2.33</time>
   <energy>
    <i name="e_fr_energy">    -60.79475429 </i>
    <i name="e_wo_entrp">    -60.79475429 </i>
    <i name="e_0_energy">    -60.79475429 </i>
   </energy>
  </scstep>
  <scstep>
   <time name="total">    2.31    2.33</time>
   <energy>
    <i name="e_fr_energy">    -60.79489116 </i>
    <i name="e_wo_entrp">    -60.79489116 </i>
    <i name="e_0_energy">    -60.79489116 </i>
   </energy>
  </scstep>
  <scstep>
   <time name="total">    2.31    2.33</time>
   <energy>
    <i name="e_fr_energy">    -60.79499995 </i>
    <i name="e_wo_entrp">    -60.79499995 </i>
    <i name="e_0_energy">    -60.79499995 </i>
   </energy>
  </scstep>
  <scstep>
   <time name="total">    2.31    2.33</time>
   <energy>
    <i name="e_fr_energy">    -60.79508298 </i>
    <i name="e_wo_entrp">    -60.79508298 </i>
    <i name="e_0_energy">    -60.79508298 </i>
   </energy>
  </scstep>
  <scstep>
   <time name="total">    2.31    2.33</time>
   <energy>
    <i name="e_fr_energy">    -60.79514429 </i>
    <i name="e_wo_entrp">    -60.79514429 </i>
    <i name="e_0_energy">    -60.79514429 </i>
   </energy>
  </scstep>
  <scstep>
   <time name="total">    2.32    2.34</time>
   <energy>
    <i name="e_fr_energy">    -60.79519506 </i>
    <i name="e_wo_entrp">    -60.79519506 </i>
    <i name="e_0_energy">    -60.79519506 </i>
   </energy>
  </scstep>
  <scstep>
   <time name="total">    2.32    2.33</time>
   <energy>
    <i name="e_fr_energy">    -60.79525511 </i>
    <i name="e_wo_entrp">    -60.79525511 </i>
    <i name="e_0_energy">    -60.79525511 </i>
   </energy>
  </scstep>
  <scstep>
   <time name="total">    2.32    2.33</time>
   <energy>
    <i name="e_fr_energy">    -60.79534419 </i>
    <i name="e_wo_entrp">    -60.79534419 </i>
    <i name="e_0_energy">    -60.79534419 </i>
   </energy>
  </scstep>
  <scstep>
   <time name="total">    2.32    2.33</time>
   <energy>
    <i name="e_fr_energy">    -60.79545211 </i>
    <i name="e_wo_entrp">    -60.79545211 </i>
    <i name="e_0_energy">    -60.79545211 </i>
   </energy>
  </scstep>
  <scstep>
   <time name="total">    2.31    2.33</time>
   <energy>
    <i name="e_fr_energy">    -60.79554508 </i>
    <i name="e_wo_entrp">    -60.79554508 </i>
    <i name="e_0_energy">    -60.79554508 </i>
   </energy>
  </scstep>
  <scstep>
   <time name="total">    2.31    2.33</time>
   <energy>
    <i name="e_fr_energy">    -60.79561511 </i>
    <i name="e_wo_entrp">    -60.79561511 </i>
    <i name="e_0_energy">    -60.79561511 </i>
   </energy>
  </scstep>
  <scstep>
   <time name="total">    2.32    2.33</time>
   <energy>
    <i name="e_fr_energy">    -60.79567965 </i>
    <i name="e_wo_entrp">    -60.79567965 </i>
    <i name="e_0_energy">    -60.79567965 </i>
   </energy>
  </scstep>
  <scstep>
   <time name="total">    2.31    2.33</time>
   <energy>
    <i name="e_fr_energy">    -60.79574356 </i>
    <i name="e_wo_entrp">    -60.79574356 </i>
    <i name="e_0_energy">    -60.79574356 </i>
   </energy>
  </scstep>
  <scstep>
   <time name="total">    2.32    2.33</time>
   <energy>
    <i name="e_fr_energy">    -60.79580739 </i>
    <i name="e_wo_entrp">    -60.79580739 </i>
    <i name="e_0_energy">    -60.79580739 </i>
   </energy>
  </scstep>
  <scstep>
   <time name="total">    2.31    2.33</time>
   <energy>
    <i name="e_fr_energy">    -60.79587053 </i>
    <i name="e_wo_entrp">    -60.79587053 </i>
    <i name="e_0_energy">    -60.79587053 </i>
   </energy>
  </scstep>
  <scstep>
   <time name="total">    2.32    2.33</time>
   <energy>
    <i name="e_fr_energy">    -60.79593280 </i>
    <i name="e_wo_entrp">    -60.79593280 </i>
    <i name="e_0_energy">    -60.79593280 </i>
   </energy>
  </scstep>
  <scstep>
   <time name="total">    2.31    2.33</time>
   <energy>
    <i name="e_fr_energy">    -60.79599347 </i>
    <i name="e_wo_entrp">    -60.79599347 </i>
    <i name="e_0_energy">    -60.79599347 </i>
   </energy>
  </scstep>
  <scstep>
   <time name="total">    2.32    2.33</time>
   <energy>
    <i name="e_fr_energy">    -60.79605264 </i>
    <i name="e_wo_entrp">    -60.79605264 </i>
    <i name="e_0_energy">    -60.79605264 </i>
   </energy>
  </scstep>
  <scstep>
   <time name="total">    2.32    2.33</time>
   <energy>
    <i name="e_fr_energy">    -60.79610871 </i>
    <i name="e_wo_entrp">    -60.79610871 </i>
    <i name="e_0_energy">    -60.79610871 </i>
   </energy>
  </scstep>
  <scstep>
   <time name="total">    2.31    2.33</time>
   <energy>
    <i name="e_fr_energy">    -60.79616269 </i>
    <i name="e_wo_entrp">    -60.79616269 </i>
    <i name="e_0_energy">    -60.79616269 </i>
   </energy>
  </scstep>
  <scstep>
   <time name="total">    2.32    2.33</time>
   <energy>
    <i name="e_fr_energy">    -60.79621256 </i>
    <i name="e_wo_entrp">    -60.79621256 </i>
    <i name="e_0_energy">    -60.79621256 </i>
   </energy>
  </scstep>
  <scstep>
   <time name="total">    2.55    2.57</time>
   <energy>
    <i name="e_fr_energy">    -60.79625880 </i>
    <i name="e_wo_entrp">    -60.79625880 </i>
    <i name="e_0_energy">    -60.79625880 </i>
   </energy>
  </scstep>
  <scstep>
   <time name="total">    2.31    2.32</time>
   <energy>
    <i name="e_fr_energy">    -60.79629814 </i>
    <i name="e_wo_entrp">    -60.79629814 </i>
    <i name="e_0_energy">    -60.79629814 </i>
   </energy>
  </scstep>
  <scstep>
   <time name="total">    2.32    2.33</time>
   <energy>
    <i name="e_fr_energy">    -60.79631920 </i>
    <i name="e_wo_entrp">    -60.79631920 </i>
    <i name="e_0_energy">    -60.79631920 </i>
   </energy>
  </scstep>
  <scstep>
   <time name="total">    2.31    2.33</time>
   <energy>
    <i name="e_fr_energy">    -60.79627044 </i>
    <i name="e_wo_entrp">    -60.79627044 </i>
    <i name="e_0_energy">    -60.79627044 </i>
   </energy>
  </scstep>
  <scstep>
   <time name="total">    2.32    2.33</time>
   <energy>
    <i name="e_fr_energy">    -60.79597978 </i>
    <i name="e_wo_entrp">    -60.79597978 </i>
    <i name="e_0_energy">    -60.79597978 </i>
   </energy>
  </scstep>
  <scstep>
   <time name="total">    2.31    2.33</time>
   <energy>
    <i name="e_fr_energy">    -60.79527628 </i>
    <i name="e_wo_entrp">    -60.79527628 </i>
    <i name="e_0_energy">    -60.79527628 </i>
   </energy>
  </scstep>
  <scstep>
   <time name="total">    2.32    2.33</time>
   <energy>
    <i name="e_fr_energy">    -60.79427243 </i>
    <i name="e_wo_entrp">    -60.79427243 </i>
    <i name="e_0_energy">    -60.79427243 </i>
   </energy>
  </scstep>
  <scstep>
   <time name="total">    2.32    2.33</time>
   <energy>
    <i name="e_fr_energy">    -60.79415433 </i>
    <i name="e_wo_entrp">    -60.79415433 </i>
    <i name="e_0_energy">    -60.79415433 </i>
   </energy>
  </scstep>
  <scstep>
   <time name="total">    2.31    2.33</time>
   <energy>
    <i name="e_fr_energy">    -60.79511785 </i>
    <i name="e_wo_entrp">    -60.79511785 </i>
    <i name="e_0_energy">    -60.79511785 </i>
   </energy>
  </scstep>
  <scstep>
   <time name="total">    2.31    2.33</time>
   <energy>
    <i name="e_fr_energy">    -60.79619054 </i>
    <i name="e_wo_entrp">    -60.79619054 </i>
    <i name="e_0_energy">    -60.79619054 </i>
   </energy>
  </scstep>
  <scstep>
   <time name="total">    2.31    2.33</time>
   <energy>
    <i name="e_fr_energy">    -60.79629522 </i>
    <i name="e_wo_entrp">    -60.79629522 </i>
    <i name="e_0_energy">    -60.79629522 </i>
   </energy>
  </scstep>
  <scstep>
   <time name="total">    2.32    2.33</time>
   <energy>
    <i name="e_fr_energy">    -60.79618794 </i>
    <i name="e_wo_entrp">    -60.79618794 </i>
    <i name="e_0_energy">    -60.79618794 </i>
   </energy>
  </scstep>
  <scstep>
   <time name="total">    2.32    2.34</time>
   <energy>
    <i name="e_fr_energy">    -60.79624257 </i>
    <i name="e_wo_entrp">    -60.79624257 </i>
    <i name="e_0_energy">    -60.79624257 </i>
   </energy>
  </scstep>
  <scstep>
   <time name="total">    2.33    2.35</time>
   <energy>
    <i name="e_fr_energy">    -60.79618338 </i>
    <i name="e_wo_entrp">    -60.79618338 </i>
    <i name="e_0_energy">    -60.79618338 </i>
   </energy>
  </scstep>
  <scstep>
   <time name="total">    2.31    2.33</time>
   <energy>
    <i name="e_fr_energy">    -60.79618277 </i>
    <i name="e_wo_entrp">    -60.79618277 </i>
    <i name="e_0_energy">    -60.79618277 </i>
   </energy>
  </scstep>
  <scstep>
   <time name="total">    2.31    2.33</time>
   <energy>
    <i name="e_fr_energy">    -60.79618010 </i>
    <i name="e_wo_entrp">    -60.79618010 </i>
    <i name="e_0_energy">    -60.79618010 </i>
   </energy>
  </scstep>
  <scstep>
   <time name="total">    2.32    2.34</time>
   <energy>
    <i name="e_fr_energy">    -60.79627872 </i>
    <i name="e_wo_entrp">    -60.79627872 </i>
    <i name="e_0_energy">    -60.79627872 </i>
   </energy>
  </scstep>
  <scstep>
   <time name="total">    2.32    2.33</time>
   <energy>
    <i name="e_fr_energy">    -60.79632897 </i>
    <i name="e_wo_entrp">    -60.79632897 </i>
    <i name="e_0_energy">    -60.79632897 </i>
   </energy>
  </scstep>
  <scstep>
   <time name="total">    2.32    2.34</time>
   <energy>
    <i name="e_fr_energy">    -60.79642399 </i>
    <i name="e_wo_entrp">    -60.79642399 </i>
    <i name="e_0_energy">    -60.79642399 </i>
   </energy>
  </scstep>
  <scstep>
   <time name="total">    2.31    2.33</time>
   <energy>
    <i name="e_fr_energy">    -60.79653813 </i>
    <i name="e_wo_entrp">    -60.79653813 </i>
    <i name="e_0_energy">    -60.79653813 </i>
   </energy>
  </scstep>
  <scstep>
   <time name="total">    2.31    2.33</time>
   <energy>
    <i name="e_fr_energy">    -60.79664650 </i>
    <i name="e_wo_entrp">    -60.79664650 </i>
    <i name="e_0_energy">    -60.79664650 </i>
   </energy>
  </scstep>
  <scstep>
   <time name="total">    2.31    2.33</time>
   <energy>
    <i name="e_fr_energy">    -60.79669565 </i>
    <i name="e_wo_entrp">    -60.79669565 </i>
    <i name="e_0_energy">    -60.79669565 </i>
   </energy>
  </scstep>
  <scstep>
   <time name="total">    2.31    2.33</time>
   <energy>
    <i name="e_fr_energy">    -60.79672072 </i>
    <i name="e_wo_entrp">    -60.79672072 </i>
    <i name="e_0_energy">    -60.79672072 </i>
   </energy>
  </scstep>
  <scstep>
   <time name="total">    2.31    2.32</time>
   <energy>
    <i name="e_fr_energy">    -60.79672309 </i>
    <i name="e_wo_entrp">    -60.79672309 </i>
    <i name="e_0_energy">    -60.79672309 </i>
   </energy>
  </scstep>
  <scstep>
   <time name="total">    2.32    2.34</time>
   <energy>
    <i name="e_fr_energy">    -60.79674081 </i>
    <i name="e_wo_entrp">    -60.79674081 </i>
    <i name="e_0_energy">    -60.79674081 </i>
   </energy>
  </scstep>
  <scstep>
   <time name="total">    2.31    2.33</time>
   <energy>
    <i name="e_fr_energy">    -60.79674970 </i>
    <i name="e_wo_entrp">    -60.79674970 </i>
    <i name="e_0_energy">    -60.79674970 </i>
   </energy>
  </scstep>
  <scstep>
   <time name="total">    2.31    2.33</time>
   <energy>
    <i name="e_fr_energy">    -60.79676980 </i>
    <i name="e_wo_entrp">    -60.79676980 </i>
    <i name="e_0_energy">    -60.79676980 </i>
   </energy>
  </scstep>
  <scstep>
   <time name="total">    2.31    2.33</time>
   <energy>
    <i name="e_fr_energy">    -60.79677444 </i>
    <i name="e_wo_entrp">    -60.79677444 </i>
    <i name="e_0_energy">    -60.79677444 </i>
   </energy>
  </scstep>
  <scstep>
   <time name="total">    2.32    2.33</time>
   <energy>
    <i name="e_fr_energy">    -60.79679259 </i>
    <i name="e_wo_entrp">    -60.79679259 </i>
    <i name="e_0_energy">    -60.79679259 </i>
   </energy>
  </scstep>
  <scstep>
   <time name="total">    2.31    2.33</time>
   <energy>
    <i name="e_fr_energy">    -60.79680207 </i>
    <i name="e_wo_entrp">    -60.79680207 </i>
    <i name="e_0_energy">    -60.79680207 </i>
   </energy>
  </scstep>
  <scstep>
   <time name="total">    2.46    2.71</time>
   <energy>
    <i name="e_fr_energy">    -60.79681993 </i>
    <i name="e_wo_entrp">    -60.79681993 </i>
    <i name="e_0_energy">    -60.79681993 </i>
   </energy>
  </scstep>
  <scstep>
   <time name="total">    2.34    2.35</time>
   <energy>
    <i name="e_fr_energy">    -60.79683117 </i>
    <i name="e_wo_entrp">    -60.79683117 </i>
    <i name="e_0_energy">    -60.79683117 </i>
   </energy>
  </scstep>
  <scstep>
   <time name="total">    2.32    2.33</time>
   <energy>
    <i name="e_fr_energy">    -60.79684315 </i>
    <i name="e_wo_entrp">    -60.79684315 </i>
    <i name="e_0_energy">    -60.79684315 </i>
   </energy>
  </scstep>
  <scstep>
   <time name="total">    2.40    2.43</time>
   <energy>
    <i name="e_fr_energy">    -60.79685007 </i>
    <i name="e_wo_entrp">    -60.79685007 </i>
    <i name="e_0_energy">    -60.79685007 </i>
   </energy>
  </scstep>
  <scstep>
   <time name="total">    2.31    2.33</time>
   <energy>
    <i name="e_fr_energy">    -60.79685671 </i>
    <i name="e_wo_entrp">    -60.79685671 </i>
    <i name="e_0_energy">    -60.79685671 </i>
   </energy>
  </scstep>
  <scstep>
   <time name="total">    2.31    2.33</time>
   <energy>
    <i name="e_fr_energy">    -60.79686249 </i>
    <i name="e_wo_entrp">    -60.79686249 </i>
    <i name="e_0_energy">    -60.79686249 </i>
   </energy>
  </scstep>
  <scstep>
   <time name="total">    2.31    2.33</time>
   <energy>
    <i name="e_fr_energy">    -60.79686800 </i>
    <i name="e_wo_entrp">    -60.79686800 </i>
    <i name="e_0_energy">    -60.79686800 </i>
   </energy>
  </scstep>
  <scstep>
   <time name="total">    2.31    2.33</time>
   <energy>
    <i name="e_fr_energy">    -60.79687313 </i>
    <i name="e_wo_entrp">    -60.79687313 </i>
    <i name="e_0_energy">    -60.79687313 </i>
   </energy>
  </scstep>
  <scstep>
   <time name="total">    2.31    2.33</time>
   <energy>
    <i name="e_fr_energy">    -60.79687811 </i>
    <i name="e_wo_entrp">    -60.79687811 </i>
    <i name="e_0_energy">    -60.79687811 </i>
   </energy>
  </scstep>
  <scstep>
   <time name="total">    2.53    2.55</time>
   <energy>
    <i name="e_fr_energy">    -60.79688301 </i>
    <i name="e_wo_entrp">    -60.79688301 </i>
    <i name="e_0_energy">    -60.79688301 </i>
   </energy>
  </scstep>
  <scstep>
   <time name="total">    2.53    2.55</time>
   <energy>
    <i name="e_fr_energy">    -60.79688776 </i>
    <i name="e_wo_entrp">    -60.79688776 </i>
    <i name="e_0_energy">    -60.79688776 </i>
   </energy>
  </scstep>
  <scstep>
   <time name="total">    2.58    2.60</time>
   <energy>
    <i name="e_fr_energy">    -60.79689215 </i>
    <i name="e_wo_entrp">    -60.79689215 </i>
    <i name="e_0_energy">    -60.79689215 </i>
   </energy>
  </scstep>
  <scstep>
   <time name="total">    2.55    2.57</time>
   <energy>
    <i name="e_fr_energy">    -60.79689557 </i>
    <i name="e_wo_entrp">    -60.79689557 </i>
    <i name="e_0_energy">    -60.79689557 </i>
   </energy>
  </scstep>
  <scstep>
   <time name="total">    2.30    2.32</time>
   <energy>
    <i name="e_fr_energy">    -60.79689510 </i>
    <i name="e_wo_entrp">    -60.79689510 </i>
    <i name="e_0_energy">    -60.79689510 </i>
   </energy>
  </scstep>
  <scstep>
   <time name="total">    2.31    2.33</time>
   <energy>
    <i name="e_fr_energy">    -60.79688050 </i>
    <i name="e_wo_entrp">    -60.79688050 </i>
    <i name="e_0_energy">    -60.79688050 </i>
   </energy>
  </scstep>
  <scstep>
   <time name="total">    2.31    2.33</time>
   <energy>
    <i name="e_fr_energy">    -60.79683234 </i>
    <i name="e_wo_entrp">    -60.79683234 </i>
    <i name="e_0_energy">    -60.79683234 </i>
   </energy>
  </scstep>
  <scstep>
   <time name="total">    2.31    2.33</time>
   <energy>
    <i name="e_fr_energy">    -60.79672586 </i>
    <i name="e_wo_entrp">    -60.79672586 </i>
    <i name="e_0_energy">    -60.79672586 </i>
   </energy>
  </scstep>
  <scstep>
   <time name="total">    2.32    2.33</time>
   <energy>
    <i name="e_fr_energy">    -60.79656935 </i>
    <i name="e_wo_entrp">    -60.79656935 </i>
    <i name="e_0_energy">    -60.79656935 </i>
   </energy>
  </scstep>
  <scstep>
   <time name="total">    2.31    2.33</time>
   <energy>
    <i name="e_fr_energy">    -60.79640220 </i>
    <i name="e_wo_entrp">    -60.79640220 </i>
    <i name="e_0_energy">    -60.79640220 </i>
   </energy>
  </scstep>
  <scstep>
   <time name="total">    2.31    2.33</time>
   <energy>
    <i name="e_fr_energy">    -60.79621653 </i>
    <i name="e_wo_entrp">    -60.79621653 </i>
    <i name="e_0_energy">    -60.79621653 </i>
   </energy>
  </scstep>
  <scstep>
   <time name="total">    2.32    2.34</time>
   <energy>
    <i name="e_fr_energy">    -60.79591670 </i>
    <i name="e_wo_entrp">    -60.79591670 </i>
    <i name="e_0_energy">    -60.79591670 </i>
   </energy>
  </scstep>
  <scstep>
   <time name="total">    2.54    2.55</time>
   <energy>
    <i name="e_fr_energy">    -60.79562613 </i>
    <i name="e_wo_entrp">    -60.79562613 </i>
    <i name="e_0_energy">    -60.79562613 </i>
   </energy>
  </scstep>
  <scstep>
   <time name="total">    2.32    2.33</time>
   <energy>
    <i name="e_fr_energy">    -60.79580283 </i>
    <i name="e_wo_entrp">    -60.79580283 </i>
    <i name="e_0_energy">    -60.79580283 </i>
   </energy>
  </scstep>
  <scstep>
   <time name="total">    2.32    2.33</time>
   <energy>
    <i name="e_fr_energy">    -60.79639763 </i>
    <i name="e_wo_entrp">    -60.79639763 </i>
    <i name="e_0_energy">    -60.79639763 </i>
   </energy>
  </scstep>
  <scstep>
   <time name="total">    4.43    4.46</time>
   <energy>
    <i name="alphaZ">    305.22198693 </i>
    <i name="ewald">  -2998.72999636 </i>
    <i name="hartreedc">   -750.09120586 </i>
    <i name="XCdc">    111.51906782 </i>
    <i name="pawpsdc">   4068.45967948 </i>
    <i name="pawaedc">  -4024.35183451 </i>
    <i name="eentropy">      0.00000000 </i>
    <i name="bandstr">   -546.62242146 </i>
    <i name="atom">   3591.70966704 </i>
    <i name="e_fr_energy">    -60.79685180 </i>
    <i name="e_wo_entrp">    -60.79685180 </i>
    <i name="e_0_energy">    -60.79685180 </i>
   </energy>
  </scstep>
  <structure>
   <crystal>
    <varray name="basis" >
     <v>       3.35535482      -2.01641472       0.00000000 </v>
     <v>       3.35535482       2.01641472       0.00000000 </v>
     <v>      -0.89113475       0.00000000       6.44771029 </v>
    </varray>
    <i name="volume">     87.24766669 </i>
    <varray name="rec_basis" >
     <v>       0.14901554      -0.24796486       0.02059536 </v>
     <v>       0.14901554       0.24796486       0.02059536 </v>
     <v>       0.00000000       0.00000000       0.15509382 </v>
    </varray>
   </crystal>
   <varray name="positions" >
    <v>       0.80151115       0.80151115       0.76878844 </v>
    <v>       0.19848885       0.19848885       0.23121156 </v>
    <v>       0.84765522       0.84765522       0.14166753 </v>
    <v>       0.15234478       0.15234478       0.85833247 </v>
    <v>       0.57801657       0.57801657       0.42792770 </v>
    <v>       0.42198343       0.42198343       0.57207230 </v>
   </varray>
  </structure>
  <varray name="forces" >
   <v>      -0.01171216      -0.00000000       0.35962190 </v>
   <v>       0.01171216      -0.00000000      -0.35962190 </v>
   <v>       0.06700062      -0.00000000      -0.07444899 </v>
   <v>      -0.06700062      -0.00000000       0.07444899 </v>
   <v>      -0.73505295       0.00000000       0.68542651 </v>
   <v>       0.73505295      -0.00000000      -0.68542651 </v>
  </varray>
  <varray name="stress" >
   <v>    -112.85259915      -0.00000000       0.70626201 </v>
   <v>      -0.00000000    -105.77384272       0.00000000 </v>
   <v>       0.70648084       0.00000000    -103.64320711 </v>
  </varray>
  <energy>
   <i name="e_fr_energy">    -60.79685180 </i>
   <i name="e_wo_entrp">    -60.79685180 </i>
   <i name="e_0_energy">    -60.79685180 </i>
  </energy>
  <time name="totalsc">  236.21  238.45</time>
 </calculation>
 <calculation>
  <scstep>
   <time name="total">    2.42    2.43</time>
   <energy>
    <i name="alphaZ">    352.68514647 </i>
    <i name="ewald">  -3130.92799262 </i>
    <i name="hartreedc">   -788.89794698 </i>
    <i name="XCdc">    117.07823945 </i>
    <i name="pawpsdc">   4318.85631830 </i>
    <i name="pawaedc">  -4261.75053716 </i>
    <i name="eentropy">      0.00000000 </i>
    <i name="bandstr">   -436.73562146 </i>
    <i name="atom">   3591.70966704 </i>
    <i name="e_fr_energy">    -46.84869121 </i>
    <i name="e_wo_entrp">    -46.84869121 </i>
    <i name="e_0_energy">    -46.84869121 </i>
   </energy>
  </scstep>
  <scstep>
   <time name="total">    2.45    2.46</time>
   <energy>
    <i name="e_fr_energy">    -57.67147497 </i>
    <i name="e_wo_entrp">    -57.67147497 </i>
    <i name="e_0_energy">    -57.67147497 </i>
   </energy>
  </scstep>
  <scstep>
   <time name="total">    2.44    2.46</time>
   <energy>
    <i name="e_fr_energy">    -58.76762861 </i>
    <i name="e_wo_entrp">    -58.76762861 </i>
    <i name="e_0_energy">    -58.76762861 </i>
   </energy>
  </scstep>
  <scstep>
   <time name="total">    2.47    2.49</time>
   <energy>
    <i name="e_fr_energy">    -60.08023680 </i>
    <i name="e_wo_entrp">    -60.08023680 </i>
    <i name="e_0_energy">    -60.08023680 </i>
   </energy>
  </scstep>
  <scstep>
   <time name="total">    2.45    2.47</time>
   <energy>
    <i name="e_fr_energy">    -60.16307984 </i>
    <i name="e_wo_entrp">    -60.16307984 </i>
    <i name="e_0_energy">    -60.16307984 </i>
   </energy>
  </scstep>
  <scstep>
   <time name="total">    2.45    2.46</time>
   <energy>
    <i name="e_fr_energy">    -60.31983119 </i>
    <i name="e_wo_entrp">    -60.31983119 </i>
    <i name="e_0_energy">    -60.31983119 </i>
   </energy>
  </scstep>
  <scstep>
   <time name="total">    2.44    2.46</time>
   <energy>
    <i name="e_fr_energy">    -60.37052339 </i>
    <i name="e_wo_entrp">    -60.37052339 </i>
    <i name="e_0_energy">    -60.37052339 </i>
   </energy>
  </scstep>
  <scstep>
   <time name="total">    2.44    2.46</time>
   <energy>
    <i name="e_fr_energy">    -60.38714135 </i>
    <i name="e_wo_entrp">    -60.38714135 </i>
    <i name="e_0_energy">    -60.38714135 </i>
   </energy>
  </scstep>
  <scstep>
   <time name="total">    2.44    2.46</time>
   <energy>
    <i name="e_fr_energy">    -60.39750923 </i>
    <i name="e_wo_entrp">    -60.39750923 </i>
    <i name="e_0_energy">    -60.39750923 </i>
   </energy>
  </scstep>
  <scstep>
   <time name="total">    2.45    2.46</time>
   <energy>
    <i name="e_fr_energy">    -60.39961211 </i>
    <i name="e_wo_entrp">    -60.39961211 </i>
    <i name="e_0_energy">    -60.39961211 </i>
   </energy>
  </scstep>
  <scstep>
   <time name="total">    2.45    2.46</time>
   <energy>
    <i name="e_fr_energy">    -60.40079434 </i>
    <i name="e_wo_entrp">    -60.40079434 </i>
    <i name="e_0_energy">    -60.40079434 </i>
   </energy>
  </scstep>
  <scstep>
   <time name="total">    2.44    2.46</time>
   <energy>
    <i name="e_fr_energy">    -60.40133338 </i>
    <i name="e_wo_entrp">    -60.40133338 </i>
    <i name="e_0_energy">    -60.40133338 </i>
   </energy>
  </scstep>
  <scstep>
   <time name="total">    2.44    2.45</time>
   <energy>
    <i name="e_fr_energy">    -60.40155291 </i>
    <i name="e_wo_entrp">    -60.40155291 </i>
    <i name="e_0_energy">    -60.40155291 </i>
   </energy>
  </scstep>
  <scstep>
   <time name="total">    2.44    2.45</time>
   <energy>
    <i name="e_fr_energy">    -60.40166575 </i>
    <i name="e_wo_entrp">    -60.40166575 </i>
    <i name="e_0_energy">    -60.40166575 </i>
   </energy>
  </scstep>
  <scstep>
   <time name="total">    2.45    2.46</time>
   <energy>
    <i name="e_fr_energy">    -60.40172971 </i>
    <i name="e_wo_entrp">    -60.40172971 </i>
    <i name="e_0_energy">    -60.40172971 </i>
   </energy>
  </scstep>
  <scstep>
   <time name="total">    2.44    2.45</time>
   <energy>
    <i name="e_fr_energy">    -60.40176441 </i>
    <i name="e_wo_entrp">    -60.40176441 </i>
    <i name="e_0_energy">    -60.40176441 </i>
   </energy>
  </scstep>
  <scstep>
   <time name="total">    2.43    2.45</time>
   <energy>
    <i name="e_fr_energy">    -60.40178513 </i>
    <i name="e_wo_entrp">    -60.40178513 </i>
    <i name="e_0_energy">    -60.40178513 </i>
   </energy>
  </scstep>
  <scstep>
   <time name="total">    2.44    2.46</time>
   <energy>
    <i name="e_fr_energy">    -60.40179919 </i>
    <i name="e_wo_entrp">    -60.40179919 </i>
    <i name="e_0_energy">    -60.40179919 </i>
   </energy>
  </scstep>
  <scstep>
   <time name="total">    2.44    2.46</time>
   <energy>
    <i name="e_fr_energy">    -60.40180864 </i>
    <i name="e_wo_entrp">    -60.40180864 </i>
    <i name="e_0_energy">    -60.40180864 </i>
   </energy>
  </scstep>
  <scstep>
   <time name="total">    2.44    2.46</time>
   <energy>
    <i name="e_fr_energy">    -60.40181524 </i>
    <i name="e_wo_entrp">    -60.40181524 </i>
    <i name="e_0_energy">    -60.40181524 </i>
   </energy>
  </scstep>
  <scstep>
   <time name="total">    2.44    2.46</time>
   <energy>
    <i name="e_fr_energy">    -60.40181987 </i>
    <i name="e_wo_entrp">    -60.40181987 </i>
    <i name="e_0_energy">    -60.40181987 </i>
   </energy>
  </scstep>
  <scstep>
   <time name="total">    2.44    2.46</time>
   <energy>
    <i name="e_fr_energy">    -60.40182306 </i>
    <i name="e_wo_entrp">    -60.40182306 </i>
    <i name="e_0_energy">    -60.40182306 </i>
   </energy>
  </scstep>
  <scstep>
   <time name="total">    2.44    2.46</time>
   <energy>
    <i name="e_fr_energy">    -60.40182529 </i>
    <i name="e_wo_entrp">    -60.40182529 </i>
    <i name="e_0_energy">    -60.40182529 </i>
   </energy>
  </scstep>
  <scstep>
   <time name="total">    2.69    2.75</time>
   <energy>
    <i name="e_fr_energy">    -60.40182684 </i>
    <i name="e_wo_entrp">    -60.40182684 </i>
    <i name="e_0_energy">    -60.40182684 </i>
   </energy>
  </scstep>
  <scstep>
   <time name="total">    2.55    2.58</time>
   <energy>
    <i name="e_fr_energy">    -60.40182793 </i>
    <i name="e_wo_entrp">    -60.40182793 </i>
    <i name="e_0_energy">    -60.40182793 </i>
   </energy>
  </scstep>
  <scstep>
   <time name="total">    2.46    2.48</time>
   <energy>
    <i name="e_fr_energy">    -60.40182870 </i>
    <i name="e_wo_entrp">    -60.40182870 </i>
    <i name="e_0_energy">    -60.40182870 </i>
   </energy>
  </scstep>
  <scstep>
   <time name="total">    2.44    2.45</time>
   <energy>
    <i name="e_fr_energy">    -60.40182926 </i>
    <i name="e_wo_entrp">    -60.40182926 </i>
    <i name="e_0_energy">    -60.40182926 </i>
   </energy>
  </scstep>
  <scstep>
   <time name="total">    2.50    2.52</time>
   <energy>
    <i name="e_fr_energy">    -60.40182967 </i>
    <i name="e_wo_entrp">    -60.40182967 </i>
    <i name="e_0_energy">    -60.40182967 </i>
   </energy>
  </scstep>
  <scstep>
   <time name="total">    2.45    2.46</time>
   <energy>
    <i name="e_fr_energy">    -60.40182998 </i>
    <i name="e_wo_entrp">    -60.40182998 </i>
    <i name="e_0_energy">    -60.40182998 </i>
   </energy>
  </scstep>
  <scstep>
   <time name="total">    2.43    2.45</time>
   <energy>
    <i name="e_fr_energy">    -60.40183022 </i>
    <i name="e_wo_entrp">    -60.40183022 </i>
    <i name="e_0_energy">    -60.40183022 </i>
   </energy>
  </scstep>
  <scstep>
   <time name="total">    2.44    2.46</time>
   <energy>
    <i name="e_fr_energy">    -60.40183041 </i>
    <i name="e_wo_entrp">    -60.40183041 </i>
    <i name="e_0_energy">    -60.40183041 </i>
   </energy>
  </scstep>
  <scstep>
   <time name="total">    2.45    2.46</time>
   <energy>
    <i name="e_fr_energy">    -60.40183056 </i>
    <i name="e_wo_entrp">    -60.40183056 </i>
    <i name="e_0_energy">    -60.40183056 </i>
   </energy>
  </scstep>
  <scstep>
   <time name="total">    2.45    2.47</time>
   <energy>
    <i name="e_fr_energy">    -60.40183068 </i>
    <i name="e_wo_entrp">    -60.40183068 </i>
    <i name="e_0_energy">    -60.40183068 </i>
   </energy>
  </scstep>
  <scstep>
   <time name="total">    2.44    2.45</time>
   <energy>
    <i name="e_fr_energy">    -60.40183079 </i>
    <i name="e_wo_entrp">    -60.40183079 </i>
    <i name="e_0_energy">    -60.40183079 </i>
   </energy>
  </scstep>
  <scstep>
   <time name="total">    4.68    4.71</time>
   <energy>
    <i name="alphaZ">    352.68514647 </i>
    <i name="ewald">  -3130.92799262 </i>
    <i name="hartreedc">   -709.50057951 </i>
    <i name="XCdc">    113.54915558 </i>
    <i name="pawpsdc">   4749.94028280 </i>
    <i name="pawaedc">  -4704.77027614 </i>
    <i name="eentropy">      0.00000000 </i>
    <i name="bandstr">   -508.24826720 </i>
    <i name="atom">   3591.70966704 </i>
    <i name="e_fr_energy">    -60.40183088 </i>
    <i name="e_wo_entrp">    -60.40183088 </i>
    <i name="e_0_energy">    -60.40183088 </i>
   </energy>
  </scstep>
  <structure>
   <crystal>
    <varray name="basis" >
     <v>       3.18955914      -1.92302881       0.00103759 </v>
     <v>       3.18955914       1.92302881       0.00103759 </v>
     <v>      -0.84510728       0.00000000       6.15483794 </v>
    </varray>
    <i name="volume">     75.50617442 </i>
    <varray name="rec_basis" >
     <v>       0.15675447      -0.26000650       0.02152361 </v>
     <v>       0.15675447       0.26000650       0.02152361 </v>
     <v>      -0.00005285       0.00000000       0.16246656 </v>
    </varray>
   </crystal>
   <varray name="positions" >
    <v>       0.80178426       0.80178426       0.77147918 </v>
    <v>       0.19821574       0.19821574       0.22852082 </v>
    <v>       0.84806291       0.84806291       0.14111049 </v>
    <v>       0.15193709       0.15193709       0.85888951 </v>
    <v>       0.57341337       0.57341337       0.43305616 </v>
    <v>       0.42658663       0.42658663       0.56694384 </v>
   </varray>
  </structure>
  <varray name="forces" >
   <v>       0.08275968       0.00000000      -0.85481258 </v>
   <v>      -0.08275968      -0.00000000       0.85481258 </v>
   <v>      -0.11258972       0.00000000       0.04045749 </v>
   <v>       0.11258972      -0.00000000      -0.04045749 </v>
   <v>       3.32214844      -0.00000000      -2.88584734 </v>
   <v>      -3.32214844      -0.00000000       2.88584734 </v>
  </varray>
  <varray name="stress" >
   <v>     267.46273907      -0.00000000     -50.85387355 </v>
   <v>      -0.00000000     160.76295562       0.00000000 </v>
   <v>     -50.85378844       0.00000000     220.57453710 </v>
  </varray>
  <energy>
   <i name="e_fr_energy">    -60.40183088 </i>
   <i name="e_wo_entrp">    -60.40183088 </i>
   <i name="e_0_energy">    -60.40183088 </i>
  </energy>
  <time name="totalsc">   97.58   98.31</time>
 </calculation>
 <calculation>
  <scstep>
   <time name="total">    2.34    2.36</time>
   <energy>
    <i name="alphaZ">    321.89254598 </i>
    <i name="ewald">  -3047.57731548 </i>
    <i name="hartreedc">   -683.53652392 </i>
    <i name="XCdc">    109.97718274 </i>
    <i name="pawpsdc">   4532.52047449 </i>
    <i name="pawaedc">  -4494.80025932 </i>
    <i name="eentropy">      0.00000000 </i>
    <i name="bandstr">   -564.80285684 </i>
    <i name="atom">   3591.70966704 </i>
    <i name="e_fr_energy">    -55.44886221 </i>
    <i name="e_wo_entrp">    -55.44886221 </i>
    <i name="e_0_energy">    -55.44886221 </i>
   </energy>
  </scstep>
  <scstep>
   <time name="total">    2.47    2.49</time>
   <energy>
    <i name="e_fr_energy">    -59.90916048 </i>
    <i name="e_wo_entrp">    -59.90916048 </i>
    <i name="e_0_energy">    -59.90916048 </i>
   </energy>
  </scstep>
  <scstep>
   <time name="total">    2.37    2.39</time>
   <energy>
    <i name="e_fr_energy">    -60.44153584 </i>
    <i name="e_wo_entrp">    -60.44153584 </i>
    <i name="e_0_energy">    -60.44153584 </i>
   </energy>
  </scstep>
  <scstep>
   <time name="total">    2.37    2.38</time>
   <energy>
    <i name="e_fr_energy">    -60.86248242 </i>
    <i name="e_wo_entrp">    -60.86248242 </i>
    <i name="e_0_energy">    -60.86248242 </i>
   </energy>
  </scstep>
  <scstep>
   <time name="total">    2.37    2.39</time>
   <energy>
    <i name="e_fr_energy">    -60.88599187 </i>
    <i name="e_wo_entrp">    -60.88599187 </i>
    <i name="e_0_energy">    -60.88599187 </i>
   </energy>
  </scstep>
  <scstep>
   <time name="total">    2.37    2.39</time>
   <energy>
    <i name="e_fr_energy">    -60.95143489 </i>
    <i name="e_wo_entrp">    -60.95143489 </i>
    <i name="e_0_energy">    -60.95143489 </i>
   </energy>
  </scstep>
  <scstep>
   <time name="total">    2.37    2.38</time>
   <energy>
    <i name="e_fr_energy">    -60.96469937 </i>
    <i name="e_wo_entrp">    -60.96469937 </i>
    <i name="e_0_energy">    -60.96469937 </i>
   </energy>
  </scstep>
  <scstep>
   <time name="total">    2.36    2.39</time>
   <energy>
    <i name="e_fr_energy">    -60.97487303 </i>
    <i name="e_wo_entrp">    -60.97487303 </i>
    <i name="e_0_energy">    -60.97487303 </i>
   </energy>
  </scstep>
  <scstep>
   <time name="total">    2.37    2.39</time>
   <energy>
    <i name="e_fr_energy">    -60.97793965 </i>
    <i name="e_wo_entrp">    -60.97793965 </i>
    <i name="e_0_energy">    -60.97793965 </i>
   </energy>
  </scstep>
  <scstep>
   <time name="total">    2.36    2.38</time>
   <energy>
    <i name="e_fr_energy">    -60.97890314 </i>
    <i name="e_wo_entrp">    -60.97890314 </i>
    <i name="e_0_energy">    -60.97890314 </i>
   </energy>
  </scstep>
  <scstep>
   <time name="total">    2.37    2.39</time>
   <energy>
    <i name="e_fr_energy">    -60.97951733 </i>
    <i name="e_wo_entrp">    -60.97951733 </i>
    <i name="e_0_energy">    -60.97951733 </i>
   </energy>
  </scstep>
  <scstep>
   <time name="total">    2.37    2.39</time>
   <energy>
    <i name="e_fr_energy">    -60.97974686 </i>
    <i name="e_wo_entrp">    -60.97974686 </i>
    <i name="e_0_energy">    -60.97974686 </i>
   </energy>
  </scstep>
  <scstep>
   <time name="total">    2.36    2.38</time>
   <energy>
    <i name="e_fr_energy">    -60.97989220 </i>
    <i name="e_wo_entrp">    -60.97989220 </i>
    <i name="e_0_energy">    -60.97989220 </i>
   </energy>
  </scstep>
  <scstep>
   <time name="total">    2.36    2.38</time>
   <energy>
    <i name="e_fr_energy">    -60.97996521 </i>
    <i name="e_wo_entrp">    -60.97996521 </i>
    <i name="e_0_energy">    -60.97996521 </i>
   </energy>
  </scstep>
  <scstep>
   <time name="total">    2.37    2.38</time>
   <energy>
    <i name="e_fr_energy">    -60.98000889 </i>
    <i name="e_wo_entrp">    -60.98000889 </i>
    <i name="e_0_energy">    -60.98000889 </i>
   </energy>
  </scstep>
  <scstep>
   <time name="total">    2.37    2.38</time>
   <energy>
    <i name="e_fr_energy">    -60.98003711 </i>
    <i name="e_wo_entrp">    -60.98003711 </i>
    <i name="e_0_energy">    -60.98003711 </i>
   </energy>
  </scstep>
  <scstep>
   <time name="total">    2.37    2.39</time>
   <energy>
    <i name="e_fr_energy">    -60.98005647 </i>
    <i name="e_wo_entrp">    -60.98005647 </i>
    <i name="e_0_energy">    -60.98005647 </i>
   </energy>
  </scstep>
  <scstep>
   <time name="total">    2.37    2.39</time>
   <energy>
    <i name="e_fr_energy">    -60.98006998 </i>
    <i name="e_wo_entrp">    -60.98006998 </i>
    <i name="e_0_energy">    -60.98006998 </i>
   </energy>
  </scstep>
  <scstep>
   <time name="total">    2.37    2.38</time>
   <energy>
    <i name="e_fr_energy">    -60.98007985 </i>
    <i name="e_wo_entrp">    -60.98007985 </i>
    <i name="e_0_energy">    -60.98007985 </i>
   </energy>
  </scstep>
  <scstep>
   <time name="total">    2.37    2.39</time>
   <energy>
    <i name="e_fr_energy">    -60.98008730 </i>
    <i name="e_wo_entrp">    -60.98008730 </i>
    <i name="e_0_energy">    -60.98008730 </i>
   </energy>
  </scstep>
  <scstep>
   <time name="total">    2.37    2.38</time>
   <energy>
    <i name="e_fr_energy">    -60.98009301 </i>
    <i name="e_wo_entrp">    -60.98009301 </i>
    <i name="e_0_energy">    -60.98009301 </i>
   </energy>
  </scstep>
  <scstep>
   <time name="total">    2.36    2.38</time>
   <energy>
    <i name="e_fr_energy">    -60.98009746 </i>
    <i name="e_wo_entrp">    -60.98009746 </i>
    <i name="e_0_energy">    -60.98009746 </i>
   </energy>
  </scstep>
  <scstep>
   <time name="total">    2.36    2.38</time>
   <energy>
    <i name="e_fr_energy">    -60.98010103 </i>
    <i name="e_wo_entrp">    -60.98010103 </i>
    <i name="e_0_energy">    -60.98010103 </i>
   </energy>
  </scstep>
  <scstep>
   <time name="total">    2.37    2.38</time>
   <energy>
    <i name="e_fr_energy">    -60.98010399 </i>
    <i name="e_wo_entrp">    -60.98010399 </i>
    <i name="e_0_energy">    -60.98010399 </i>
   </energy>
  </scstep>
  <scstep>
   <time name="total">    2.37    2.39</time>
   <energy>
    <i name="e_fr_energy">    -60.98010651 </i>
    <i name="e_wo_entrp">    -60.98010651 </i>
    <i name="e_0_energy">    -60.98010651 </i>
   </energy>
  </scstep>
  <scstep>
   <time name="total">    2.36    2.38</time>
   <energy>
    <i name="e_fr_energy">    -60.98010869 </i>
    <i name="e_wo_entrp">    -60.98010869 </i>
    <i name="e_0_energy">    -60.98010869 </i>
   </energy>
  </scstep>
  <scstep>
   <time name="total">    2.37    2.38</time>
   <energy>
    <i name="e_fr_energy">    -60.98011060 </i>
    <i name="e_wo_entrp">    -60.98011060 </i>
    <i name="e_0_energy">    -60.98011060 </i>
   </energy>
  </scstep>
  <scstep>
   <time name="total">    2.37    2.38</time>
   <energy>
    <i name="e_fr_energy">    -60.98011229 </i>
    <i name="e_wo_entrp">    -60.98011229 </i>
    <i name="e_0_energy">    -60.98011229 </i>
   </energy>
  </scstep>
  <scstep>
   <time name="total">    2.35    2.38</time>
   <energy>
    <i name="e_fr_energy">    -60.98011381 </i>
    <i name="e_wo_entrp">    -60.98011381 </i>
    <i name="e_0_energy">    -60.98011381 </i>
   </energy>
  </scstep>
  <scstep>
   <time name="total">    2.37    2.38</time>
   <energy>
    <i name="e_fr_energy">    -60.98011519 </i>
    <i name="e_wo_entrp">    -60.98011519 </i>
    <i name="e_0_energy">    -60.98011519 </i>
   </energy>
  </scstep>
  <scstep>
   <time name="total">    2.37    2.38</time>
   <energy>
    <i name="e_fr_energy">    -60.98011644 </i>
    <i name="e_wo_entrp">    -60.98011644 </i>
    <i name="e_0_energy">    -60.98011644 </i>
   </energy>
  </scstep>
  <scstep>
   <time name="total">    2.37    2.38</time>
   <energy>
    <i name="e_fr_energy">    -60.98011758 </i>
    <i name="e_wo_entrp">    -60.98011758 </i>
    <i name="e_0_energy">    -60.98011758 </i>
   </energy>
  </scstep>
  <scstep>
   <time name="total">    2.36    2.38</time>
   <energy>
    <i name="e_fr_energy">    -60.98011863 </i>
    <i name="e_wo_entrp">    -60.98011863 </i>
    <i name="e_0_energy">    -60.98011863 </i>
   </energy>
  </scstep>
  <scstep>
   <time name="total">    2.38    2.39</time>
   <energy>
    <i name="e_fr_energy">    -60.98011959 </i>
    <i name="e_wo_entrp">    -60.98011959 </i>
    <i name="e_0_energy">    -60.98011959 </i>
   </energy>
  </scstep>
  <scstep>
   <time name="total">    2.38    2.40</time>
   <energy>
    <i name="e_fr_energy">    -60.98012049 </i>
    <i name="e_wo_entrp">    -60.98012049 </i>
    <i name="e_0_energy">    -60.98012049 </i>
   </energy>
  </scstep>
  <scstep>
   <time name="total">    2.37    2.38</time>
   <energy>
    <i name="e_fr_energy">    -60.98012133 </i>
    <i name="e_wo_entrp">    -60.98012133 </i>
    <i name="e_0_energy">    -60.98012133 </i>
   </energy>
  </scstep>
  <scstep>
   <time name="total">    2.37    2.39</time>
   <energy>
    <i name="e_fr_energy">    -60.98012213 </i>
    <i name="e_wo_entrp">    -60.98012213 </i>
    <i name="e_0_energy">    -60.98012213 </i>
   </energy>
  </scstep>
  <scstep>
   <time name="total">    2.36    2.38</time>
   <energy>
    <i name="e_fr_energy">    -60.98012289 </i>
    <i name="e_wo_entrp">    -60.98012289 </i>
    <i name="e_0_energy">    -60.98012289 </i>
   </energy>
  </scstep>
  <scstep>
   <time name="total">    2.39    2.41</time>
   <energy>
    <i name="e_fr_energy">    -60.98012362 </i>
    <i name="e_wo_entrp">    -60.98012362 </i>
    <i name="e_0_energy">    -60.98012362 </i>
   </energy>
  </scstep>
  <scstep>
   <time name="total">    2.37    2.38</time>
   <energy>
    <i name="e_fr_energy">    -60.98012431 </i>
    <i name="e_wo_entrp">    -60.98012431 </i>
    <i name="e_0_energy">    -60.98012431 </i>
   </energy>
  </scstep>
  <scstep>
   <time name="total">    2.36    2.38</time>
   <energy>
    <i name="e_fr_energy">    -60.98012498 </i>
    <i name="e_wo_entrp">    -60.98012498 </i>
    <i name="e_0_energy">    -60.98012498 </i>
   </energy>
  </scstep>
  <scstep>
   <time name="total">    2.39    2.41</time>
   <energy>
    <i name="e_fr_energy">    -60.98012562 </i>
    <i name="e_wo_entrp">    -60.98012562 </i>
    <i name="e_0_energy">    -60.98012562 </i>
   </energy>
  </scstep>
  <scstep>
   <time name="total">    2.48    2.52</time>
   <energy>
    <i name="e_fr_energy">    -60.98012624 </i>
    <i name="e_wo_entrp">    -60.98012624 </i>
    <i name="e_0_energy">    -60.98012624 </i>
   </energy>
  </scstep>
  <scstep>
   <time name="total">    2.36    2.38</time>
   <energy>
    <i name="e_fr_energy">    -60.98012680 </i>
    <i name="e_wo_entrp">    -60.98012680 </i>
    <i name="e_0_energy">    -60.98012680 </i>
   </energy>
  </scstep>
  <scstep>
   <time name="total">    2.37    2.39</time>
   <energy>
    <i name="e_fr_energy">    -60.98012732 </i>
    <i name="e_wo_entrp">    -60.98012732 </i>
    <i name="e_0_energy">    -60.98012732 </i>
   </energy>
  </scstep>
  <scstep>
   <time name="total">    2.36    2.38</time>
   <energy>
    <i name="e_fr_energy">    -60.98012764 </i>
    <i name="e_wo_entrp">    -60.98012764 </i>
    <i name="e_0_energy">    -60.98012764 </i>
   </energy>
  </scstep>
  <scstep>
   <time name="total">    2.37    2.39</time>
   <energy>
    <i name="e_fr_energy">    -60.98012756 </i>
    <i name="e_wo_entrp">    -60.98012756 </i>
    <i name="e_0_energy">    -60.98012756 </i>
   </energy>
  </scstep>
  <scstep>
   <time name="total">    2.36    2.38</time>
   <energy>
    <i name="e_fr_energy">    -60.98012514 </i>
    <i name="e_wo_entrp">    -60.98012514 </i>
    <i name="e_0_energy">    -60.98012514 </i>
   </energy>
  </scstep>
  <scstep>
   <time name="total">    2.36    2.38</time>
   <energy>
    <i name="e_fr_energy">    -60.98011219 </i>
    <i name="e_wo_entrp">    -60.98011219 </i>
    <i name="e_0_energy">    -60.98011219 </i>
   </energy>
  </scstep>
  <scstep>
   <time name="total">    2.36    2.37</time>
   <energy>
    <i name="e_fr_energy">    -60.98004761 </i>
    <i name="e_wo_entrp">    -60.98004761 </i>
    <i name="e_0_energy">    -60.98004761 </i>
   </energy>
  </scstep>
  <scstep>
   <time name="total">    2.37    2.39</time>
   <energy>
    <i name="e_fr_energy">    -60.97981534 </i>
    <i name="e_wo_entrp">    -60.97981534 </i>
    <i name="e_0_energy">    -60.97981534 </i>
   </energy>
  </scstep>
  <scstep>
   <time name="total">    2.36    2.38</time>
   <energy>
    <i name="e_fr_energy">    -60.97916127 </i>
    <i name="e_wo_entrp">    -60.97916127 </i>
    <i name="e_0_energy">    -60.97916127 </i>
   </energy>
  </scstep>
  <scstep>
   <time name="total">    2.48    2.50</time>
   <energy>
    <i name="e_fr_energy">    -60.97786204 </i>
    <i name="e_wo_entrp">    -60.97786204 </i>
    <i name="e_0_energy">    -60.97786204 </i>
   </energy>
  </scstep>
  <scstep>
   <time name="total">    2.37    2.38</time>
   <energy>
    <i name="e_fr_energy">    -60.97539864 </i>
    <i name="e_wo_entrp">    -60.97539864 </i>
    <i name="e_0_energy">    -60.97539864 </i>
   </energy>
  </scstep>
  <scstep>
   <time name="total">    2.36    2.38</time>
   <energy>
    <i name="e_fr_energy">    -60.97118111 </i>
    <i name="e_wo_entrp">    -60.97118111 </i>
    <i name="e_0_energy">    -60.97118111 </i>
   </energy>
  </scstep>
[...]
        <r>  0.0000  0.2490  0.0000 </r>
        <r>  0.0000  0.2490  0.0000 </r>
        <r>  0.0000  0.0684  0.0000 </r>
        <r>  0.0000  0.0684  0.0000 </r>
       </set>
       <set comment="band 21">
        <r>  0.0058  0.0107  0.0197 </r>
        <r>  0.0058  0.0107  0.0197 </r>
        <r>  0.0001  0.3095  0.0000 </r>
        <r>  0.0001  0.3095  0.0000 </r>
        <r>  0.0002  0.0231  0.0000 </r>
        <r>  0.0002  0.0231  0.0000 </r>
       </set>
       <set comment="band 22">
        <r>  0.0001  0.0085  0.0130 </r>
        <r>  0.0001  0.0085  0.0130 </r>
        <r>  0.0001  0.0643  0.0000 </r>
        <r>  0.0001  0.0643  0.0000 </r>
        <r>  0.0001  0.2990  0.0000 </r>
        <r>  0.0001  0.2990  0.0000 </r>
       </set>
       <set comment="band 23">
        <r>  0.0000  0.0189  0.0044 </r>
        <r>  0.0000  0.0189  0.0044 </r>
        <r>  0.0000  0.0855  0.0000 </r>
        <r>  0.0000  0.0855  0.0000 </r>
        <r>  0.0000  0.2742  0.0000 </r>
        <r>  0.0000  0.2742  0.0000 </r>
       </set>
       <set comment="band 24">
        <r>  0.0051  0.0019  0.1813 </r>
        <r>  0.0051  0.0019  0.1813 </r>
        <r>  0.0009  0.0755  0.0000 </r>
        <r>  0.0009  0.0755  0.0000 </r>
        <r>  0.0062  0.0120  0.0000 </r>
        <r>  0.0062  0.0120  0.0000 </r>
       </set>
       <set comment="band 25">
        <r>  0.0058  0.0062  0.1183 </r>
        <r>  0.0058  0.0062  0.1183 </r>
        <r>  0.0040  0.0446  0.0000 </r>
        <r>  0.0040  0.0446  0.0000 </r>
        <r>  0.0304  0.0942  0.0000 </r>
        <r>  0.0304  0.0942  0.0000 </r>
       </set>
       <set comment="band 26">
        <r>  0.0000  0.0001  0.3411 </r>
        <r>  0.0000  0.0001  0.3411 </r>
        <r>  0.0000  0.0135  0.0000 </r>
        <r>  0.0000  0.0135  0.0000 </r>
        <r>  0.0000  0.0036  0.0000 </r>
        <r>  0.0000  0.0036  0.0000 </r>
       </set>
       <set comment="band 27">
        <r>  0.0057  0.0054  0.1845 </r>
        <r>  0.0057  0.0054  0.1845 </r>
        <r>  0.0082  0.0131  0.0000 </r>
        <r>  0.0082  0.0131  0.0000 </r>
        <r>  0.0132  0.0990  0.0000 </r>
        <r>  0.0132  0.0990  0.0000 </r>
       </set>
       <set comment="band 28">
        <r>  0.0047  0.0130  0.2819 </r>
        <r>  0.0047  0.0130  0.2819 </r>
        <r>  0.0005  0.0115  0.0000 </r>
        <r>  0.0005  0.0115  0.0000 </r>
        <r>  0.0114  0.0130  0.0000 </r>
        <r>  0.0114  0.0130  0.0000 </r>
       </set>
      </set>
      <set comment="kpoint 23">
       <set comment="band 1">
        <r>  0.4915  0.0000  0.0000 </r>
        <r>  0.4915  0.0000  0.0000 </r>
        <r>  0.0010  0.0003  0.0000 </r>
        <r>  0.0010  0.0003  0.0000 </r>
        <r>  0.0004  0.0001  0.0000 </r>
        <r>  0.0004  0.0001  0.0000 </r>
       </set>
       <set comment="band 2">
        <r>  0.4941  0.0000  0.0000 </r>
        <r>  0.4941  0.0000  0.0000 </r>
        <r>  0.0001  0.0004  0.0000 </r>
        <r>  0.0001  0.0004  0.0000 </r>
        <r>  0.0000  0.0001  0.0000 </r>
        <r>  0.0000  0.0001  0.0000 </r>
       </set>
       <set comment="band 3">
        <r>  0.0011  0.0246  0.0026 </r>
        <r>  0.0011  0.0246  0.0026 </r>
        <r>  0.0013  0.0001  0.0000 </r>
        <r>  0.0013  0.0001  0.0000 </r>
        <r>  0.3625  0.0272  0.0000 </r>
        <r>  0.3625  0.0272  0.0000 </r>
       </set>
       <set comment="band 4">
        <r>  0.0034  0.2123  0.0035 </r>
        <r>  0.0034  0.2123  0.0035 </r>
        <r>  0.2020  0.0002  0.0000 </r>
        <r>  0.2020  0.0002  0.0000 </r>
        <r>  0.0005  0.0009  0.0000 </r>
        <r>  0.0005  0.0009  0.0000 </r>
       </set>
       <set comment="band 5">
        <r>  0.0002  0.2037  0.0084 </r>
        <r>  0.0002  0.2037  0.0084 </r>
        <r>  0.2068  0.0013  0.0000 </r>
        <r>  0.2068  0.0013  0.0000 </r>
        <r>  0.0076  0.0020  0.0000 </r>
        <r>  0.0076  0.0020  0.0000 </r>
       </set>
       <set comment="band 6">
        <r>  0.0004  0.3424  0.0011 </r>
        <r>  0.0004  0.3424  0.0011 </r>
        <r>  0.0003  0.0041  0.0000 </r>
        <r>  0.0003  0.0041  0.0000 </r>
        <r>  0.0901  0.0065  0.0000 </r>
        <r>  0.0901  0.0065  0.0000 </r>
       </set>
       <set comment="band 7">
        <r>  0.0000  0.4559  0.0004 </r>
        <r>  0.0000  0.4559  0.0004 </r>
        <r>  0.0011  0.0077  0.0000 </r>
        <r>  0.0011  0.0077  0.0000 </r>
        <r>  0.0008  0.0036  0.0000 </r>
        <r>  0.0008  0.0036  0.0000 </r>
       </set>
       <set comment="band 8">
        <r>  0.0001  0.4711  0.0002 </r>
        <r>  0.0001  0.4711  0.0002 </r>
        <r>  0.0013  0.0033  0.0000 </r>
        <r>  0.0013  0.0033  0.0000 </r>
        <r>  0.0011  0.0021  0.0000 </r>
        <r>  0.0011  0.0021  0.0000 </r>
       </set>
       <set comment="band 9">
        <r>  0.0000  0.4570  0.0003 </r>
        <r>  0.0000  0.4570  0.0003 </r>
        <r>  0.0013  0.0056  0.0000 </r>
        <r>  0.0013  0.0056  0.0000 </r>
        <r>  0.0129  0.0025  0.0000 </r>
        <r>  0.0129  0.0025  0.0000 </r>
       </set>
       <set comment="band 10">
        <r>  0.0009  0.2332  0.0093 </r>
        <r>  0.0009  0.2332  0.0093 </r>
        <r>  0.1484  0.0024  0.0000 </r>
        <r>  0.1484  0.0024  0.0000 </r>
        <r>  0.0620  0.0046  0.0000 </r>
        <r>  0.0620  0.0046  0.0000 </r>
       </set>
       <set comment="band 11">
        <r>  0.0030  0.1980  0.0040 </r>
        <r>  0.0030  0.1980  0.0040 </r>
        <r>  0.0874  0.0018  0.0000 </r>
        <r>  0.0874  0.0018  0.0000 </r>
        <r>  0.1505  0.0082  0.0000 </r>
        <r>  0.1505  0.0082  0.0000 </r>
       </set>
       <set comment="band 12">
        <r>  0.0010  0.2218  0.0069 </r>
        <r>  0.0010  0.2218  0.0069 </r>
        <r>  0.1398  0.0005  0.0000 </r>
        <r>  0.1398  0.0005  0.0000 </r>
        <r>  0.0863  0.0060  0.0000 </r>
        <r>  0.0863  0.0060  0.0000 </r>
       </set>
       <set comment="band 13">
        <r>  0.0076  0.0053  0.0145 </r>
        <r>  0.0076  0.0053  0.0145 </r>
        <r>  0.0002  0.0189  0.0000 </r>
        <r>  0.0002  0.0189  0.0000 </r>
        <r>  0.0129  0.3145  0.0000 </r>
        <r>  0.0129  0.3145  0.0000 </r>
       </set>
       <set comment="band 14">
        <r>  0.0078  0.0111  0.0256 </r>
        <r>  0.0078  0.0111  0.0256 </r>
        <r>  0.0001  0.0176  0.0000 </r>
        <r>  0.0001  0.0176  0.0000 </r>
        <r>  0.0009  0.2768  0.0000 </r>
        <r>  0.0009  0.2768  0.0000 </r>
       </set>
       <set comment="band 15">
        <r>  0.0000  0.0151  0.0241 </r>
        <r>  0.0000  0.0151  0.0241 </r>
        <r>  0.0010  0.0056  0.0000 </r>
        <r>  0.0010  0.0056  0.0000 </r>
        <r>  0.0012  0.3065  0.0000 </r>
        <r>  0.0012  0.3065  0.0000 </r>
       </set>
       <set comment="band 16">
        <r>  0.0045  0.0140  0.0661 </r>
        <r>  0.0045  0.0140  0.0661 </r>
        <r>  0.0001  0.2250  0.0000 </r>
        <r>  0.0001  0.2250  0.0000 </r>
        <r>  0.0001  0.0377  0.0000 </r>
        <r>  0.0001  0.0377  0.0000 </r>
       </set>
       <set comment="band 17">
        <r>  0.0049  0.0221  0.0562 </r>
        <r>  0.0049  0.0221  0.0562 </r>
        <r>  0.0000  0.2375  0.0000 </r>
        <r>  0.0000  0.2375  0.0000 </r>
        <r>  0.0009  0.0275  0.0000 </r>
        <r>  0.0009  0.0275  0.0000 </r>
       </set>
       <set comment="band 18">
        <r>  0.0051  0.0187  0.0382 </r>
        <r>  0.0051  0.0187  0.0382 </r>
        <r>  0.0000  0.2600  0.0000 </r>
        <r>  0.0000  0.2600  0.0000 </r>
        <r>  0.0033  0.0408  0.0000 </r>
        <r>  0.0033  0.0408  0.0000 </r>
       </set>
       <set comment="band 19">
        <r>  0.0111  0.0126  0.0345 </r>
        <r>  0.0111  0.0126  0.0345 </r>
        <r>  0.0008  0.2756  0.0000 </r>
        <r>  0.0008  0.2756  0.0000 </r>
        <r>  0.0041  0.0231  0.0000 </r>
        <r>  0.0041  0.0231  0.0000 </r>
       </set>
       <set comment="band 20">
        <r>  0.0002  0.0150  0.0472 </r>
        <r>  0.0002  0.0150  0.0472 </r>
        <r>  0.0001  0.2542  0.0000 </r>
        <r>  0.0001  0.2542  0.0000 </r>
        <r>  0.0002  0.0510  0.0000 </r>
        <r>  0.0002  0.0510  0.0000 </r>
       </set>
       <set comment="band 21">
        <r>  0.0025  0.0136  0.0314 </r>
        <r>  0.0025  0.0136  0.0314 </r>
        <r>  0.0002  0.2470  0.0000 </r>
        <r>  0.0002  0.2470  0.0000 </r>
        <r>  0.0006  0.0740  0.0000 </r>
        <r>  0.0006  0.0740  0.0000 </r>
       </set>
       <set comment="band 22">
        <r>  0.0010  0.0066  0.0122 </r>
        <r>  0.0010  0.0066  0.0122 </r>
        <r>  0.0004  0.0712  0.0000 </r>
        <r>  0.0004  0.0712  0.0000 </r>
        <r>  0.0002  0.2877  0.0000 </r>
        <r>  0.0002  0.2877  0.0000 </r>
       </set>
       <set comment="band 23">
        <r>  0.0017  0.0165  0.0072 </r>
        <r>  0.0017  0.0165  0.0072 </r>
        <r>  0.0001  0.1301  0.0000 </r>
        <r>  0.0001  0.1301  0.0000 </r>
        <r>  0.0001  0.2270  0.0000 </r>
        <r>  0.0001  0.2270  0.0000 </r>
       </set>
       <set comment="band 24">
        <r>  0.0005  0.0036  0.2002 </r>
        <r>  0.0005  0.0036  0.2002 </r>
        <r>  0.0005  0.0675  0.0000 </r>
        <r>  0.0005  0.0675  0.0000 </r>
        <r>  0.0033  0.0115  0.0000 </r>
        <r>  0.0033  0.0115  0.0000 </r>
       </set>
       <set comment="band 25">
        <r>  0.0055  0.0052  0.1169 </r>
        <r>  0.0055  0.0052  0.1169 </r>
        <r>  0.0020  0.0394  0.0000 </r>
        <r>  0.0020  0.0394  0.0000 </r>
        <r>  0.0308  0.1220  0.0000 </r>
        <r>  0.0308  0.1220  0.0000 </r>
       </set>
       <set comment="band 26">
        <r>  0.0024  0.0022  0.2934 </r>
        <r>  0.0024  0.0022  0.2934 </r>
        <r>  0.0019  0.0111  0.0000 </r>
        <r>  0.0019  0.0111  0.0000 </r>
        <r>  0.0020  0.0149  0.0000 </r>
        <r>  0.0020  0.0149  0.0000 </r>
       </set>
       <set comment="band 27">
        <r>  0.0002  0.0020  0.2793 </r>
        <r>  0.0002  0.0020  0.2791 </r>
        <r>  0.0041  0.0060  0.0000 </r>
        <r>  0.0041  0.0060  0.0000 </r>
        <r>  0.0093  0.0582  0.0000 </r>
        <r>  0.0093  0.0582  0.0000 </r>
       </set>
       <set comment="band 28">
        <r>  0.0084  0.0106  0.2578 </r>
        <r>  0.0088  0.0106  0.2678 </r>
        <r>  0.0006  0.0216  0.0000 </r>
        <r>  0.0004  0.0221  0.0000 </r>
        <r>  0.0137  0.0256  0.0000 </r>
        <r>  0.0138  0.0242  0.0000 </r>
       </set>
      </set>
      <set comment="kpoint 24">
       <set comment="band 1">
        <r>  0.4894  0.0000  0.0000 </r>
        <r>  0.4894  0.0000  0.0000 </r>
        <r>  0.0019  0.0001  0.0000 </r>
        <r>  0.0019  0.0001  0.0000 </r>
        <r>  0.0005  0.0001  0.0000 </r>
        <r>  0.0005  0.0001  0.0000 </r>
       </set>
       <set comment="band 2">
        <r>  0.4930  0.0000  0.0000 </r>
        <r>  0.4930  0.0000  0.0000 </r>
        <r>  0.0005  0.0003  0.0000 </r>
        <r>  0.0005  0.0003  0.0000 </r>
        <r>  0.0002  0.0001  0.0000 </r>
        <r>  0.0002  0.0001  0.0000 </r>
       </set>
       <set comment="band 3">
        <r>  0.0024  0.0249  0.0015 </r>
        <r>  0.0024  0.0249  0.0015 </r>
        <r>  0.0010  0.0001  0.0000 </r>
        <r>  0.0010  0.0001  0.0000 </r>
        <r>  0.3614  0.0272  0.0000 </r>
        <r>  0.3614  0.0272  0.0000 </r>
       </set>
       <set comment="band 4">
        <r>  0.0063  0.2079  0.0015 </r>
        <r>  0.0063  0.2079  0.0015 </r>
        <r>  0.2009  0.0009  0.0000 </r>
        <r>  0.2009  0.0009  0.0000 </r>
        <r>  0.0041  0.0006  0.0000 </r>
        <r>  0.0041  0.0006  0.0000 </r>
       </set>
       <set comment="band 5">
        <r>  0.0014  0.1974  0.0089 </r>
        <r>  0.0014  0.1974  0.0089 </r>
        <r>  0.2114  0.0019  0.0000 </r>
        <r>  0.2114  0.0019  0.0000 </r>
        <r>  0.0110  0.0011  0.0000 </r>
        <r>  0.0110  0.0011  0.0000 </r>
       </set>
       <set comment="band 6">
        <r>  0.0008  0.3582  0.0017 </r>
        <r>  0.0008  0.3582  0.0017 </r>
        <r>  0.0180  0.0016  0.0000 </r>
        <r>  0.0180  0.0016  0.0000 </r>
        <r>  0.0710  0.0080  0.0000 </r>
        <r>  0.0710  0.0080  0.0000 </r>
       </set>
       <set comment="band 7">
        <r>  0.0000  0.4674  0.0002 </r>
        <r>  0.0000  0.4674  0.0002 </r>
        <r>  0.0000  0.0068  0.0000 </r>
        <r>  0.0000  0.0068  0.0000 </r>
        <r>  0.0000  0.0014  0.0000 </r>
        <r>  0.0000  0.0014  0.0000 </r>
       </set>
       <set comment="band 8">
        <r>  0.0000  0.4575  0.0005 </r>
        <r>  0.0000  0.4575  0.0005 </r>
        <r>  0.0051  0.0047  0.0000 </r>
        <r>  0.0051  0.0047  0.0000 </r>
        <r>  0.0038  0.0039  0.0000 </r>
        <r>  0.0038  0.0039  0.0000 </r>
       </set>
       <set comment="band 9">
        <r>  0.0000  0.4733  0.0001 </r>
        <r>  0.0000  0.4733  0.0001 </r>
        <r>  0.0000  0.0042  0.0000 </r>
        <r>  0.0000  0.0042  0.0000 </r>
        <r>  0.0000  0.0015  0.0000 </r>
        <r>  0.0000  0.0015  0.0000 </r>
       </set>
       <set comment="band 10">
        <r>  0.0027  0.2369  0.0051 </r>
        <r>  0.0027  0.2369  0.0051 </r>
        <r>  0.1342  0.0018  0.0000 </r>
        <r>  0.1342  0.0018  0.0000 </r>
        <r>  0.0688  0.0046  0.0000 </r>
        <r>  0.0688  0.0046  0.0000 </r>
       </set>
       <set comment="band 11">
        <r>  0.0043  0.2130  0.0058 </r>
        <r>  0.0043  0.2130  0.0058 </r>
        <r>  0.1040  0.0024  0.0000 </r>
        <r>  0.1040  0.0024  0.0000 </r>
        <r>  0.1141  0.0064  0.0000 </r>
        <r>  0.1141  0.0064  0.0000 </r>
       </set>
       <set comment="band 12">
        <r>  0.0010  0.1969  0.0025 </r>
        <r>  0.0010  0.1969  0.0025 </r>
        <r>  0.1112  0.0009  0.0000 </r>
        <r>  0.1112  0.0009  0.0000 </r>
        <r>  0.1409  0.0064  0.0000 </r>
        <r>  0.1409  0.0064  0.0000 </r>
       </set>
       <set comment="band 13">
        <r>  0.0071  0.0040  0.0116 </r>
        <r>  0.0071  0.0040  0.0116 </r>
        <r>  0.0015  0.0156  0.0000 </r>
        <r>  0.0015  0.0156  0.0000 </r>
        <r>  0.0132  0.3229  0.0000 </r>
        <r>  0.0132  0.3229  0.0000 </r>
       </set>
       <set comment="band 14">
        <r>  0.0081  0.0139  0.0288 </r>
        <r>  0.0081  0.0139  0.0288 </r>
        <r>  0.0000  0.0201  0.0000 </r>
        <r>  0.0000  0.0201  0.0000 </r>
        <r>  0.0006  0.2809  0.0000 </r>
        <r>  0.0006  0.2809  0.0000 </r>
       </set>
       <set comment="band 15">
        <r>  0.0000  0.0036  0.0357 </r>
        <r>  0.0000  0.0036  0.0357 </r>
        <r>  0.0000  0.0231  0.0000 </r>
        <r>  0.0000  0.0231  0.0000 </r>
        <r>  0.0000  0.2806  0.0000 </r>
        <r>  0.0000  0.2806  0.0000 </r>
       </set>
       <set comment="band 16">
        <r>  0.0029  0.0123  0.0693 </r>
        <r>  0.0029  0.0123  0.0693 </r>
        <r>  0.0002  0.2066  0.0000 </r>
        <r>  0.0002  0.2066  0.0000 </r>
        <r>  0.0000  0.0590  0.0000 </r>
        <r>  0.0000  0.0590  0.0000 </r>
       </set>
       <set comment="band 17">
        <r>  0.0039  0.0171  0.0684 </r>
        <r>  0.0039  0.0171  0.0684 </r>
        <r>  0.0000  0.2546  0.0000 </r>
        <r>  0.0000  0.2546  0.0000 </r>
        <r>  0.0048  0.0131  0.0000 </r>
        <r>  0.0048  0.0131  0.0000 </r>
       </set>
       <set comment="band 18">
        <r>  0.0000  0.0173  0.0706 </r>
        <r>  0.0000  0.0173  0.0706 </r>
        <r>  0.0000  0.2268  0.0000 </r>
        <r>  0.0000  0.2268  0.0000 </r>
        <r>  0.0000  0.0476  0.0000 </r>
        <r>  0.0000  0.0476  0.0000 </r>
       </set>
       <set comment="band 19">
        <r>  0.0000  0.0111  0.0621 </r>
        <r>  0.0000  0.0111  0.0621 </r>
        <r>  0.0000  0.2348  0.0000 </r>
        <r>  0.0000  0.2348  0.0000 </r>
        <r>  0.0000  0.0649  0.0000 </r>
        <r>  0.0000  0.0649  0.0000 </r>
       </set>
       <set comment="band 20">
        <r>  0.0039  0.0066  0.0511 </r>
        <r>  0.0039  0.0066  0.0511 </r>
        <r>  0.0002  0.2635  0.0000 </r>
        <r>  0.0002  0.2635  0.0000 </r>
        <r>  0.0040  0.0339  0.0000 </r>
        <r>  0.0040  0.0339  0.0000 </r>
       </set>
       <set comment="band 21">
        <r>  0.0058  0.0071  0.0184 </r>
        <r>  0.0058  0.0071  0.0184 </r>
        <r>  0.0000  0.2488  0.0000 </r>
        <r>  0.0000  0.2488  0.0000 </r>
        <r>  0.0018  0.0773  0.0000 </r>
        <r>  0.0018  0.0773  0.0000 </r>
       </set>
       <set comment="band 22">
        <r>  0.0014  0.0148  0.0048 </r>
        <r>  0.0014  0.0148  0.0048 </r>
        <r>  0.0009  0.1328  0.0000 </r>
        <r>  0.0009  0.1328  0.0000 </r>
        <r>  0.0003  0.2137  0.0000 </r>
        <r>  0.0003  0.2137  0.0000 </r>
       </set>
       <set comment="band 23">
        <r>  0.0000  0.0151  0.0166 </r>
        <r>  0.0000  0.0151  0.0166 </r>
        <r>  0.0000  0.0806  0.0000 </r>
        <r>  0.0000  0.0806  0.0000 </r>
        <r>  0.0000  0.2645  0.0000 </r>
        <r>  0.0000  0.2645  0.0000 </r>
       </set>
       <set comment="band 24">
        <r>  0.0140  0.0041  0.1104 </r>
        <r>  0.0140  0.0041  0.1104 </r>
        <r>  0.0110  0.0296  0.0000 </r>
        <r>  0.0110  0.0296  0.0000 </r>
        <r>  0.0240  0.0922  0.0000 </r>
        <r>  0.0240  0.0922  0.0000 </r>
       </set>
       <set comment="band 25">
        <r>  0.0063  0.0035  0.1878 </r>
        <r>  0.0063  0.0035  0.1878 </r>
        <r>  0.0003  0.0395  0.0000 </r>
        <r>  0.0003  0.0395  0.0000 </r>
        <r>  0.0070  0.0193  0.0000 </r>
        <r>  0.0070  0.0193  0.0000 </r>
       </set>
       <set comment="band 26">
        <r>  0.0000  0.0001  0.3379 </r>
        <r>  0.0000  0.0001  0.3379 </r>
        <r>  0.0000  0.0001  0.0000 </r>
        <r>  0.0000  0.0001  0.0000 </r>
        <r>  0.0000  0.0010  0.0000 </r>
        <r>  0.0000  0.0010  0.0000 </r>
       </set>
       <set comment="band 27">
        <r>  0.0356  0.0063  0.1917 </r>
        <r>  0.0358  0.0063  0.1920 </r>
        <r>  0.0124  0.0074  0.0000 </r>
        <r>  0.0121  0.0075  0.0000 </r>
        <r>  0.0099  0.0072  0.0000 </r>
        <r>  0.0101  0.0067  0.0000 </r>
       </set>
       <set comment="band 28">
        <r>  0.0001  0.0026  0.3150 </r>
        <r>  0.0001  0.0026  0.3150 </r>
        <r>  0.0010  0.0316  0.0000 </r>
        <r>  0.0010  0.0316  0.0000 </r>
        <r>  0.0005  0.0304  0.0000 </r>
        <r>  0.0005  0.0303  0.0000 </r>
       </set>
      </set>
     </set>
    </set>
   </array>
  </projected>
 </calculation>
 <structure name="finalpos" >
  <crystal>
   <varray name="basis" >
    <v>       3.29722280      -1.96701070      -0.01049831 </v>
    <v>       3.29722280       1.96701070      -0.01049831 </v>
    <v>      -0.89587621       0.00000000       6.34641814 </v>
   </varray>
   <i name="volume">     82.28457944 </i>
   <varray name="rec_basis" >
    <v>       0.15171096      -0.25419282       0.02141590 </v>
    <v>       0.15171096       0.25419282       0.02141590 </v>
    <v>       0.00050192      -0.00000000       0.15764005 </v>
   </varray>
  </crystal>
  <varray name="positions" >
   <v>       0.80140693       0.80140693       0.76984584 </v>
   <v>       0.19859307       0.19859307       0.23015416 </v>
   <v>       0.84846430       0.84846430       0.14032501 </v>
   <v>       0.15153570       0.15153570       0.85967499 </v>
   <v>       0.57655439       0.57655439       0.42916364 </v>
   <v>       0.42344561       0.42344561       0.57083636 </v>
  </varray>
 </structure>
</modeling>
