       N       E                     dE             d eps       ncg     rms           ort
DAV:   1    -0.792885547806E+04   -0.79289E+04   -0.19424E+04   784   0.124E+03  
DAV:   2    -0.829495051413E+04   -0.36610E+03   -0.36572E+03   784   0.330E+02  
DAV:   3    -0.832237402132E+04   -0.27424E+02   -0.27321E+02   784   0.102E+02  
DAV:   4    -0.832659307816E+04   -0.42191E+01   -0.41843E+01   784   0.307E+01  
DAV:   5    -0.197385765575E+02    0.83069E+04   -0.38057E+01   784   0.388E+01  
SDA:   6    -0.199069440534E+02   -0.16837E+00   -0.67017E+00   784   0.168E+01   0.000E+00
DMP:   7    -0.202496060356E+02   -0.34266E+00   -0.45864E+00   784   0.103E+01   0.300E+00
DMP:   8    -0.205857631692E+02   -0.33616E+00   -0.23194E+00   784   0.470E+00   0.288E+00
DMP:   9    -0.207271459117E+02   -0.14138E+00   -0.15200E+00   784   0.297E+00   0.218E+00
DMP:  10    -0.208678249771E+02   -0.14068E+00   -0.11010E+00   784   0.176E+00   0.259E+00
DMP:  11    -0.209635273067E+02   -0.95702E-01   -0.77579E-01   784   0.114E+00   0.210E+00
DMP:  12    -0.210339341105E+02   -0.70407E-01   -0.51636E-01   784   0.715E-01   0.151E+00
DMP:  13    -0.210811056666E+02   -0.47172E-01   -0.34397E-01   784   0.467E-01   0.103E+00
DMP:  14    -0.211122637398E+02   -0.31158E-01   -0.21308E-01   784   0.276E-01   0.673E-01
DMP:  15    -0.211310359486E+02   -0.18772E-01   -0.12250E-01   784   0.153E-01   0.400E-01
DMP:  16    -0.211422179874E+02   -0.11182E-01   -0.69301E-02   784   0.860E-02   0.228E-01
DMP:  17    -0.211477885490E+02   -0.55706E-02   -0.37767E-02   784   0.476E-02   0.123E-01
DMP:  18    -0.211515132521E+02   -0.37247E-02   -0.21925E-02   784   0.297E-02   0.656E-02
DMP:  19    -0.211527637792E+02   -0.12505E-02   -0.13239E-02   784   0.201E-02   0.341E-02
DMP:  20    -0.211543907300E+02   -0.16270E-02   -0.89267E-03   784   0.152E-02   0.187E-02
DMP:  21    -0.211544377542E+02   -0.47024E-04   -0.62417E-03   784   0.116E-02   0.105E-02
DMP:  22    -0.211555163407E+02   -0.10786E-02   -0.47176E-03   784   0.931E-03   0.649E-03
DMP:  23    -0.211552024622E+02    0.31388E-03   -0.35888E-03   784   0.740E-03   0.410E-03
DMP:  24    -0.211560494904E+02   -0.84703E-03   -0.28187E-03   784   0.595E-03   0.288E-03
DMP:  25    -0.211556749994E+02    0.37449E-03   -0.21632E-03   784   0.458E-03   0.216E-03
DMP:  26    -0.211563250421E+02   -0.65004E-03   -0.17013E-03   784   0.355E-03   0.183E-03
DMP:  27    -0.211560072270E+02    0.31782E-03   -0.13284E-03   784   0.273E-03   0.156E-03
DMP:  28    -0.211564725086E+02   -0.46528E-03   -0.10568E-03   784   0.210E-03   0.142E-03
DMP:  29    -0.211562448272E+02    0.22768E-03   -0.84522E-04   784   0.163E-03   0.128E-03
DMP:  30    -0.211565645585E+02   -0.31973E-03   -0.70290E-04   784   0.131E-03   0.117E-03
DMP:  31    -0.211564147436E+02    0.14981E-03   -0.60132E-04   784   0.109E-03   0.107E-03
DMP:  32    -0.211566344063E+02   -0.21966E-03   -0.52720E-04   784   0.935E-04   0.100E-03
DMP:  33    -0.211565402967E+02    0.94110E-04   -0.46802E-04   784   0.814E-04   0.933E-04
DMP:  34    -0.211566977681E+02   -0.15747E-03   -0.42274E-04   784   0.720E-04   0.882E-04
DMP:  35    -0.211566364077E+02    0.61360E-04   -0.38640E-04   784   0.645E-04   0.842E-04
DMP:  36    -0.211567589578E+02   -0.12255E-03   -0.35736E-04   784   0.585E-04   0.809E-04
DMP:  37    -0.211567136035E+02    0.45354E-04   -0.33842E-04   784   0.555E-04   0.762E-04
DMP:  38    -0.211568169754E+02   -0.10337E-03   -0.32432E-04   784   0.538E-04   0.715E-04
DMP:  39    -0.211567782580E+02    0.38717E-04   -0.31974E-04   784   0.552E-04   0.648E-04
DMP:  40    -0.211568703547E+02   -0.92097E-04   -0.32264E-04   784   0.587E-04   0.574E-04
DMP:  41    -0.211568332700E+02    0.37085E-04   -0.33785E-04   784   0.661E-04   0.480E-04
DMP:  42    -0.211569184495E+02   -0.85179E-04   -0.37101E-04   784   0.796E-04   0.344E-04
DMP:  43    -0.211568803510E+02    0.38098E-04   -0.38029E-04   784   0.868E-04   0.217E-04
DMP:  44    -0.211569636750E+02   -0.83324E-04   -0.34025E-04   784   0.780E-04   0.185E-04
DMP:  45    -0.211569257617E+02    0.37913E-04   -0.27189E-04   784   0.568E-04   0.292E-04
DMP:  46    -0.211570072200E+02   -0.81458E-04   -0.23623E-04   784   0.450E-04   0.369E-04
DMP:  47    -0.211569655256E+02    0.41694E-04   -0.24095E-04   784   0.471E-04   0.343E-04
DMP:  48    -0.211570429798E+02   -0.77454E-04   -0.25468E-04   784   0.534E-04   0.269E-04
DMP:  49    -0.211569994028E+02    0.43577E-04   -0.27168E-04   784   0.616E-04   0.165E-04
DMP:  50    -0.211570747253E+02   -0.75323E-04   -0.24737E-04   784   0.567E-04   0.136E-04
DMP:  51    -0.211570324745E+02    0.42251E-04   -0.20141E-04   784   0.434E-04   0.182E-04
DMP:  52    -0.211571052127E+02   -0.72738E-04   -0.16248E-04   784   0.301E-04   0.274E-04
DMP:  53    -0.211570631299E+02    0.42083E-04   -0.15854E-04   784   0.290E-04   0.277E-04
DMP:  54    -0.211571300979E+02   -0.66968E-04   -0.15746E-04   784   0.299E-04   0.247E-04
DMP:  55    -0.211570898251E+02    0.40273E-04   -0.15602E-04   784   0.309E-04   0.213E-04
DMP:  56    -0.211571523477E+02   -0.62523E-04   -0.14836E-04   784   0.294E-04   0.201E-04
DMP:  57    -0.211571140618E+02    0.38286E-04   -0.14792E-04   784   0.301E-04   0.179E-04
DMP:  58    -0.211571727756E+02   -0.58714E-04   -0.14656E-04   784   0.304E-04   0.163E-04
DMP:  59    -0.211571356778E+02    0.37098E-04   -0.15545E-04   784   0.344E-04   0.117E-04
DMP:  60    -0.211571905853E+02   -0.54908E-04   -0.15276E-04   784   0.345E-04   0.953E-05
DMP:  61    -0.211571557958E+02    0.34790E-04   -0.15609E-04   784   0.368E-04   0.573E-05
DMP:  62    -0.211572067603E+02   -0.50965E-04   -0.14326E-04   784   0.334E-04   0.631E-05
DMP:  63    -0.211571747628E+02    0.31997E-04   -0.13922E-04   784   0.330E-04   0.472E-05
DMP:  64    -0.211572213062E+02   -0.46543E-04   -0.12149E-04   784   0.277E-04   0.699E-05
DMP:  65    -0.211571926890E+02    0.28617E-04   -0.11324E-04   784   0.257E-04   0.673E-05
DMP:  66    -0.211572340466E+02   -0.41358E-04   -0.95244E-05   784   0.203E-04   0.927E-05
DMP:  67    -0.211572093053E+02    0.24741E-04   -0.85400E-05   784   0.176E-04   0.990E-05
DMP:  68    -0.211572450461E+02   -0.35741E-04   -0.72590E-05   784   0.137E-04   0.116E-04
DMP:  69    -0.211572242595E+02    0.20787E-04   -0.66183E-05   784   0.121E-04   0.116E-04
DMP:  70    -0.211572544096E+02   -0.30150E-04   -0.58548E-05   784   0.101E-04   0.119E-04
DMP:  71    -0.211572373845E+02    0.17025E-04   -0.54336E-05   784   0.923E-05   0.114E-04
DMP:  72    -0.211572626603E+02   -0.25276E-04   -0.50026E-05   784   0.825E-05   0.111E-04
DMP:  73    -0.211572485232E+02    0.14137E-04   -0.47903E-05   784   0.802E-05   0.104E-04
DMP:  74    -0.211572702936E+02   -0.21770E-04   -0.47437E-05   784   0.824E-05   0.947E-05
DMP:  75    -0.211572577479E+02    0.12546E-04   -0.48559E-05   784   0.899E-05   0.825E-05
DMP:  76    -0.211572772654E+02   -0.19517E-04   -0.55620E-05   784   0.116E-04   0.596E-05
DMP:  77    -0.211572652861E+02    0.11979E-04   -0.63170E-05   784   0.145E-04   0.333E-05
DMP:  78    -0.211572831614E+02   -0.17875E-04   -0.75147E-05   784   0.191E-04  -0.865E-06
DMP:  79    -0.211572719576E+02    0.11204E-04   -0.73421E-05   784   0.193E-04  -0.260E-05
DMP:  80    -0.211572888248E+02   -0.16867E-04   -0.65096E-05   784   0.174E-04  -0.297E-05
DMP:  81    -0.211572790543E+02    0.97705E-05   -0.45813E-05   784   0.111E-04   0.100E-05
DMP:  82    -0.211572944514E+02   -0.15397E-04   -0.35898E-05   784   0.771E-05   0.330E-05
DMP:  83    -0.211572853907E+02    0.90607E-05   -0.28083E-05   784   0.503E-05   0.522E-05
DMP:  84    -0.211572991644E+02   -0.13774E-04   -0.25271E-05   784   0.417E-05   0.563E-05
DMP:  85    -0.211572906278E+02    0.85366E-05   -0.23505E-05   784   0.371E-05   0.568E-05
DMP:  86    -0.211573035660E+02   -0.12938E-04   -0.22351E-05   784   0.351E-05   0.543E-05
DMP:  87    -0.211572946827E+02    0.88833E-05   -0.21680E-05   784   0.345E-05   0.516E-05
DMP:  88    -0.211573084531E+02   -0.13770E-04   -0.20541E-05   784   0.324E-05   0.497E-05
DMP:  89    -0.211572975680E+02    0.10885E-04   -0.19834E-05   784   0.317E-05   0.467E-05
DMP:  90    -0.211573133171E+02   -0.15749E-04   -0.18702E-05   784   0.297E-05   0.447E-05
DMP:  91    -0.211573001085E+02    0.13209E-04   -0.18005E-05   784   0.291E-05   0.418E-05
DMP:  92    -0.211573176307E+02   -0.17522E-04   -0.17017E-05   784   0.274E-05   0.397E-05
DMP:  93    -0.211573024596E+02    0.15171E-04   -0.16470E-05   784   0.271E-05   0.369E-05
DMP:  94    -0.211573214511E+02   -0.18992E-04   -0.15802E-05   784   0.263E-05   0.347E-05
DMP:  95    -0.211573045310E+02    0.16920E-04   -0.16155E-05   784   0.285E-05   0.311E-05
DMP:  96    -0.211573249172E+02   -0.20386E-04   -0.18978E-05   784   0.379E-05   0.250E-05
DMP:  97    -0.211573059422E+02    0.18975E-04   -0.32607E-05   784   0.802E-05   0.333E-06
DMP:  98    -0.211573271305E+02   -0.21188E-04   -0.68338E-05   784   0.193E-04  -0.569E-05
DMP:  99    -0.211573052470E+02    0.21883E-04   -0.13486E-04   784   0.412E-04  -0.195E-04
DMP: 100    -0.211573265730E+02   -0.21326E-04   -0.18910E-04   784   0.612E-04  -0.364E-04
   1 F= -.21157327E+02 E0= -.21149730E+02  d E =-.211573E+02
       N       E                     dE             d eps       ncg     rms           ort
SDA:   1    -0.197422431950E+02    0.14151E+01   -0.35477E+01   784   0.887E+01   0.000E+00
DMP:   2    -0.208841260793E+02   -0.11419E+01   -0.21389E+00   784   0.176E+01  -0.320E+01
DMP:   3    -0.209814974271E+02   -0.97371E-01   -0.42975E+00   784   0.109E+01  -0.492E-01
DMP:   4    -0.211529349935E+02   -0.17144E+00   -0.39178E-01   784   0.181E+00  -0.216E+00
DMP:   5    -0.211628072676E+02   -0.98723E-02   -0.67130E-01   784   0.186E+00  -0.488E-01
DMP:   6    -0.211876051020E+02   -0.24798E-01   -0.66356E-02   784   0.332E-01  -0.435E-01
DMP:   7    -0.211900174853E+02   -0.24124E-02   -0.91668E-02   784   0.246E-01  -0.439E-02
DMP:   8    -0.211942231764E+02   -0.42057E-02   -0.11895E-02   784   0.376E-02  -0.206E-02
DMP:   9    -0.211946097765E+02   -0.38660E-03   -0.14881E-02   784   0.414E-02  -0.109E-02
DMP:  10    -0.211952977877E+02   -0.68801E-03   -0.27043E-03   784   0.750E-03  -0.193E-03
DMP:  11    -0.211954192730E+02   -0.12149E-03   -0.26286E-03   784   0.671E-03  -0.361E-04
DMP:  12    -0.211955891868E+02   -0.16991E-03   -0.93739E-04   784   0.164E-03   0.183E-03
DMP:  13    -0.211956529339E+02   -0.63747E-04   -0.68339E-04   784   0.142E-03   0.752E-04
DMP:  14    -0.211957029209E+02   -0.49987E-04   -0.37992E-04   784   0.602E-04   0.911E-04
DMP:  15    -0.211957305851E+02   -0.27664E-04   -0.23713E-04   784   0.397E-04   0.513E-04
DMP:  16    -0.211957498747E+02   -0.19290E-04   -0.14927E-04   784   0.218E-04   0.406E-04
DMP:  17    -0.211957624656E+02   -0.12591E-04   -0.90379E-05   784   0.131E-04   0.247E-04
DMP:  18    -0.211957694723E+02   -0.70068E-05   -0.55768E-05   784   0.793E-05   0.157E-04
DMP:  19    -0.211957741275E+02   -0.46552E-05   -0.33216E-05   784   0.469E-05   0.945E-05
DMP:  20    -0.211957763970E+02   -0.22696E-05   -0.20037E-05   784   0.285E-05   0.567E-05
DMP:  21    -0.211957786310E+02   -0.22339E-05   -0.12192E-05   784   0.178E-05   0.331E-05
DMP:  22    -0.211957787693E+02   -0.13836E-06   -0.79844E-06   784   0.130E-05   0.181E-05
DMP:  23    -0.211957806886E+02   -0.19192E-05   -0.62030E-06   784   0.124E-05   0.825E-06
DMP:  24    -0.211957788152E+02    0.18733E-05   -0.72529E-06   784   0.187E-05  -0.145E-06
DMP:  25    -0.211957826284E+02   -0.38131E-05   -0.11176E-05   784   0.326E-05  -0.123E-05
DMP:  26    -0.211957762432E+02    0.63852E-05   -0.22998E-05   784   0.713E-05  -0.361E-05
DMP:  27    -0.211957871030E+02   -0.10860E-04   -0.41709E-05   784   0.132E-04  -0.733E-05
DMP:  28    -0.211957654943E+02    0.21609E-04   -0.72089E-05   784   0.235E-04  -0.143E-04
DMP:  29    -0.211958039116E+02   -0.38417E-04   -0.97217E-05   784   0.322E-04  -0.208E-04
DMP:  30    -0.211957300119E+02    0.73900E-04   -0.14067E-04   784   0.463E-04  -0.291E-04
DMP:  31    -0.211958597833E+02   -0.12977E-03   -0.27892E-04   784   0.873E-04  -0.460E-04
DMP:  32    -0.211956118020E+02    0.24798E-03   -0.75266E-04   784   0.232E-03  -0.114E-03
DMP:  33    -0.211959870550E+02   -0.37525E-03   -0.20572E-03   784   0.634E-03  -0.313E-03
DMP:  34    -0.211952187971E+02    0.76826E-03   -0.53060E-03   784   0.165E-02  -0.838E-03
DMP:  35    -0.211961234475E+02   -0.90465E-03   -0.12925E-02   784   0.403E-02  -0.208E-02
DMP:  36    -0.211938939041E+02    0.22295E-02   -0.30679E-02   784   0.958E-02  -0.501E-02
DMP:  37    -0.211955217570E+02   -0.16279E-02   -0.70323E-02   784   0.220E-01  -0.117E-01
DMP:  38    -0.211890660312E+02    0.64557E-02   -0.15620E-01   784   0.491E-01  -0.263E-01
DMP:  39    -0.211901507662E+02   -0.10847E-02   -0.33722E-01   784   0.106E+00  -0.577E-01
DMP:  40    -0.211708705335E+02    0.19280E-01   -0.70906E-01   784   0.224E+00  -0.123E+00
DMP:  41    -0.211625596746E+02    0.83109E-02   -0.14668E+00   784   0.465E+00  -0.256E+00
DMP:  42    -0.211024734078E+02    0.60086E-01   -0.29367E+00   784   0.932E+00  -0.518E+00
DMP:  43    -0.210462021396E+02    0.56271E-01   -0.58198E+00   784   0.185E+01  -0.104E+01
DMP:  44    -0.208606741157E+02    0.18553E+00   -0.10972E+01   784   0.350E+01  -0.199E+01
DMP:  45    -0.206270375219E+02    0.23364E+00   -0.20515E+01   784   0.658E+01  -0.379E+01
DMP:  46    -0.201202264691E+02    0.50681E+00   -0.35051E+01   784   0.113E+02  -0.661E+01
DMP:  47    -0.194416630614E+02    0.67856E+00   -0.58806E+01   784   0.191E+02  -0.115E+02
DMP:  48    -0.184773327192E+02    0.96433E+00   -0.85316E+01   784   0.279E+02  -0.173E+02
DMP:  49    -0.173208761317E+02    0.11565E+01   -0.11991E+02   784   0.398E+02  -0.257E+02
DMP:  50    -0.164603309512E+02    0.86055E+00   -0.14236E+02   784   0.478E+02  -0.320E+02
DMP:  51    -0.156014395573E+02    0.85889E+00   -0.16004E+02   784   0.546E+02  -0.381E+02
DMP:  52    -0.157402420346E+02   -0.13880E+00   -0.15861E+02   784   0.547E+02  -0.393E+02
DMP:  53    -0.156574771593E+02    0.82765E-01   -0.15056E+02   784   0.524E+02  -0.386E+02
DMP:  54    -0.164531031167E+02   -0.79563E+00   -0.13584E+02   784   0.475E+02  -0.355E+02
DMP:  55    -0.166559520597E+02   -0.20285E+00   -0.12301E+02   784   0.430E+02  -0.321E+02
DMP:  56    -0.172861930833E+02   -0.63024E+00   -0.11268E+02   784   0.394E+02  -0.293E+02
DMP:  57    -0.173623917022E+02   -0.76199E-01   -0.10557E+02   784   0.367E+02  -0.271E+02
DMP:  58    -0.177585551896E+02   -0.39616E+00   -0.99867E+01   784   0.347E+02  -0.254E+02
DMP:  59    -0.177367227786E+02    0.21832E-01   -0.96814E+01   784   0.335E+02  -0.245E+02
DMP:  60    -0.180140982354E+02   -0.27738E+00   -0.92316E+01   784   0.320E+02  -0.233E+02
DMP:  61    -0.179921020701E+02    0.21996E-01   -0.90249E+01   784   0.313E+02  -0.228E+02
DMP:  62    -0.182439258753E+02   -0.25182E+00   -0.85587E+01   784   0.296E+02  -0.216E+02
DMP:  63    -0.182091155816E+02    0.34810E-01   -0.84807E+01   784   0.293E+02  -0.213E+02
DMP:  64    -0.184029365955E+02   -0.19382E+00   -0.80708E+01   784   0.279E+02  -0.203E+02
DMP:  65    -0.183707674827E+02    0.32169E-01   -0.80683E+01   784   0.279E+02  -0.202E+02
DMP:  66    -0.185298858306E+02   -0.15912E+00   -0.76979E+01   784   0.266E+02  -0.193E+02
DMP:  67    -0.184865119403E+02    0.43374E-01   -0.77737E+01   784   0.269E+02  -0.194E+02
DMP:  68    -0.186162567939E+02   -0.12974E+00   -0.74494E+01   784   0.257E+02  -0.186E+02
DMP:  69    -0.185615527600E+02    0.54704E-01   -0.75909E+01   784   0.262E+02  -0.189E+02
DMP:  70    -0.186641446363E+02   -0.10259E+00   -0.73205E+01   784   0.253E+02  -0.182E+02
DMP:  71    -0.185936266310E+02    0.70518E-01   -0.75238E+01   784   0.260E+02  -0.187E+02
DMP:  72    -0.186739778578E+02   -0.80351E-01   -0.73044E+01   784   0.252E+02  -0.181E+02
DMP:  73    -0.185878397036E+02    0.86138E-01   -0.75590E+01   784   0.260E+02  -0.187E+02
DMP:  74    -0.186520360647E+02   -0.64196E-01   -0.73792E+01   784   0.254E+02  -0.182E+02
DMP:  75    -0.185540122459E+02    0.98024E-01   -0.76649E+01   784   0.264E+02  -0.190E+02
DMP:  76    -0.186127445723E+02   -0.58732E-01   -0.75013E+01   784   0.258E+02  -0.185E+02
DMP:  77    -0.185084554346E+02    0.10429E+00   -0.77994E+01   784   0.269E+02  -0.193E+02
DMP:  78    -0.185670813895E+02   -0.58626E-01   -0.76394E+01   784   0.263E+02  -0.189E+02
DMP:  79    -0.184614774554E+02    0.10560E+00   -0.79310E+01   784   0.273E+02  -0.196E+02
DMP:  80    -0.185265446047E+02   -0.65067E-01   -0.77618E+01   784   0.267E+02  -0.192E+02
DMP:  81    -0.184206573038E+02    0.10589E+00   -0.80474E+01   784   0.277E+02  -0.199E+02
DMP:  82    -0.184881803503E+02   -0.67523E-01   -0.78780E+01   784   0.271E+02  -0.195E+02
DMP:  83    -0.183832486391E+02    0.10493E+00   -0.81466E+01   784   0.281E+02  -0.202E+02
DMP:  84    -0.184612288370E+02   -0.77980E-01   -0.79549E+01   784   0.274E+02  -0.197E+02
DMP:  85    -0.183618980626E+02    0.99331E-01   -0.82024E+01   784   0.283E+02  -0.203E+02
DMP:  86    -0.184456824590E+02   -0.83784E-01   -0.80015E+01   784   0.276E+02  -0.198E+02
DMP:  87    -0.183486682096E+02    0.97014E-01   -0.82375E+01   784   0.284E+02  -0.204E+02
DMP:  88    -0.184364590144E+02   -0.87791E-01   -0.80274E+01   784   0.277E+02  -0.199E+02
DMP:  89    -0.183433615727E+02    0.93097E-01   -0.82460E+01   784   0.284E+02  -0.205E+02
DMP:  90    -0.184384274189E+02   -0.95066E-01   -0.80203E+01   784   0.277E+02  -0.199E+02
DMP:  91    -0.183486946597E+02    0.89733E-01   -0.82322E+01   784   0.284E+02  -0.204E+02
DMP:  92    -0.184425063953E+02   -0.93812E-01   -0.80109E+01   784   0.276E+02  -0.199E+02
DMP:  93    -0.183487091329E+02    0.93797E-01   -0.82382E+01   784   0.284E+02  -0.204E+02
DMP:  94    -0.184362234082E+02   -0.87514E-01   -0.80342E+01   784   0.277E+02  -0.199E+02
DMP:  95    -0.183374088391E+02    0.98815E-01   -0.82738E+01   784   0.285E+02  -0.205E+02
DMP:  96    -0.184223903908E+02   -0.84982E-01   -0.80751E+01   784   0.278E+02  -0.200E+02
DMP:  97    -0.183231933068E+02    0.99197E-01   -0.83125E+01   784   0.287E+02  -0.206E+02
DMP:  98    -0.184120058143E+02   -0.88813E-01   -0.81057E+01   784   0.279E+02  -0.201E+02
DMP:  99    -0.183156419242E+02    0.96364E-01   -0.83292E+01   784   0.287E+02  -0.207E+02
DMP: 100    -0.184106137632E+02   -0.94972E-01   -0.81058E+01   784   0.279E+02  -0.201E+02
   2 F= -.18410614E+02 E0= -.18403464E+02  d E =0.274671E+01
       N       E                     dE             d eps       ncg     rms           ort
SDA:   1     0.804035164879E+02    0.98719E+02   -0.11948E+03   784   0.299E+03   0.000E+00
DMP:   2     0.633199535873E+02   -0.17084E+02   -0.17693E+03   784   0.716E+03  -0.717E+03
DMP:   3    -0.558610299324E+01   -0.68906E+02   -0.21590E+02   784   0.110E+03  -0.147E+03
DMP:   4    -0.187573538175E+02   -0.13171E+02   -0.17211E+01   784   0.562E+01  -0.345E+01
DMP:   5    -0.189022467905E+02   -0.14489E+00   -0.42299E+01   784   0.113E+02  -0.185E+01
DMP:   6    -0.191903915056E+02   -0.28814E+00   -0.44432E+01   784   0.147E+02  -0.953E+01
DMP:   7    -0.197384396755E+02   -0.54805E+00   -0.28304E+01   784   0.103E+02  -0.837E+01
DMP:   8    -0.205769972313E+02   -0.83856E+00   -0.12382E+01   784   0.470E+01  -0.420E+01
DMP:   9    -0.209038547327E+02   -0.32686E+00   -0.52296E+00   784   0.196E+01  -0.170E+01
DMP:  10    -0.210704198289E+02   -0.16657E+00   -0.20240E+00   784   0.758E+00  -0.660E+00
DMP:  11    -0.211387651217E+02   -0.68345E-01   -0.97623E-01   784   0.340E+00  -0.251E+00
DMP:  12    -0.211601757318E+02   -0.21411E-01   -0.51205E-01   784   0.176E+00  -0.125E+00
DMP:  13    -0.211786977579E+02   -0.18522E-01   -0.36965E-01   784   0.122E+00  -0.768E-01
DMP:  14    -0.211768533397E+02    0.18444E-02   -0.32261E-01   784   0.107E+00  -0.699E-01
DMP:  15    -0.211851994862E+02   -0.83461E-02   -0.35021E-01   784   0.116E+00  -0.740E-01
DMP:  16    -0.211759925506E+02    0.92069E-02   -0.42158E-01   784   0.140E+00  -0.906E-01
DMP:  17    -0.211816091124E+02   -0.56166E-02   -0.56450E-01   784   0.186E+00  -0.118E+00
DMP:  18    -0.211640971120E+02    0.17512E-01   -0.79156E-01   784   0.261E+00  -0.164E+00
DMP:  19    -0.211661999566E+02   -0.21028E-02   -0.11750E+00   784   0.385E+00  -0.240E+00
DMP:  20    -0.211322465175E+02    0.33953E-01   -0.17657E+00   784   0.578E+00  -0.357E+00
DMP:  21    -0.211229547217E+02    0.92918E-02   -0.27755E+00   784   0.905E+00  -0.553E+00
DMP:  22    -0.210502659020E+02    0.72689E-01   -0.43485E+00   784   0.142E+01  -0.859E+00
DMP:  23    -0.210018999389E+02    0.48366E-01   -0.70763E+00   784   0.230E+01  -0.139E+01
DMP:  24    -0.208363210003E+02    0.16558E+00   -0.11184E+01   784   0.363E+01  -0.219E+01
DMP:  25    -0.206755160429E+02    0.16080E+00   -0.18198E+01   784   0.592E+01  -0.359E+01
DMP:  26    -0.203129245249E+02    0.36259E+00   -0.27753E+01   784   0.904E+01  -0.551E+01
DMP:  27    -0.199032714418E+02    0.40965E+00   -0.43021E+01   784   0.141E+02  -0.873E+01
DMP:  28    -0.192601995046E+02    0.64307E+00   -0.59855E+01   784   0.197E+02  -0.124E+02
DMP:  29    -0.185381790497E+02    0.72202E+00   -0.83332E+01   784   0.277E+02  -0.179E+02
DMP:  30    -0.178325975863E+02    0.70558E+00   -0.10101E+02   784   0.338E+02  -0.223E+02
DMP:  31    -0.170786908314E+02    0.75391E+00   -0.12219E+02   784   0.413E+02  -0.282E+02
DMP:  32    -0.167962429075E+02    0.28245E+00   -0.12854E+02   784   0.438E+02  -0.305E+02
DMP:  33    -0.164094903060E+02    0.38675E+00   -0.13604E+02   784   0.468E+02  -0.336E+02
DMP:  34    -0.167079764136E+02   -0.29849E+00   -0.12967E+02   784   0.449E+02  -0.326E+02
DMP:  35    -0.166793960894E+02    0.28580E-01   -0.12572E+02   784   0.437E+02  -0.321E+02
DMP:  36    -0.171648752576E+02   -0.48548E+00   -0.11631E+02   784   0.405E+02  -0.298E+02
DMP:  37    -0.172110081004E+02   -0.46133E-01   -0.11133E+02   784   0.387E+02  -0.285E+02
DMP:  38    -0.175666239720E+02   -0.35562E+00   -0.10599E+02   784   0.367E+02  -0.268E+02
DMP:  39    -0.174981441946E+02    0.68480E-01   -0.10444E+02   784   0.361E+02  -0.263E+02
DMP:  40    -0.177405090706E+02   -0.24236E+00   -0.10122E+02   784   0.350E+02  -0.254E+02
DMP:  41    -0.176430583940E+02    0.97451E-01   -0.10104E+02   784   0.349E+02  -0.253E+02
DMP:  42    -0.178322110573E+02   -0.18915E+00   -0.98781E+01   784   0.341E+02  -0.246E+02
DMP:  43    -0.177169842449E+02    0.11523E+00   -0.99245E+01   784   0.343E+02  -0.247E+02
DMP:  44    -0.178994366595E+02   -0.18245E+00   -0.96132E+01   784   0.332E+02  -0.240E+02
DMP:  45    -0.178428456057E+02    0.56591E-01   -0.95824E+01   784   0.331E+02  -0.240E+02
DMP:  46    -0.180212580069E+02   -0.17841E+00   -0.92583E+01   784   0.320E+02  -0.231E+02
DMP:  47    -0.179561824703E+02    0.65076E-01   -0.92638E+01   784   0.320E+02  -0.232E+02
DMP:  48    -0.181253781615E+02   -0.16920E+00   -0.89451E+01   784   0.309E+02  -0.223E+02
DMP:  49    -0.180568387826E+02    0.68539E-01   -0.90095E+01   784   0.311E+02  -0.225E+02
DMP:  50    -0.181968907915E+02   -0.14005E+00   -0.87408E+01   784   0.302E+02  -0.218E+02
DMP:  51    -0.181150009747E+02    0.81890E-01   -0.88445E+01   784   0.305E+02  -0.220E+02
DMP:  52    -0.182461758010E+02   -0.13117E+00   -0.85999E+01   784   0.297E+02  -0.214E+02
DMP:  53    -0.181531546741E+02    0.93021E-01   -0.87683E+01   784   0.302E+02  -0.218E+02
DMP:  54    -0.182589081221E+02   -0.10575E+00   -0.85604E+01   784   0.295E+02  -0.212E+02
DMP:  55    -0.181638887304E+02    0.95019E-01   -0.87412E+01   784   0.302E+02  -0.217E+02
DMP:  56    -0.182731273763E+02   -0.10924E+00   -0.85241E+01   784   0.294E+02  -0.211E+02
DMP:  57    -0.181736251916E+02    0.99502E-01   -0.87318E+01   784   0.301E+02  -0.217E+02
DMP:  58    -0.182708466566E+02   -0.97221E-01   -0.85335E+01   784   0.294E+02  -0.211E+02
DMP:  59    -0.181710943037E+02    0.99752E-01   -0.87377E+01   784   0.301E+02  -0.217E+02
DMP:  60    -0.182732661326E+02   -0.10217E+00   -0.85360E+01   784   0.294E+02  -0.212E+02
DMP:  61    -0.181666870879E+02    0.10658E+00   -0.87626E+01   784   0.302E+02  -0.217E+02
DMP:  62    -0.182594940909E+02   -0.92807E-01   -0.85755E+01   784   0.296E+02  -0.212E+02
DMP:  63    -0.181568300333E+02    0.10266E+00   -0.87823E+01   784   0.303E+02  -0.218E+02
DMP:  64    -0.182601026220E+02   -0.10327E+00   -0.85766E+01   784   0.296E+02  -0.213E+02
DMP:  65    -0.181574766019E+02    0.10263E+00   -0.87856E+01   784   0.303E+02  -0.218E+02
DMP:  66    -0.182565703528E+02   -0.99094E-01   -0.85807E+01   784   0.296E+02  -0.213E+02
DMP:  67    -0.181619525448E+02    0.94618E-01   -0.87631E+01   784   0.302E+02  -0.218E+02
DMP:  68    -0.182697865412E+02   -0.10783E+00   -0.85483E+01   784   0.295E+02  -0.212E+02
DMP:  69    -0.181682412943E+02    0.10155E+00   -0.87563E+01   784   0.302E+02  -0.217E+02
DMP:  70    -0.182643795196E+02   -0.96138E-01   -0.85619E+01   784   0.295E+02  -0.212E+02
DMP:  71    -0.181652178603E+02    0.99162E-01   -0.87589E+01   784   0.302E+02  -0.218E+02
DMP:  72    -0.182680966160E+02   -0.10288E+00   -0.85557E+01   784   0.295E+02  -0.212E+02
DMP:  73    -0.181639152828E+02    0.10418E+00   -0.87715E+01   784   0.302E+02  -0.218E+02
DMP:  74    -0.182589825927E+02   -0.95067E-01   -0.85771E+01   784   0.296E+02  -0.213E+02
DMP:  75    -0.181613458461E+02    0.97637E-01   -0.87705E+01   784   0.302E+02  -0.218E+02
DMP:  76    -0.182654794163E+02   -0.10413E+00   -0.85612E+01   784   0.295E+02  -0.212E+02
DMP:  77    -0.181647360502E+02    0.10074E+00   -0.87671E+01   784   0.302E+02  -0.218E+02
DMP:  78    -0.182615413527E+02   -0.96805E-01   -0.85710E+01   784   0.295E+02  -0.212E+02
DMP:  79    -0.181628627290E+02    0.98679E-01   -0.87666E+01   784   0.302E+02  -0.218E+02
DMP:  80    -0.182652238921E+02   -0.10236E+00   -0.85649E+01   784   0.295E+02  -0.212E+02
DMP:  81    -0.181609940757E+02    0.10423E+00   -0.87794E+01   784   0.303E+02  -0.218E+02
DMP:  82    -0.182557089729E+02   -0.94715E-01   -0.85904E+01   784   0.296E+02  -0.213E+02
DMP:  83    -0.181556873274E+02    0.10002E+00   -0.87861E+01   784   0.303E+02  -0.218E+02
DMP:  84    -0.182601153128E+02   -0.10443E+00   -0.85771E+01   784   0.296E+02  -0.213E+02
DMP:  85    -0.181606966712E+02    0.99419E-01   -0.87771E+01   784   0.303E+02  -0.218E+02
DMP:  86    -0.182600656996E+02   -0.99369E-01   -0.85738E+01   784   0.296E+02  -0.213E+02
DMP:  87    -0.181648914653E+02    0.95174E-01   -0.87597E+01   784   0.302E+02  -0.218E+02
DMP:  88    -0.182689465123E+02   -0.10406E+00   -0.85538E+01   784   0.295E+02  -0.212E+02
DMP:  89    -0.181646420586E+02    0.10430E+00   -0.87733E+01   784   0.302E+02  -0.218E+02
DMP:  90    -0.182553017167E+02   -0.90660E-01   -0.85952E+01   784   0.296E+02  -0.213E+02
DMP:  91    -0.181504905356E+02    0.10481E+00   -0.88067E+01   784   0.304E+02  -0.218E+02
DMP:  92    -0.182488581557E+02   -0.98368E-01   -0.86174E+01   784   0.297E+02  -0.213E+02
DMP:  93    -0.181403093855E+02    0.10855E+00   -0.88429E+01   784   0.305E+02  -0.219E+02
DMP:  94    -0.182334090300E+02   -0.93100E-01   -0.86571E+01   784   0.298E+02  -0.215E+02
DMP:  95    -0.181342178196E+02    0.99191E-01   -0.88469E+01   784   0.305E+02  -0.220E+02
DMP:  96    -0.182405421922E+02   -0.10632E+00   -0.86388E+01   784   0.298E+02  -0.214E+02
DMP:  97    -0.181371756902E+02    0.10337E+00   -0.88503E+01   784   0.305E+02  -0.220E+02
DMP:  98    -0.182315727834E+02   -0.94397E-01   -0.86671E+01   784   0.299E+02  -0.215E+02
DMP:  99    -0.181269099671E+02    0.10466E+00   -0.88738E+01   784   0.306E+02  -0.220E+02
DMP: 100    -0.182270984790E+02   -0.10019E+00   -0.86823E+01   784   0.299E+02  -0.215E+02
   3 F= -.18227098E+02 E0= -.18219680E+02  d E =0.293023E+01
       N       E                     dE             d eps       ncg     rms           ort
SDA:   1     0.773169444380E+02    0.95444E+02   -0.11350E+03   784   0.284E+03   0.000E+00
DMP:   2     0.445312213555E+02   -0.32786E+02   -0.12159E+03   784   0.527E+03  -0.584E+03
DMP:   3    -0.144416864887E+02   -0.58973E+02   -0.55085E+01   784   0.419E+02  -0.736E+02
DMP:   4    -0.187239546439E+02   -0.42823E+01   -0.48789E+01   784   0.104E+02   0.471E+01
DMP:   5    -0.174451166351E+02    0.12788E+01   -0.76937E+01   784   0.249E+02  -0.148E+02
DMP:   6    -0.191220647534E+02   -0.16769E+01   -0.40799E+01   784   0.155E+02  -0.138E+02
DMP:   7    -0.204356443021E+02   -0.13136E+01   -0.10450E+01   784   0.442E+01  -0.472E+01
DMP:   8    -0.210147344627E+02   -0.57909E+00   -0.10822E+00   784   0.432E+00  -0.423E+00
DMP:   9    -0.211024629689E+02   -0.87729E-01   -0.63345E-01   784   0.108E+00   0.133E+00
DMP:  10    -0.211195101796E+02   -0.17047E-01   -0.85553E-01   784   0.237E+00  -0.606E-01
DMP:  11    -0.211372153435E+02   -0.17705E-01   -0.56136E-01   784   0.182E+00  -0.108E+00
DMP:  12    -0.211617828669E+02   -0.24568E-01   -0.28384E-01   784   0.930E-01  -0.578E-01
DMP:  13    -0.211690144988E+02   -0.72316E-02   -0.11955E-01   784   0.383E-01  -0.220E-01
DMP:  14    -0.211772677007E+02   -0.82532E-02   -0.51536E-02   784   0.149E-01  -0.517E-02
DMP:  15    -0.211782881175E+02   -0.10204E-02   -0.22945E-02   784   0.592E-02  -0.491E-03
DMP:  16    -0.211806720861E+02   -0.23840E-02   -0.11080E-02   784   0.253E-02   0.640E-03
DMP:  17    -0.211807159531E+02   -0.43867E-04   -0.58488E-03   784   0.123E-02   0.609E-03
DMP:  18    -0.211815566008E+02   -0.84065E-03   -0.34044E-03   784   0.687E-03   0.429E-03
DMP:  19    -0.211814406440E+02    0.11596E-03   -0.21520E-03   784   0.438E-03   0.262E-03
DMP:  20    -0.211818685341E+02   -0.42789E-03   -0.15265E-03   784   0.322E-03   0.155E-03
DMP:  21    -0.211817009261E+02    0.16761E-03   -0.11253E-03   784   0.252E-03   0.776E-04
DMP:  22    -0.211820103476E+02   -0.30942E-03   -0.91441E-04   784   0.215E-03   0.343E-04
DMP:  23    -0.211818210913E+02    0.18926E-03   -0.71592E-04   784   0.178E-03   0.306E-05
DMP:  24    -0.211820761533E+02   -0.25506E-03   -0.59920E-04   784   0.153E-03  -0.736E-05
DMP:  25    -0.211819037168E+02    0.17244E-03   -0.49209E-04   784   0.129E-03  -0.168E-04
DMP:  26    -0.211820948842E+02   -0.19117E-03   -0.44009E-04   784   0.118E-03  -0.214E-04
DMP:  27    -0.211819724662E+02    0.12242E-03   -0.38937E-04   784   0.108E-03  -0.292E-04
DMP:  28    -0.211820928621E+02   -0.12040E-03   -0.34129E-04   784   0.959E-04  -0.276E-04
DMP:  29    -0.211820253097E+02    0.67552E-04   -0.35878E-04   784   0.102E-03  -0.335E-04
DMP:  30    -0.211820874125E+02   -0.62103E-04   -0.42174E-04   784   0.125E-03  -0.513E-04
DMP:  31    -0.211820562663E+02    0.31146E-04   -0.45417E-04   784   0.142E-03  -0.740E-04
DMP:  32    -0.211820893243E+02   -0.33058E-04   -0.40916E-04   784   0.130E-03  -0.726E-04
DMP:  33    -0.211820789735E+02    0.10351E-04   -0.40819E-04   784   0.128E-03  -0.682E-04
DMP:  34    -0.211820946468E+02   -0.15673E-04   -0.49069E-04   784   0.154E-03  -0.823E-04
DMP:  35    -0.211820889179E+02    0.57289E-05   -0.53911E-04   784   0.175E-03  -0.105E-03
DMP:  36    -0.211821010546E+02   -0.12137E-04   -0.52540E-04   784   0.173E-03  -0.110E-03
DMP:  37    -0.211820995565E+02    0.14981E-05   -0.53442E-04   784   0.175E-03  -0.107E-03
DMP:  38    -0.211821075582E+02   -0.80017E-05   -0.56146E-04   784   0.186E-03  -0.120E-03
DMP:  39    -0.211821089693E+02   -0.14111E-05   -0.43527E-04   784   0.150E-03  -0.109E-03
DMP:  40    -0.211821218775E+02   -0.12908E-04   -0.21105E-04   784   0.774E-04  -0.645E-04
DMP:  41    -0.211821266367E+02   -0.47593E-05   -0.59517E-05   784   0.185E-04  -0.952E-05
DMP:  42    -0.211821339394E+02   -0.73026E-05   -0.41051E-05   784   0.832E-05   0.508E-05
DMP:  43    -0.211821333599E+02    0.57947E-06   -0.45704E-05   784   0.995E-05   0.387E-05
DMP:  44    -0.211821393941E+02   -0.60342E-05   -0.42008E-05   784   0.930E-05   0.314E-05
DMP:  45    -0.211821387447E+02    0.64939E-06   -0.39255E-05   784   0.874E-05   0.282E-05
DMP:  46    -0.211821444940E+02   -0.57492E-05   -0.34644E-05   784   0.741E-05   0.329E-05
DMP:  47    -0.211821433612E+02    0.11328E-05   -0.33918E-05   784   0.743E-05   0.276E-05
DMP:  48    -0.211821490382E+02   -0.56770E-05   -0.31068E-05   784   0.672E-05   0.274E-05
DMP:  49    -0.211821470958E+02    0.19424E-05   -0.30813E-05   784   0.691E-05   0.209E-05
DMP:  50    -0.211821531865E+02   -0.60906E-05   -0.27779E-05   784   0.612E-05   0.216E-05
DMP:  51    -0.211821502192E+02    0.29672E-05   -0.27217E-05   784   0.617E-05   0.165E-05
DMP:  52    -0.211821569191E+02   -0.66999E-05   -0.24300E-05   784   0.539E-05   0.180E-05
DMP:  53    -0.211821528036E+02    0.41155E-05   -0.23489E-05   784   0.532E-05   0.145E-05
DMP:  54    -0.211821603590E+02   -0.75553E-05   -0.21138E-05   784   0.468E-05   0.157E-05
DMP:  55    -0.211821547383E+02    0.56207E-05   -0.20266E-05   784   0.456E-05   0.133E-05
DMP:  56    -0.211821638290E+02   -0.90907E-05   -0.18442E-05   784   0.408E-05   0.139E-05
DMP:  57    -0.211821557968E+02    0.80322E-05   -0.17193E-05   784   0.380E-05   0.131E-05
DMP:  58    -0.211821676662E+02   -0.11869E-04   -0.15834E-05   784   0.344E-05   0.135E-05
DMP:  59    -0.211821556955E+02    0.11971E-04   -0.15334E-05   784   0.336E-05   0.125E-05
DMP:  60    -0.211821721338E+02   -0.16438E-04   -0.16598E-05   784   0.380E-05   0.912E-06
DMP:  61    -0.211821541813E+02    0.17953E-04   -0.22361E-05   784   0.568E-05  -0.241E-06
DMP:  62    -0.211821769998E+02   -0.22818E-04   -0.33068E-05   784   0.925E-05  -0.258E-05
DMP:  63    -0.211821510000E+02    0.26000E-04   -0.44882E-05   784   0.136E-04  -0.610E-05
DMP:  64    -0.211821822329E+02   -0.31233E-04   -0.46774E-05   784   0.148E-04  -0.806E-05
DMP:  65    -0.211821478705E+02    0.34362E-04   -0.47757E-05   784   0.151E-04  -0.824E-05
DMP:  66    -0.211821871430E+02   -0.39273E-04   -0.73718E-05   784   0.225E-04  -0.108E-04
DMP:  67    -0.211821434874E+02    0.43656E-04   -0.13332E-04   784   0.420E-04  -0.226E-04
DMP:  68    -0.211821882424E+02   -0.44755E-04   -0.17750E-04   784   0.589E-04  -0.381E-04
DMP:  69    -0.211821408823E+02    0.47360E-04   -0.14633E-04   784   0.521E-04  -0.406E-04
DMP:  70    -0.211821925869E+02   -0.51705E-04   -0.72280E-05   784   0.274E-04  -0.245E-04
DMP:  71    -0.211821443279E+02    0.48259E-04   -0.46311E-05   784   0.155E-04  -0.102E-04
DMP:  72    -0.211821936107E+02   -0.49283E-04   -0.62586E-05   784   0.198E-04  -0.109E-04
DMP:  73    -0.211821457803E+02    0.47830E-04   -0.75926E-05   784   0.251E-04  -0.161E-04
DMP:  74    -0.211821915797E+02   -0.45799E-04   -0.73464E-05   784   0.249E-04  -0.170E-04
DMP:  75    -0.211821495609E+02    0.42019E-04   -0.63073E-05   784   0.218E-04  -0.159E-04
DMP:  76    -0.211821895844E+02   -0.40024E-04   -0.44516E-05   784   0.156E-04  -0.118E-04
DMP:  77    -0.211821545050E+02    0.35079E-04   -0.28003E-05   784   0.985E-05  -0.746E-05
DMP:  78    -0.211821875203E+02   -0.33015E-04   -0.16305E-05   784   0.557E-05  -0.390E-05
DMP:  79    -0.211821585697E+02    0.28951E-04   -0.10554E-05   784   0.339E-05  -0.197E-05
DMP:  80    -0.211821854538E+02   -0.26884E-04   -0.77520E-06   784   0.232E-05  -0.991E-06
DMP:  81    -0.211821616514E+02    0.23802E-04   -0.68446E-06   784   0.196E-05  -0.663E-06
DMP:  82    -0.211821836486E+02   -0.21997E-04   -0.71014E-06   784   0.204E-05  -0.702E-06
DMP:  83    -0.211821639282E+02    0.19720E-04   -0.71527E-06   784   0.209E-05  -0.795E-06
DMP:  84    -0.211821823525E+02   -0.18424E-04   -0.71152E-06   784   0.213E-05  -0.923E-06
DMP:  85    -0.211821655726E+02    0.16780E-04   -0.58760E-06   784   0.176E-05  -0.755E-06
DMP:  86    -0.211821816327E+02   -0.16060E-04   -0.46960E-06   784   0.138E-05  -0.543E-06
DMP:  87    -0.211821667284E+02    0.14904E-04   -0.34638E-06   784   0.952E-06  -0.226E-06
DMP:  88    -0.211821812761E+02   -0.14548E-04   -0.29417E-06   784   0.766E-06  -0.812E-07
DMP:  89    -0.211821675368E+02    0.13739E-04   -0.26588E-06   784   0.672E-06  -0.204E-07
DMP:  90    -0.211821810352E+02   -0.13498E-04   -0.25437E-06   784   0.641E-06  -0.134E-07
DMP:  91    -0.211821681540E+02    0.12881E-04   -0.25097E-06   784   0.641E-06  -0.344E-07
DMP:  92    -0.211821808665E+02   -0.12712E-04   -0.25170E-06   784   0.651E-06  -0.566E-07
DMP:  93    -0.211821686801E+02    0.12186E-04   -0.27303E-06   784   0.730E-06  -0.125E-06
DMP:  94    -0.211821806706E+02   -0.11991E-04   -0.29623E-06   784   0.818E-06  -0.202E-06
DMP:  95    -0.211821691949E+02    0.11476E-04   -0.32464E-06   784   0.934E-06  -0.322E-06
DMP:  96    -0.211821804335E+02   -0.11239E-04   -0.30126E-06   784   0.883E-06  -0.339E-06
DMP:  97    -0.211821697404E+02    0.10693E-04   -0.25318E-06   784   0.745E-06  -0.293E-06
DMP:  98    -0.211821802048E+02   -0.10464E-04   -0.18597E-06   784   0.515E-06  -0.132E-06
DMP:  99    -0.211821702962E+02    0.99086E-05   -0.15276E-06   784   0.399E-06  -0.457E-07
DMP: 100    -0.211821799444E+02   -0.96482E-05   -0.13190E-06   784   0.328E-06   0.569E-08
   4 F= -.21182180E+02 E0= -.21175684E+02  d E =-.295508E+01
       N       E                     dE             d eps       ncg     rms           ort
SDA:   1    -0.211822700857E+02   -0.99790E-04   -0.98023E-05   784   0.245E-04   0.000E+00
DMP:   2    -0.211821797487E+02    0.90337E-04   -0.75405E-05   784   0.246E-04  -0.150E-04
DMP:   3    -0.211822746173E+02   -0.94869E-04   -0.39158E-05   784   0.143E-04  -0.119E-04
DMP:   4    -0.211822138909E+02    0.60726E-04   -0.11262E-05   784   0.454E-05  -0.452E-05
DMP:   5    -0.211822438057E+02   -0.29915E-04   -0.24392E-06   784   0.738E-06  -0.336E-06
DMP:   6    -0.211822379595E+02    0.58462E-05   -0.12460E-06   784   0.221E-06   0.237E-06
DMP:   7    -0.211822326797E+02    0.52798E-05   -0.12271E-06   784   0.272E-06   0.907E-07
DMP:   8    -0.211822404511E+02   -0.77714E-05   -0.11242E-06   784   0.290E-06  -0.229E-07
DMP:   9    -0.211822348401E+02    0.56111E-05   -0.14635E-06   784   0.405E-06  -0.104E-06
DMP:  10    -0.211822374875E+02   -0.26475E-05   -0.26328E-06   784   0.788E-06  -0.339E-06
DMP:  11    -0.211822370843E+02    0.40322E-06   -0.42849E-06   784   0.137E-05  -0.775E-06
DMP:  12    -0.211822364232E+02    0.66112E-06   -0.44418E-06   784   0.152E-05  -0.108E-05
DMP:  13    -0.211822372819E+02   -0.85867E-06   -0.24380E-06   784   0.931E-06  -0.842E-06
DMP:  14    -0.211822368179E+02    0.46392E-06   -0.41386E-07   784   0.195E-06  -0.240E-06
DMP:  15    -0.211822370647E+02   -0.24671E-06   -0.11317E-07   784   0.179E-07   0.273E-07
DMP:  16    -0.211822370536E+02    0.11090E-07   -0.22047E-07   784   0.582E-07  -0.800E-08
   5 F= -.21182237E+02 E0= -.21175741E+02  d E =-.295514E+01
       N       E                     dE             d eps       ncg     rms           ort
SDA:   1    -0.209850529386E+02    0.19718E+00   -0.32781E+00   784   0.820E+00   0.000E+00
DMP:   2    -0.211512672754E+02   -0.16621E+00   -0.54713E-01   784   0.132E+00   0.114E-01
DMP:   3    -0.211748474642E+02   -0.23580E-01   -0.31016E-01   784   0.848E-01  -0.191E-01
DMP:   4    -0.211843139698E+02   -0.94665E-02   -0.85931E-02   784   0.328E-01  -0.297E-01
DMP:   5    -0.211890459148E+02   -0.47319E-02   -0.46845E-02   784   0.109E-01   0.207E-02
DMP:   6    -0.211912783755E+02   -0.22325E-02   -0.20384E-02   784   0.535E-02  -0.660E-03
DMP:   7    -0.211924244282E+02   -0.11461E-02   -0.72610E-03   784   0.157E-02   0.649E-03
DMP:   8    -0.211927581121E+02   -0.33368E-03   -0.33052E-03   784   0.870E-03  -0.116E-03
DMP:   9    -0.211929680416E+02   -0.20993E-03   -0.14396E-03   784   0.280E-03   0.209E-03
DMP:  10    -0.211930681261E+02   -0.10008E-03   -0.89923E-04   784   0.179E-03   0.120E-03
DMP:  11    -0.211931314849E+02   -0.63359E-04   -0.44127E-04   784   0.725E-04   0.991E-04
DMP:  12    -0.211931663017E+02   -0.34817E-04   -0.27593E-04   784   0.446E-04   0.639E-04
DMP:  13    -0.211931904158E+02   -0.24114E-04   -0.17708E-04   784   0.258E-04   0.483E-04
DMP:  14    -0.211932065470E+02   -0.16131E-04   -0.12476E-04   784   0.181E-04   0.344E-04
DMP:  15    -0.211932178549E+02   -0.11308E-04   -0.87071E-05   784   0.121E-04   0.253E-04
DMP:  16    -0.211932259920E+02   -0.81372E-05   -0.62984E-05   784   0.866E-05   0.186E-04
DMP:  17    -0.211932320847E+02   -0.60926E-05   -0.46487E-05   784   0.636E-05   0.138E-04
DMP:  18    -0.211932365518E+02   -0.44671E-05   -0.35428E-05   784   0.488E-05   0.104E-04
DMP:  19    -0.211932400052E+02   -0.34534E-05   -0.27926E-05   784   0.391E-05   0.804E-05
DMP:  20    -0.211932427494E+02   -0.27442E-05   -0.22689E-05   784   0.322E-05   0.643E-05
DMP:  21    -0.211932449932E+02   -0.22438E-05   -0.18832E-05   784   0.269E-05   0.528E-05
DMP:  22    -0.211932468710E+02   -0.18778E-05   -0.16165E-05   784   0.235E-05   0.442E-05
DMP:  23    -0.211932484703E+02   -0.15993E-05   -0.14423E-05   784   0.215E-05   0.382E-05
DMP:  24    -0.211932499097E+02   -0.14394E-05   -0.13105E-05   784   0.197E-05   0.343E-05
DMP:  25    -0.211932512128E+02   -0.13031E-05   -0.12049E-05   784   0.182E-05   0.313E-05
DMP:  26    -0.211932524150E+02   -0.12022E-05   -0.11334E-05   784   0.173E-05   0.288E-05
DMP:  27    -0.211932535402E+02   -0.11253E-05   -0.10839E-05   784   0.167E-05   0.272E-05
DMP:  28    -0.211932546188E+02   -0.10786E-05   -0.10436E-05   784   0.162E-05   0.260E-05
DMP:  29    -0.211932556531E+02   -0.10343E-05   -0.10119E-05   784   0.158E-05   0.250E-05
DMP:  30    -0.211932566545E+02   -0.10014E-05   -0.98490E-06   784   0.154E-05   0.241E-05
DMP:  31    -0.211932576261E+02   -0.97156E-06   -0.96240E-06   784   0.151E-05   0.234E-05
DMP:  32    -0.211932585719E+02   -0.94580E-06   -0.95105E-06   784   0.152E-05   0.225E-05
DMP:  33    -0.211932594747E+02   -0.90280E-06   -0.10139E-05   784   0.174E-05   0.208E-05
DMP:  34    -0.211932603003E+02   -0.82563E-06   -0.13935E-05   784   0.291E-05   0.151E-05
DMP:  35    -0.211932608544E+02   -0.55412E-06   -0.29146E-05   784   0.757E-05  -0.740E-06
DMP:  36    -0.211932608593E+02   -0.49090E-08   -0.67901E-05   784   0.198E-04  -0.741E-05
DMP:  37    -0.211932599518E+02    0.90755E-06   -0.13285E-04   784   0.414E-04  -0.214E-04
DMP:  38    -0.211932589879E+02    0.96385E-06   -0.19231E-04   784   0.628E-04  -0.386E-04
DMP:  39    -0.211932583114E+02    0.67650E-06   -0.22451E-04   784   0.754E-04  -0.503E-04
DMP:  40    -0.211932586352E+02   -0.32377E-06   -0.26348E-04   784   0.879E-04  -0.576E-04
DMP:  41    -0.211932554512E+02    0.31839E-05   -0.37286E-04   784   0.121E-03  -0.740E-04
DMP:  42    -0.211932522503E+02    0.32010E-05   -0.86007E-04   784   0.264E-03  -0.129E-03
DMP:  43    -0.211932034194E+02    0.48831E-04   -0.32629E-03   784   0.973E-03  -0.411E-03
DMP:  44    -0.211930567513E+02    0.14667E-03   -0.12759E-02   784   0.382E-02  -0.166E-02
DMP:  45    -0.211924370979E+02    0.61965E-03   -0.43028E-02   784   0.131E-01  -0.604E-02
DMP:  46    -0.211908986721E+02    0.15384E-02   -0.12332E-01   784   0.381E-01  -0.190E-01
DMP:  47    -0.211871293693E+02    0.37693E-02   -0.28841E-01   784   0.907E-01  -0.486E-01
DMP:  48    -0.211808962207E+02    0.62331E-02   -0.56714E-01   784   0.182E+00  -0.105E+00
DMP:  49    -0.211717767134E+02    0.91195E-02   -0.91159E-01   784   0.298E+00  -0.183E+00
DMP:  50    -0.211637388826E+02    0.80378E-02   -0.11826E+00   784   0.399E+00  -0.270E+00
DMP:  51    -0.211636939794E+02    0.44903E-04   -0.10316E+00   784   0.366E+00  -0.282E+00
DMP:  52    -0.211749588236E+02   -0.11265E-01   -0.60345E-01   784   0.230E+00  -0.208E+00
DMP:  53    -0.211840726659E+02   -0.91138E-02   -0.22869E-01   784   0.917E-01  -0.904E-01
DMP:  54    -0.211905710912E+02   -0.64984E-02   -0.13109E-01   784   0.479E-01  -0.395E-01
DMP:  55    -0.211881142273E+02    0.24569E-02   -0.10066E-01   784   0.355E-01  -0.271E-01
DMP:  56    -0.211921157805E+02   -0.40016E-02   -0.93698E-02   784   0.324E-01  -0.235E-01
DMP:  57    -0.211881473475E+02    0.39684E-02   -0.93418E-02   784   0.323E-01  -0.233E-01
DMP:  58    -0.211922756217E+02   -0.41283E-02   -0.89906E-02   784   0.312E-01  -0.228E-01
DMP:  59    -0.211883240761E+02    0.39515E-02   -0.86431E-02   784   0.301E-01  -0.221E-01
DMP:  60    -0.211924825581E+02   -0.41585E-02   -0.80586E-02   784   0.281E-01  -0.209E-01
DMP:  61    -0.211888216871E+02    0.36609E-02   -0.74434E-02   784   0.260E-01  -0.194E-01
DMP:  62    -0.211927525152E+02   -0.39308E-02   -0.68250E-02   784   0.239E-01  -0.178E-01
DMP:  63    -0.211893607071E+02    0.33918E-02   -0.62916E-02   784   0.220E-01  -0.164E-01
DMP:  64    -0.211929631761E+02   -0.36025E-02   -0.58915E-02   784   0.205E-01  -0.152E-01
DMP:  65    -0.211896808331E+02    0.32823E-02   -0.56938E-02   784   0.197E-01  -0.144E-01
DMP:  66    -0.211930316510E+02   -0.33508E-02   -0.56884E-02   784   0.196E-01  -0.141E-01
DMP:  67    -0.211896107127E+02    0.34209E-02   -0.59484E-02   784   0.204E-01  -0.145E-01
DMP:  68    -0.211929141755E+02   -0.33035E-02   -0.64818E-02   784   0.221E-01  -0.154E-01
DMP:  69    -0.211890056684E+02    0.39085E-02   -0.74000E-02   784   0.251E-01  -0.172E-01
DMP:  70    -0.211924949617E+02   -0.34893E-02   -0.87845E-02   784   0.296E-01  -0.201E-01
DMP:  71    -0.211875863523E+02    0.49086E-02   -0.10842E-01   784   0.364E-01  -0.243E-01
DMP:  72    -0.211914574325E+02   -0.38711E-02   -0.13815E-01   784   0.462E-01  -0.305E-01
DMP:  73    -0.211847307951E+02    0.67266E-02   -0.18120E-01   784   0.604E-01  -0.394E-01
DMP:  74    -0.211890371655E+02   -0.43064E-02   -0.24379E-01   784   0.810E-01  -0.524E-01
DMP:  75    -0.211790607144E+02    0.99765E-02   -0.33417E-01   784   0.111E+00  -0.711E-01
DMP:  76    -0.211834628084E+02   -0.44021E-02   -0.46772E-01   784   0.155E+00  -0.988E-01
DMP:  77    -0.211675693576E+02    0.15893E-01   -0.66059E-01   784   0.218E+00  -0.138E+00
DMP:  78    -0.211706616178E+02   -0.30923E-02   -0.95082E-01   784   0.313E+00  -0.198E+00
DMP:  79    -0.211436669251E+02    0.26995E-01   -0.13668E+00   784   0.450E+00  -0.284E+00
DMP:  80    -0.211415196733E+02    0.21473E-02   -0.19995E+00   784   0.658E+00  -0.414E+00
DMP:  81    -0.210934618331E+02    0.48058E-01   -0.28913E+00   784   0.951E+00  -0.597E+00
DMP:  82    -0.210764444968E+02    0.17017E-01   -0.42521E+00   784   0.140E+01  -0.880E+00
DMP:  83    -0.209893529094E+02    0.87092E-01   -0.60981E+00   784   0.201E+01  -0.126E+01
DMP:  84    -0.209374901384E+02    0.51863E-01   -0.88974E+00   784   0.293E+01  -0.185E+01
DMP:  85    -0.207839990009E+02    0.15349E+00   -0.12439E+01   784   0.410E+01  -0.260E+01
DMP:  86    -0.206634351263E+02    0.12056E+00   -0.17775E+01   784   0.588E+01  -0.375E+01
DMP:  87    -0.204112635014E+02    0.25217E+00   -0.23882E+01   784   0.790E+01  -0.506E+01
DMP:  88    -0.201795269765E+02    0.23174E+00   -0.32788E+01   784   0.109E+02  -0.707E+01
DMP:  89    -0.198331482499E+02    0.34638E+00   -0.41158E+01   784   0.137E+02  -0.897E+01
DMP:  90    -0.195019555651E+02    0.33119E+00   -0.52514E+01   784   0.176E+02  -0.118E+02
DMP:  91    -0.191739488165E+02    0.32801E+00   -0.59953E+01   784   0.202E+02  -0.137E+02
DMP:  92    -0.188638845236E+02    0.31006E+00   -0.69562E+01   784   0.236E+02  -0.163E+02
DMP:  93    -0.187187450774E+02    0.14514E+00   -0.71874E+01   784   0.245E+02  -0.172E+02
DMP:  94    -0.185658368264E+02    0.15291E+00   -0.76126E+01   784   0.262E+02  -0.187E+02
DMP:  95    -0.186496286673E+02   -0.83792E-01   -0.72511E+01   784   0.250E+02  -0.181E+02
DMP:  96    -0.186607200350E+02   -0.11091E-01   -0.72368E+01   784   0.251E+02  -0.183E+02
DMP:  97    -0.188439053456E+02   -0.18319E+00   -0.66414E+01   784   0.230E+02  -0.169E+02
DMP:  98    -0.189110134207E+02   -0.67108E-01   -0.65207E+01   784   0.226E+02  -0.166E+02
DMP:  99    -0.190764231443E+02   -0.16541E+00   -0.59855E+01   784   0.208E+02  -0.152E+02
DMP: 100    -0.191262269460E+02   -0.49804E-01   -0.59532E+01   784   0.206E+02  -0.151E+02
   6 F= -.19126227E+02 E0= -.19119817E+02  d E =-.899128E+00
       N       E                     dE             d eps       ncg     rms           ort
SDA:   1     0.591706173897E+02    0.78247E+02   -0.12485E+03   784   0.312E+03   0.000E+00
DMP:   2     0.592034414862E+02    0.32824E-01   -0.15449E+03   784   0.591E+03  -0.535E+03
DMP:   3    -0.474792426184E+01   -0.63951E+02   -0.20402E+02   784   0.107E+03  -0.147E+03
DMP:   4    -0.192275345484E+02   -0.14480E+02   -0.18872E+01   784   0.412E+01   0.158E+01
DMP:   5    -0.181748773239E+02    0.10527E+01   -0.65023E+01   784   0.190E+02  -0.726E+01
DMP:   6    -0.189222524444E+02   -0.74738E+00   -0.44098E+01   784   0.160E+02  -0.131E+02
DMP:   7    -0.203775125520E+02   -0.14553E+01   -0.11779E+01   784   0.498E+01  -0.534E+01
DMP:   8    -0.210035084140E+02   -0.62600E+00   -0.15877E+00   784   0.667E+00  -0.706E+00
DMP:   9    -0.211197103287E+02   -0.11620E+00   -0.51681E-01   784   0.778E-01   0.135E+00
DMP:  10    -0.211289169869E+02   -0.92067E-02   -0.78419E-01   784   0.209E+00  -0.342E-01
DMP:  11    -0.211536214531E+02   -0.24704E-01   -0.66628E-01   784   0.211E+00  -0.117E+00
DMP:  12    -0.211623594148E+02   -0.87380E-02   -0.42020E-01   784   0.140E+00  -0.923E-01
DMP:  13    -0.211796275608E+02   -0.17268E-01   -0.26179E-01   784   0.885E-01  -0.605E-01
DMP:  14    -0.211800892916E+02   -0.46173E-03   -0.16659E-01   784   0.566E-01  -0.392E-01
DMP:  15    -0.211879575679E+02   -0.78683E-02   -0.12240E-01   784   0.415E-01  -0.285E-01
DMP:  16    -0.211852766523E+02    0.26809E-02   -0.99539E-02   784   0.338E-01  -0.235E-01
DMP:  17    -0.211900174809E+02   -0.47408E-02   -0.94735E-02   784   0.321E-01  -0.219E-01
DMP:  18    -0.211860014617E+02    0.40160E-02   -0.99943E-02   784   0.338E-01  -0.230E-01
DMP:  19    -0.211900357229E+02   -0.40343E-02   -0.11443E-01   784   0.385E-01  -0.259E-01
DMP:  20    -0.211847238191E+02    0.53119E-02   -0.13647E-01   784   0.459E-01  -0.307E-01
DMP:  21    -0.211889680620E+02   -0.42442E-02   -0.16770E-01   784   0.562E-01  -0.375E-01
DMP:  22    -0.211819034554E+02    0.70646E-02   -0.21053E-01   784   0.705E-01  -0.467E-01
DMP:  23    -0.211865460046E+02   -0.46425E-02   -0.26821E-01   784   0.897E-01  -0.592E-01
DMP:  24    -0.211768665981E+02    0.96794E-02   -0.34619E-01   784   0.116E+00  -0.758E-01
DMP:  25    -0.211817343235E+02   -0.48677E-02   -0.45411E-01   784   0.151E+00  -0.990E-01
DMP:  26    -0.211677649732E+02    0.13969E-01   -0.60080E-01   784   0.200E+00  -0.130E+00
DMP:  27    -0.211720837690E+02   -0.43188E-02   -0.80942E-01   784   0.269E+00  -0.174E+00
DMP:  28    -0.211507366920E+02    0.21347E-01   -0.10942E+00   784   0.363E+00  -0.234E+00
DMP:  29    -0.211524015969E+02   -0.16649E-02   -0.15072E+00   784   0.500E+00  -0.321E+00
DMP:  30    -0.211181016894E+02    0.34300E-01   -0.20650E+00   784   0.684E+00  -0.439E+00
DMP:  31    -0.211123638126E+02    0.57379E-02   -0.28861E+00   784   0.955E+00  -0.612E+00
DMP:  32    -0.210551392872E+02    0.57225E-01   -0.39773E+00   784   0.132E+01  -0.841E+00
DMP:  33    -0.210313097011E+02    0.23830E-01   -0.56167E+00   784   0.186E+01  -0.119E+01
DMP:  34    -0.209330893794E+02    0.98220E-01   -0.77286E+00   784   0.256E+01  -0.163E+01
DMP:  35    -0.208700473922E+02    0.63042E-01   -0.10915E+01   784   0.361E+01  -0.231E+01
DMP:  36    -0.207047242557E+02    0.16532E+00   -0.14748E+01   784   0.488E+01  -0.313E+01
DMP:  37    -0.205705838579E+02    0.13414E+00   -0.20461E+01   784   0.679E+01  -0.438E+01
DMP:  38    -0.203168289397E+02    0.25375E+00   -0.26506E+01   784   0.881E+01  -0.572E+01
DMP:  39    -0.200886516377E+02    0.22818E+00   -0.35173E+01   784   0.117E+02  -0.772E+01
DMP:  40    -0.197741597027E+02    0.31449E+00   -0.42474E+01   784   0.142E+02  -0.945E+01
DMP:  41    -0.194888751073E+02    0.28528E+00   -0.52358E+01   784   0.177E+02  -0.119E+02
DMP:  42    -0.192308838213E+02    0.25799E+00   -0.57650E+01   784   0.195E+02  -0.134E+02
DMP:  43    -0.190074449106E+02    0.22344E+00   -0.64892E+01   784   0.221E+02  -0.155E+02
DMP:  44    -0.189302204861E+02    0.77224E-01   -0.65246E+01   784   0.224E+02  -0.159E+02
DMP:  45    -0.188478406898E+02    0.82380E-01   -0.68023E+01   784   0.234E+02  -0.168E+02
DMP:  46    -0.189362760369E+02   -0.88435E-01   -0.64185E+01   784   0.222E+02  -0.161E+02
DMP:  47    -0.189624695596E+02   -0.26194E-01   -0.64059E+01   784   0.222E+02  -0.162E+02
DMP:  48    -0.191136278935E+02   -0.15116E+00   -0.58770E+01   784   0.204E+02  -0.149E+02
DMP:  49    -0.191739095731E+02   -0.60282E-01   -0.58053E+01   784   0.201E+02  -0.148E+02
DMP:  50    -0.193036964382E+02   -0.12979E+00   -0.53444E+01   784   0.185E+02  -0.136E+02
DMP:  51    -0.193461438274E+02   -0.42447E-01   -0.53475E+01   784   0.185E+02  -0.135E+02
DMP:  52    -0.194265349599E+02   -0.80391E-01   -0.50182E+01   784   0.174E+02  -0.126E+02
DMP:  53    -0.194363734847E+02   -0.98385E-02   -0.51277E+01   784   0.177E+02  -0.128E+02
DMP:  54    -0.194707676473E+02   -0.34394E-01   -0.49152E+01   784   0.170E+02  -0.122E+02
DMP:  55    -0.194516271543E+02    0.19140E-01   -0.51108E+01   784   0.176E+02  -0.127E+02
DMP:  56    -0.194579121112E+02   -0.62850E-02   -0.49659E+01   784   0.171E+02  -0.123E+02
DMP:  57    -0.194218739316E+02    0.36038E-01   -0.52083E+01   784   0.179E+02  -0.129E+02
DMP:  58    -0.194188080622E+02    0.30659E-02   -0.50815E+01   784   0.175E+02  -0.125E+02
DMP:  59    -0.193787105914E+02    0.40097E-01   -0.53312E+01   784   0.184E+02  -0.132E+02
DMP:  60    -0.193808314499E+02   -0.21209E-02   -0.51863E+01   784   0.179E+02  -0.128E+02
DMP:  61    -0.193461643176E+02    0.34667E-01   -0.54165E+01   784   0.187E+02  -0.134E+02
DMP:  62    -0.193601615676E+02   -0.13997E-01   -0.52384E+01   784   0.181E+02  -0.130E+02
DMP:  63    -0.193350121982E+02    0.25149E-01   -0.54390E+01   784   0.188E+02  -0.135E+02
DMP:  64    -0.193596411998E+02   -0.24629E-01   -0.52353E+01   784   0.181E+02  -0.130E+02
DMP:  65    -0.193402879128E+02    0.19353E-01   -0.54204E+01   784   0.187E+02  -0.135E+02
DMP:  66    -0.193682656013E+02   -0.27978E-01   -0.52092E+01   784   0.180E+02  -0.129E+02
DMP:  67    -0.193508382032E+02    0.17427E-01   -0.53890E+01   784   0.186E+02  -0.134E+02
DMP:  68    -0.193789317039E+02   -0.28094E-01   -0.51790E+01   784   0.179E+02  -0.129E+02
DMP:  69    -0.193610693677E+02    0.17862E-01   -0.53609E+01   784   0.185E+02  -0.133E+02
DMP:  70    -0.193870647197E+02   -0.25995E-01   -0.51568E+01   784   0.178E+02  -0.128E+02
DMP:  71    -0.193679155102E+02    0.19149E-01   -0.53427E+01   784   0.184E+02  -0.133E+02
DMP:  72    -0.193918201652E+02   -0.23905E-01   -0.51445E+01   784   0.177E+02  -0.128E+02
DMP:  73    -0.193711272728E+02    0.20693E-01   -0.53352E+01   784   0.184E+02  -0.132E+02
DMP:  74    -0.193931524639E+02   -0.22025E-01   -0.51415E+01   784   0.177E+02  -0.128E+02
DMP:  75    -0.193715730658E+02    0.21579E-01   -0.53346E+01   784   0.184E+02  -0.132E+02
DMP:  76    -0.193929495064E+02   -0.21376E-01   -0.51425E+01   784   0.177E+02  -0.128E+02
DMP:  77    -0.193713487119E+02    0.21601E-01   -0.53350E+01   784   0.184E+02  -0.132E+02
DMP:  78    -0.193935115284E+02   -0.22163E-01   -0.51405E+01   784   0.177E+02  -0.128E+02
DMP:  79    -0.193725517195E+02    0.20960E-01   -0.53324E+01   784   0.184E+02  -0.132E+02
DMP:  80    -0.193937341511E+02   -0.21182E-01   -0.51415E+01   784   0.177E+02  -0.128E+02
DMP:  81    -0.193709198681E+02    0.22814E-01   -0.53380E+01   784   0.184E+02  -0.132E+02
DMP:  82    -0.193912953276E+02   -0.20375E-01   -0.51486E+01   784   0.177E+02  -0.128E+02
DMP:  83    -0.193682287917E+02    0.23067E-01   -0.53457E+01   784   0.184E+02  -0.133E+02
DMP:  84    -0.193888366235E+02   -0.20608E-01   -0.51554E+01   784   0.178E+02  -0.128E+02
DMP:  85    -0.193661498107E+02    0.22687E-01   -0.53505E+01   784   0.184E+02  -0.133E+02
DMP:  86    -0.193881853922E+02   -0.22036E-01   -0.51565E+01   784   0.178E+02  -0.128E+02
DMP:  87    -0.193665172735E+02    0.21668E-01   -0.53488E+01   784   0.184E+02  -0.133E+02
DMP:  88    -0.193892448061E+02   -0.22728E-01   -0.51529E+01   784   0.178E+02  -0.128E+02
DMP:  89    -0.193683008256E+02    0.20944E-01   -0.53430E+01   784   0.184E+02  -0.133E+02
DMP:  90    -0.193917137621E+02   -0.23413E-01   -0.51457E+01   784   0.177E+02  -0.128E+02
DMP:  91    -0.193711802037E+02    0.20534E-01   -0.53345E+01   784   0.184E+02  -0.132E+02
DMP:  92    -0.193949233816E+02   -0.23743E-01   -0.51361E+01   784   0.177E+02  -0.128E+02
DMP:  93    -0.193751344719E+02    0.19789E-01   -0.53237E+01   784   0.184E+02  -0.132E+02
DMP:  94    -0.193979438504E+02   -0.22809E-01   -0.51290E+01   784   0.177E+02  -0.127E+02
DMP:  95    -0.193761515179E+02    0.21792E-01   -0.53228E+01   784   0.184E+02  -0.132E+02
DMP:  96    -0.193968349403E+02   -0.20683E-01   -0.51332E+01   784   0.177E+02  -0.127E+02
DMP:  97    -0.193738393843E+02    0.22996E-01   -0.53301E+01   784   0.184E+02  -0.132E+02
DMP:  98    -0.193939148550E+02   -0.20075E-01   -0.51419E+01   784   0.177E+02  -0.128E+02
DMP:  99    -0.193705218371E+02    0.23393E-01   -0.53391E+01   784   0.184E+02  -0.132E+02
DMP: 100    -0.193914969021E+02   -0.20975E-01   -0.51482E+01   784   0.177E+02  -0.128E+02
   7 F= -.19391497E+02 E0= -.19384272E+02  d E =-.116440E+01
       N       E                     dE             d eps       ncg     rms           ort
SDA:   1     0.554562632013E+02    0.74827E+02   -0.13843E+03   784   0.346E+03   0.000E+00
DMP:   2     0.589359966644E+02    0.34797E+01   -0.17112E+03   784   0.650E+03  -0.582E+03
DMP:   3    -0.494443366962E+01   -0.63880E+02   -0.22040E+02   784   0.114E+03  -0.153E+03
DMP:   4    -0.192916210339E+02   -0.14347E+02   -0.14893E+01   784   0.401E+01  -0.748E+00
DMP:   5    -0.184109738873E+02    0.88065E+00   -0.58867E+01   784   0.168E+02  -0.538E+01
DMP:   6    -0.191194465551E+02   -0.70847E+00   -0.43543E+01   784   0.154E+02  -0.119E+02
DMP:   7    -0.202167503389E+02   -0.10973E+01   -0.16036E+01   784   0.648E+01  -0.647E+01
DMP:   8    -0.209497887723E+02   -0.73304E+00   -0.27235E+00   784   0.118E+01  -0.132E+01
DMP:   9    -0.211201830113E+02   -0.17039E+00   -0.37779E-01   784   0.827E-01   0.308E-01
DMP:  10    -0.211475538401E+02   -0.27371E-01   -0.44194E-01   784   0.926E-01   0.468E-01
DMP:  11    -0.211562552859E+02   -0.87014E-02   -0.44680E-01   784   0.130E+00  -0.480E-01
DMP:  12    -0.211715091952E+02   -0.15254E-01   -0.34813E-01   784   0.110E+00  -0.602E-01
DMP:  13    -0.211751272423E+02   -0.36180E-02   -0.23055E-01   784   0.769E-01  -0.503E-01
DMP:  14    -0.211843426275E+02   -0.92154E-02   -0.16506E-01   784   0.551E-01  -0.363E-01
DMP:  15    -0.211830825124E+02    0.12601E-02   -0.12250E-01   784   0.417E-01  -0.291E-01
DMP:  16    -0.211883610260E+02   -0.52785E-02   -0.10303E-01   784   0.350E-01  -0.241E-01
DMP:  17    -0.211854432294E+02    0.29178E-02   -0.93955E-02   784   0.321E-01  -0.225E-01
DMP:  18    -0.211893436406E+02   -0.39004E-02   -0.96569E-02   784   0.327E-01  -0.224E-01
DMP:  19    -0.211853935806E+02    0.39501E-02   -0.10475E-01   784   0.355E-01  -0.243E-01
DMP:  20    -0.211891185824E+02   -0.37250E-02   -0.12052E-01   784   0.406E-01  -0.275E-01
DMP:  21    -0.211840635672E+02    0.50550E-02   -0.14098E-01   784   0.475E-01  -0.322E-01
DMP:  22    -0.211880886146E+02   -0.40250E-02   -0.17131E-01   784   0.575E-01  -0.385E-01
DMP:  23    -0.211814119154E+02    0.66767E-02   -0.21061E-01   784   0.707E-01  -0.472E-01
DMP:  24    -0.211858327476E+02   -0.44208E-02   -0.26697E-01   784   0.893E-01  -0.590E-01
DMP:  25    -0.211765623786E+02    0.92704E-02   -0.34129E-01   784   0.114E+00  -0.751E-01
DMP:  26    -0.211812229011E+02   -0.46605E-02   -0.44825E-01   784   0.149E+00  -0.976E-01
DMP:  27    -0.211676109936E+02    0.13612E-01   -0.59170E-01   784   0.197E+00  -0.128E+00
DMP:  28    -0.211717872068E+02   -0.41762E-02   -0.79940E-01   784   0.266E+00  -0.172E+00
DMP:  29    -0.211507684309E+02    0.21019E-01   -0.10793E+00   784   0.358E+00  -0.231E+00
DMP:  30    -0.211524876709E+02   -0.17192E-02   -0.14886E+00   784   0.493E+00  -0.317E+00
DMP:  31    -0.211185955352E+02    0.33892E-01   -0.20348E+00   784   0.674E+00  -0.432E+00
DMP:  32    -0.211133812326E+02    0.52143E-02   -0.28408E+00   784   0.940E+00  -0.603E+00
DMP:  33    -0.210570070922E+02    0.56374E-01   -0.39009E+00   784   0.129E+01  -0.826E+00
DMP:  34    -0.210349743296E+02    0.22033E-01   -0.54794E+00   784   0.181E+01  -0.116E+01
DMP:  35    -0.209400489819E+02    0.94925E-01   -0.74812E+00   784   0.248E+01  -0.158E+01
DMP:  36    -0.208828745899E+02    0.57174E-01   -0.10470E+01   784   0.347E+01  -0.223E+01
DMP:  37    -0.207267390950E+02    0.15614E+00   -0.14015E+01   784   0.464E+01  -0.299E+01
DMP:  38    -0.206070076401E+02    0.11973E+00   -0.19248E+01   784   0.640E+01  -0.415E+01
DMP:  39    -0.203721062824E+02    0.23490E+00   -0.24738E+01   784   0.823E+01  -0.536E+01
DMP:  40    -0.201707024167E+02    0.20140E+00   -0.32550E+01   784   0.109E+02  -0.718E+01
DMP:  41    -0.198818966567E+02    0.28881E+00   -0.39153E+01   784   0.131E+02  -0.873E+01
DMP:  42    -0.196301784291E+02    0.25172E+00   -0.48060E+01   784   0.162E+02  -0.110E+02
DMP:  43    -0.193872687912E+02    0.24291E+00   -0.53026E+01   784   0.180E+02  -0.123E+02
DMP:  44    -0.191856645561E+02    0.20160E+00   -0.59729E+01   784   0.204E+02  -0.142E+02
DMP:  45    -0.190984488990E+02    0.87216E-01   -0.60439E+01   784   0.207E+02  -0.147E+02
DMP:  46    -0.190213325802E+02    0.77116E-01   -0.63166E+01   784   0.218E+02  -0.156E+02
DMP:  47    -0.190842302431E+02   -0.62898E-01   -0.60066E+01   784   0.208E+02  -0.150E+02
DMP:  48    -0.191082029785E+02   -0.23973E-01   -0.60041E+01   784   0.208E+02  -0.152E+02
DMP:  49    -0.192327051820E+02   -0.12450E+00   -0.55487E+01   784   0.192E+02  -0.141E+02
DMP:  50    -0.192918221570E+02   -0.59117E-01   -0.54809E+01   784   0.190E+02  -0.139E+02
DMP:  51    -0.194007411119E+02   -0.10892E+00   -0.50736E+01   784   0.176E+02  -0.129E+02
DMP:  52    -0.194471132265E+02   -0.46372E-01   -0.50652E+01   784   0.175E+02  -0.128E+02
DMP:  53    -0.195148856224E+02   -0.67772E-01   -0.47670E+01   784   0.165E+02  -0.120E+02
DMP:  54    -0.195330653610E+02   -0.18180E-01   -0.48532E+01   784   0.168E+02  -0.121E+02
DMP:  55    -0.195596004725E+02   -0.26535E-01   -0.46590E+01   784   0.161E+02  -0.116E+02
DMP:  56    -0.195515574209E+02    0.80431E-02   -0.48253E+01   784   0.166E+02  -0.120E+02
DMP:  57    -0.195514392692E+02    0.11815E-03   -0.46952E+01   784   0.162E+02  -0.116E+02
DMP:  58    -0.195271011641E+02    0.24338E-01   -0.49082E+01   784   0.169E+02  -0.121E+02
DMP:  59    -0.195165390857E+02    0.10562E-01   -0.47996E+01   784   0.165E+02  -0.118E+02
DMP:  60    -0.194870715363E+02    0.29468E-01   -0.50241E+01   784   0.173E+02  -0.124E+02
DMP:  61    -0.194796478794E+02    0.74237E-02   -0.49025E+01   784   0.169E+02  -0.121E+02
DMP:  62    -0.194546631913E+02    0.24985E-01   -0.51105E+01   784   0.176E+02  -0.126E+02
DMP:  63    -0.194573578917E+02   -0.26947E-02   -0.49612E+01   784   0.171E+02  -0.123E+02
DMP:  64    -0.194392427704E+02    0.18115E-01   -0.51490E+01   784   0.177E+02  -0.128E+02
DMP:  65    -0.194494434644E+02   -0.10201E-01   -0.49805E+01   784   0.172E+02  -0.123E+02
DMP:  66    -0.194358413742E+02    0.13602E-01   -0.51547E+01   784   0.178E+02  -0.128E+02
DMP:  67    -0.194505342942E+02   -0.14693E-01   -0.49753E+01   784   0.172E+02  -0.123E+02
DMP:  68    -0.194395126227E+02    0.11022E-01   -0.51421E+01   784   0.177E+02  -0.128E+02
DMP:  69    -0.194559229265E+02   -0.16410E-01   -0.49591E+01   784   0.171E+02  -0.123E+02
DMP:  70    -0.194458420638E+02    0.10081E-01   -0.51237E+01   784   0.177E+02  -0.127E+02
DMP:  71    -0.194618911882E+02   -0.16049E-01   -0.49423E+01   784   0.170E+02  -0.123E+02
DMP:  72    -0.194512701438E+02    0.10621E-01   -0.51090E+01   784   0.176E+02  -0.127E+02
DMP:  73    -0.194659192013E+02   -0.14649E-01   -0.49318E+01   784   0.170E+02  -0.122E+02
DMP:  74    -0.194540496823E+02    0.11870E-01   -0.51023E+01   784   0.176E+02  -0.127E+02
DMP:  75    -0.194670888611E+02   -0.13039E-01   -0.49294E+01   784   0.170E+02  -0.122E+02
DMP:  76    -0.194541388257E+02    0.12950E-01   -0.51030E+01   784   0.176E+02  -0.127E+02
DMP:  77    -0.194664285160E+02   -0.12290E-01   -0.49317E+01   784   0.170E+02  -0.122E+02
DMP:  78    -0.194534203520E+02    0.13008E-01   -0.51048E+01   784   0.176E+02  -0.127E+02
DMP:  79    -0.194662500768E+02   -0.12830E-01   -0.49325E+01   784   0.170E+02  -0.122E+02
DMP:  80    -0.194529629362E+02    0.13287E-01   -0.51076E+01   784   0.176E+02  -0.127E+02
DMP:  81    -0.194643820901E+02   -0.11419E-01   -0.49391E+01   784   0.170E+02  -0.122E+02
DMP:  82    -0.194496054956E+02    0.14777E-01   -0.51177E+01   784   0.176E+02  -0.127E+02
DMP:  83    -0.194608120358E+02   -0.11207E-01   -0.49496E+01   784   0.171E+02  -0.123E+02
DMP:  84    -0.194458913819E+02    0.14921E-01   -0.51279E+01   784   0.177E+02  -0.127E+02
DMP:  85    -0.194578105405E+02   -0.11919E-01   -0.49577E+01   784   0.171E+02  -0.123E+02
DMP:  86    -0.194435870536E+02    0.14223E-01   -0.51332E+01   784   0.177E+02  -0.127E+02
DMP:  87    -0.194570901396E+02   -0.13503E-01   -0.49591E+01   784   0.171E+02  -0.123E+02
DMP:  88    -0.194437423383E+02    0.13348E-01   -0.51319E+01   784   0.177E+02  -0.127E+02
DMP:  89    -0.194581047013E+02   -0.14362E-01   -0.49557E+01   784   0.171E+02  -0.123E+02
DMP:  90    -0.194454945216E+02    0.12610E-01   -0.51262E+01   784   0.177E+02  -0.127E+02
DMP:  91    -0.194604212759E+02   -0.14927E-01   -0.49491E+01   784   0.171E+02  -0.123E+02
DMP:  92    -0.194479753350E+02    0.12446E-01   -0.51189E+01   784   0.177E+02  -0.127E+02
DMP:  93    -0.194630561682E+02   -0.15081E-01   -0.49415E+01   784   0.170E+02  -0.123E+02
DMP:  94    -0.194509432257E+02    0.12113E-01   -0.51109E+01   784   0.176E+02  -0.127E+02
DMP:  95    -0.194652981490E+02   -0.14355E-01   -0.49362E+01   784   0.170E+02  -0.122E+02
DMP:  96    -0.194519413645E+02    0.13357E-01   -0.51093E+01   784   0.176E+02  -0.127E+02
DMP:  97    -0.194649085525E+02   -0.12967E-01   -0.49383E+01   784   0.170E+02  -0.123E+02
DMP:  98    -0.194504132722E+02    0.14495E-01   -0.51145E+01   784   0.176E+02  -0.127E+02
DMP:  99    -0.194626096262E+02   -0.12196E-01   -0.49454E+01   784   0.170E+02  -0.123E+02
DMP: 100    -0.194475535024E+02    0.15056E-01   -0.51225E+01   784   0.177E+02  -0.127E+02
   8 F= -.19447554E+02 E0= -.19441010E+02  d E =-.122046E+01
       N       E                     dE             d eps       ncg     rms           ort
SDA:   1     0.537101634285E+02    0.73173E+02   -0.11098E+03   784   0.277E+03   0.000E+00
DMP:   2     0.585569588825E+02    0.48468E+01   -0.15423E+03   784   0.579E+03  -0.507E+03
DMP:   3    -0.336086679631E+01   -0.61918E+02   -0.23417E+02   784   0.118E+03  -0.157E+03
DMP:   4    -0.192754159031E+02   -0.15915E+02   -0.13686E+01   784   0.408E+01  -0.173E+01
DMP:   5    -0.185520645430E+02    0.72335E+00   -0.55558E+01   784   0.157E+02  -0.476E+01
DMP:   6    -0.190507417757E+02   -0.49868E+00   -0.43240E+01   784   0.154E+02  -0.119E+02
DMP:   7    -0.203468500866E+02   -0.12961E+01   -0.12699E+01   784   0.526E+01  -0.545E+01
DMP:   8    -0.209902852404E+02   -0.64344E+00   -0.20148E+00   784   0.857E+00  -0.925E+00
DMP:   9    -0.211223669050E+02   -0.13208E+00   -0.39572E-01   784   0.610E-01   0.992E-01
DMP:  10    -0.211359164022E+02   -0.13549E-01   -0.60492E-01   784   0.149E+00   0.677E-02
DMP:  11    -0.211580117212E+02   -0.22095E-01   -0.56900E-01   784   0.175E+00  -0.846E-01
DMP:  12    -0.211621360065E+02   -0.41243E-02   -0.39558E-01   784   0.130E+00  -0.806E-01
DMP:  13    -0.211791974438E+02   -0.17061E-01   -0.26803E-01   784   0.901E-01  -0.604E-01
DMP:  14    -0.211775537157E+02    0.16437E-02   -0.18742E-01   784   0.636E-01  -0.438E-01
DMP:  15    -0.211864195138E+02   -0.88658E-02   -0.15021E-01   784   0.510E-01  -0.352E-01
DMP:  16    -0.211820363335E+02    0.43832E-02   -0.13462E-01   784   0.457E-01  -0.316E-01
DMP:  17    -0.211879697730E+02   -0.59334E-02   -0.13811E-01   784   0.467E-01  -0.319E-01
DMP:  18    -0.211818866066E+02    0.60832E-02   -0.15574E-01   784   0.524E-01  -0.353E-01
DMP:  19    -0.211872355523E+02   -0.53489E-02   -0.18823E-01   784   0.631E-01  -0.420E-01
DMP:  20    -0.211789069305E+02    0.83286E-02   -0.23671E-01   784   0.791E-01  -0.522E-01
DMP:  21    -0.211845274820E+02   -0.56206E-02   -0.30544E-01   784   0.102E+00  -0.669E-01
DMP:  22    -0.211728022081E+02    0.11725E-01   -0.40188E-01   784   0.134E+00  -0.871E-01
DMP:  23    -0.211785797143E+02   -0.57775E-02   -0.53888E-01   784   0.179E+00  -0.116E+00
DMP:  24    -0.211611420274E+02    0.17438E-01   -0.72873E-01   784   0.242E+00  -0.156E+00
DMP:  25    -0.211660572997E+02   -0.49153E-02   -0.10023E+00   784   0.332E+00  -0.214E+00
DMP:  26    -0.211387549290E+02    0.27302E-01   -0.13794E+00   784   0.457E+00  -0.292E+00
DMP:  27    -0.211398467069E+02   -0.10918E-02   -0.19345E+00   784   0.640E+00  -0.409E+00
DMP:  28    -0.210948697142E+02    0.44977E-01   -0.26922E+00   784   0.890E+00  -0.567E+00
DMP:  29    -0.210849054866E+02    0.99642E-02   -0.38339E+00   784   0.127E+01  -0.806E+00
DMP:  30    -0.210073542900E+02    0.77551E-01   -0.53644E+00   784   0.177E+01  -0.112E+01
DMP:  31    -0.209701820584E+02    0.37172E-01   -0.76934E+00   784   0.254E+01  -0.161E+01
DMP:  32    -0.208351276990E+02    0.13505E+00   -0.10667E+01   784   0.352E+01  -0.224E+01
DMP:  33    -0.207413905601E+02    0.93737E-01   -0.15172E+01   784   0.502E+01  -0.321E+01
DMP:  34    -0.205173657822E+02    0.22402E+00   -0.20393E+01   784   0.675E+01  -0.433E+01
DMP:  35    -0.203310436668E+02    0.18632E+00   -0.28091E+01   784   0.933E+01  -0.605E+01
DMP:  36    -0.200112679716E+02    0.31978E+00   -0.35539E+01   784   0.118E+02  -0.774E+01
DMP:  37    -0.197332605779E+02    0.27801E+00   -0.45921E+01   784   0.154E+02  -0.102E+02
DMP:  38    -0.193986791632E+02    0.33458E+00   -0.53180E+01   784   0.179E+02  -0.121E+02
DMP:  39    -0.191208615765E+02    0.27782E+00   -0.62876E+01   784   0.213E+02  -0.146E+02
DMP:  40    -0.189244554249E+02    0.19641E+00   -0.66005E+01   784   0.225E+02  -0.157E+02
DMP:  41    -0.187723720832E+02    0.15208E+00   -0.71371E+01   784   0.245E+02  -0.173E+02
DMP:  42    -0.187812299935E+02   -0.88579E-02   -0.69069E+01   784   0.238E+02  -0.171E+02
DMP:  43    -0.187730677224E+02    0.81623E-02   -0.70258E+01   784   0.243E+02  -0.176E+02
DMP:  44    -0.188988320613E+02   -0.12576E+00   -0.65103E+01   784   0.226E+02  -0.165E+02
DMP:  45    -0.189573918668E+02   -0.58560E-01   -0.64688E+01   784   0.224E+02  -0.164E+02
DMP:  46    -0.190941183212E+02   -0.13673E+00   -0.59410E+01   784   0.206E+02  -0.151E+02
DMP:  47    -0.191541677333E+02   -0.60049E-01   -0.59255E+01   784   0.205E+02  -0.150E+02
DMP:  48    -0.192500247242E+02   -0.95857E-01   -0.55112E+01   784   0.191E+02  -0.139E+02
DMP:  49    -0.192838130748E+02   -0.33788E-01   -0.55854E+01   784   0.193E+02  -0.140E+02
DMP:  50    -0.193347107403E+02   -0.50898E-01   -0.52890E+01   784   0.183E+02  -0.132E+02
DMP:  51    -0.193409674831E+02   -0.62567E-02   -0.54509E+01   784   0.188E+02  -0.136E+02
DMP:  52    -0.193562225775E+02   -0.15255E-01   -0.52450E+01   784   0.181E+02  -0.130E+02
DMP:  53    -0.193399133883E+02    0.16309E-01   -0.54727E+01   784   0.189E+02  -0.135E+02
DMP:  54    -0.193362414147E+02    0.36720E-02   -0.53106E+01   784   0.183E+02  -0.131E+02
DMP:  55    -0.193099540662E+02    0.26287E-01   -0.55644E+01   784   0.192E+02  -0.137E+02
DMP:  56    -0.193038283533E+02    0.61257E-02   -0.54034E+01   784   0.186E+02  -0.134E+02
DMP:  57    -0.192784428829E+02    0.25385E-01   -0.56506E+01   784   0.195E+02  -0.140E+02
DMP:  58    -0.192803761217E+02   -0.19332E-02   -0.54652E+01   784   0.188E+02  -0.135E+02
DMP:  59    -0.192624175450E+02    0.17959E-01   -0.56884E+01   784   0.196E+02  -0.141E+02
DMP:  60    -0.192746328025E+02   -0.12215E-01   -0.54756E+01   784   0.189E+02  -0.136E+02
DMP:  61    -0.192643927076E+02    0.10240E-01   -0.56759E+01   784   0.196E+02  -0.141E+02
DMP:  62    -0.192836110944E+02   -0.19218E-01   -0.54459E+01   784   0.188E+02  -0.135E+02
DMP:  63    -0.192781276574E+02    0.54834E-02   -0.56335E+01   784   0.194E+02  -0.140E+02
DMP:  64    -0.192989468004E+02   -0.20819E-01   -0.54010E+01   784   0.186E+02  -0.134E+02
DMP:  65    -0.192942782951E+02    0.46685E-02   -0.55876E+01   784   0.193E+02  -0.139E+02
DMP:  66    -0.193129330441E+02   -0.18655E-01   -0.53620E+01   784   0.185E+02  -0.133E+02
DMP:  67    -0.193065354308E+02    0.63976E-02   -0.55549E+01   784   0.192E+02  -0.138E+02
DMP:  68    -0.193212923234E+02   -0.14757E-01   -0.53400E+01   784   0.184E+02  -0.133E+02
DMP:  69    -0.193122903965E+02    0.90019E-02   -0.55411E+01   784   0.191E+02  -0.137E+02
DMP:  70    -0.193238419808E+02   -0.11552E-01   -0.53343E+01   784   0.184E+02  -0.132E+02
DMP:  71    -0.193130292697E+02    0.10813E-01   -0.55405E+01   784   0.191E+02  -0.137E+02
DMP:  72    -0.193231529128E+02   -0.10124E-01   -0.53369E+01   784   0.184E+02  -0.132E+02
DMP:  73    -0.193118309869E+02    0.11322E-01   -0.55449E+01   784   0.191E+02  -0.137E+02
DMP:  74    -0.193213178456E+02   -0.94869E-02   -0.53429E+01   784   0.184E+02  -0.133E+02
DMP:  75    -0.193093225230E+02    0.11995E-01   -0.55527E+01   784   0.191E+02  -0.138E+02
DMP:  76    -0.193183987911E+02   -0.90763E-02   -0.53517E+01   784   0.185E+02  -0.133E+02
DMP:  77    -0.193060690944E+02    0.12330E-01   -0.55620E+01   784   0.192E+02  -0.138E+02
DMP:  78    -0.193155507120E+02   -0.94816E-02   -0.53594E+01   784   0.185E+02  -0.133E+02
DMP:  79    -0.193038106232E+02    0.11740E-01   -0.55676E+01   784   0.192E+02  -0.138E+02
DMP:  80    -0.193144789028E+02   -0.10668E-01   -0.53614E+01   784   0.185E+02  -0.133E+02
DMP:  81    -0.193039636732E+02    0.10515E-01   -0.55663E+01   784   0.192E+02  -0.138E+02
DMP:  82    -0.193155310420E+02   -0.11567E-01   -0.53578E+01   784   0.185E+02  -0.133E+02
DMP:  83    -0.193056658924E+02    0.98651E-02   -0.55610E+01   784   0.192E+02  -0.138E+02
DMP:  84    -0.193175420288E+02   -0.11876E-01   -0.53518E+01   784   0.185E+02  -0.133E+02
DMP:  85    -0.193079780191E+02    0.95640E-02   -0.55544E+01   784   0.191E+02  -0.138E+02
DMP:  86    -0.193195569595E+02   -0.11579E-01   -0.53462E+01   784   0.184E+02  -0.133E+02
DMP:  87    -0.193097477826E+02    0.98092E-02   -0.55496E+01   784   0.191E+02  -0.138E+02
DMP:  88    -0.193210662060E+02   -0.11318E-01   -0.53419E+01   784   0.184E+02  -0.133E+02
DMP:  89    -0.193112922170E+02    0.97740E-02   -0.55455E+01   784   0.191E+02  -0.138E+02
DMP:  90    -0.193221869443E+02   -0.10895E-01   -0.53391E+01   784   0.184E+02  -0.133E+02
DMP:  91    -0.193120429829E+02    0.10144E-01   -0.55439E+01   784   0.191E+02  -0.137E+02
DMP:  92    -0.193223431754E+02   -0.10300E-01   -0.53392E+01   784   0.184E+02  -0.133E+02
DMP:  93    -0.193115168784E+02    0.10826E-01   -0.55462E+01   784   0.191E+02  -0.138E+02
DMP:  94    -0.193210249237E+02   -0.95080E-02   -0.53434E+01   784   0.184E+02  -0.133E+02
DMP:  95    -0.193096861407E+02    0.11339E-01   -0.55514E+01   784   0.191E+02  -0.138E+02
DMP:  96    -0.193194466973E+02   -0.97606E-02   -0.53478E+01   784   0.184E+02  -0.133E+02
DMP:  97    -0.193082520549E+02    0.11195E-01   -0.55555E+01   784   0.191E+02  -0.138E+02
DMP:  98    -0.193182581941E+02   -0.10006E-01   -0.53508E+01   784   0.184E+02  -0.133E+02
DMP:  99    -0.193076238831E+02    0.10634E-01   -0.55565E+01   784   0.192E+02  -0.138E+02
DMP: 100    -0.193184703468E+02   -0.10846E-01   -0.53498E+01   784   0.184E+02  -0.133E+02
   9 F= -.19318470E+02 E0= -.19310655E+02  d E =0.129083E+00
       N       E                     dE             d eps       ncg     rms           ort
SDA:   1     0.566337896057E+02    0.75941E+02   -0.14201E+03   784   0.355E+03   0.000E+00
DMP:   2     0.580498860162E+02    0.14161E+01   -0.16619E+03   784   0.635E+03  -0.575E+03
DMP:   3    -0.530300469685E+01   -0.63353E+02   -0.20638E+02   784   0.107E+03  -0.144E+03
DMP:   4    -0.192598413001E+02   -0.13957E+02   -0.14553E+01   784   0.409E+01  -0.118E+01
DMP:   5    -0.186172379745E+02    0.64260E+00   -0.53803E+01   784   0.152E+02  -0.453E+01
DMP:   6    -0.192244140872E+02   -0.60718E+00   -0.41222E+01   784   0.145E+02  -0.110E+02
DMP:   7    -0.202482353972E+02   -0.10238E+01   -0.15756E+01   784   0.628E+01  -0.612E+01
DMP:   8    -0.209304107802E+02   -0.68218E+00   -0.30350E+00   784   0.128E+01  -0.137E+01
DMP:   9    -0.211122981547E+02   -0.18189E+00   -0.43302E-01   784   0.112E+00  -0.996E-02
DMP:  10    -0.211467851934E+02   -0.34487E-01   -0.34990E-01   784   0.641E-01   0.613E-01
DMP:  11    -0.211566929094E+02   -0.99077E-02   -0.36513E-01   784   0.990E-01  -0.203E-01
DMP:  12    -0.211707787211E+02   -0.14086E-01   -0.29993E-01   784   0.911E-01  -0.421E-01
DMP:  13    -0.211739174941E+02   -0.31388E-02   -0.20388E-01   784   0.663E-01  -0.402E-01
DMP:  14    -0.211828568073E+02   -0.89393E-02   -0.14798E-01   784   0.486E-01  -0.303E-01
DMP:  15    -0.211815849170E+02    0.12719E-02   -0.10758E-01   784   0.363E-01  -0.246E-01
DMP:  16    -0.211869321701E+02   -0.53473E-02   -0.88841E-02   784   0.299E-01  -0.201E-01
DMP:  17    -0.211841083824E+02    0.28238E-02   -0.78138E-02   784   0.266E-01  -0.184E-01
DMP:  18    -0.211880978301E+02   -0.39894E-02   -0.78448E-02   784   0.265E-01  -0.180E-01
DMP:  19    -0.211843679318E+02    0.37299E-02   -0.82103E-02   784   0.278E-01  -0.191E-01
DMP:  20    -0.211882124757E+02   -0.38445E-02   -0.91139E-02   784   0.308E-01  -0.209E-01
DMP:  21    -0.211836537772E+02    0.45587E-02   -0.10282E-01   784   0.348E-01  -0.237E-01
DMP:  22    -0.211877767493E+02   -0.41230E-02   -0.12109E-01   784   0.408E-01  -0.275E-01
DMP:  23    -0.211820151701E+02    0.57616E-02   -0.14444E-01   784   0.486E-01  -0.328E-01
DMP:  24    -0.211866146902E+02   -0.45995E-02   -0.17853E-01   784   0.599E-01  -0.398E-01
DMP:  25    -0.211789385144E+02    0.76762E-02   -0.22383E-01   784   0.749E-01  -0.497E-01
DMP:  26    -0.211840539882E+02   -0.51155E-02   -0.28990E-01   784   0.967E-01  -0.634E-01
DMP:  27    -0.211731303230E+02    0.10924E-01   -0.37981E-01   784   0.126E+00  -0.825E-01
DMP:  28    -0.211785153656E+02   -0.53850E-02   -0.51150E-01   784   0.170E+00  -0.110E+00
DMP:  29    -0.211619822007E+02    0.16533E-01   -0.69156E-01   784   0.229E+00  -0.148E+00
DMP:  30    -0.211666762500E+02   -0.46940E-02   -0.95756E-01   784   0.317E+00  -0.203E+00
DMP:  31    -0.211402674541E+02    0.26409E-01   -0.13218E+00   784   0.437E+00  -0.280E+00
DMP:  32    -0.211414427003E+02   -0.11752E-02   -0.18676E+00   784   0.617E+00  -0.393E+00
DMP:  33    -0.210971662655E+02    0.44276E-01   -0.26072E+00   784   0.861E+00  -0.548E+00
DMP:  34    -0.210880964606E+02    0.90698E-02   -0.37257E+00   784   0.123E+01  -0.782E+00
DMP:  35    -0.210114921500E+02    0.76604E-01   -0.52158E+00   784   0.172E+01  -0.109E+01
DMP:  36    -0.209767867917E+02    0.34705E-01   -0.74930E+00   784   0.247E+01  -0.157E+01
DMP:  37    -0.208430043818E+02    0.13378E+00   -0.10388E+01   784   0.343E+01  -0.218E+01
DMP:  38    -0.207543807461E+02    0.88624E-01   -0.14799E+01   784   0.489E+01  -0.313E+01
[...]
DMP:  88    -0.191561076913E+02    0.53145E-02   -0.57439E+01   784   0.198E+02  -0.143E+02
DMP:  89    -0.191626163681E+02   -0.65087E-02   -0.59918E+01   784   0.207E+02  -0.148E+02
DMP:  90    -0.191563501405E+02    0.62662E-02   -0.57438E+01   784   0.198E+02  -0.143E+02
DMP:  91    -0.191623793459E+02   -0.60292E-02   -0.59924E+01   784   0.207E+02  -0.148E+02
DMP:  92    -0.191559643237E+02    0.64150E-02   -0.57458E+01   784   0.198E+02  -0.143E+02
DMP:  93    -0.191605543589E+02   -0.45900E-02   -0.60002E+01   784   0.207E+02  -0.149E+02
DMP:  94    -0.191515204664E+02    0.90339E-02   -0.57598E+01   784   0.199E+02  -0.143E+02
DMP:  95    -0.191539065536E+02   -0.23861E-02   -0.60228E+01   784   0.208E+02  -0.149E+02
DMP:  96    -0.191426750731E+02    0.11231E-01   -0.57871E+01   784   0.199E+02  -0.144E+02
DMP:  97    -0.191429628507E+02   -0.28778E-03   -0.60549E+01   784   0.209E+02  -0.150E+02
DMP:  98    -0.191320984422E+02    0.10864E-01   -0.58166E+01   784   0.201E+02  -0.144E+02
DMP:  99    -0.191333031681E+02   -0.12047E-02   -0.60814E+01   784   0.210E+02  -0.151E+02
DMP: 100    -0.191247612442E+02    0.85419E-02   -0.58362E+01   784   0.201E+02  -0.145E+02
  27 F= -.19124761E+02 E0= -.19115599E+02  d E =0.132270E+00
       N       E                     dE             d eps       ncg     rms           ort
SDA:   1     0.582848120070E+02    0.77418E+02   -0.12688E+03   784   0.317E+03   0.000E+00
DMP:   2     0.492162446253E+02   -0.90686E+01   -0.13592E+03   784   0.539E+03  -0.522E+03
DMP:   3    -0.998276781463E+01   -0.59199E+02   -0.12738E+02   784   0.735E+02  -0.109E+03
DMP:   4    -0.193854837115E+02   -0.94027E+01   -0.22292E+01   784   0.414E+01   0.375E+01
DMP:   5    -0.182712177950E+02    0.11143E+01   -0.62680E+01   784   0.189E+02  -0.840E+01
DMP:   6    -0.192109645973E+02   -0.93975E+00   -0.40244E+01   784   0.146E+02  -0.120E+02
DMP:   7    -0.203388374941E+02   -0.11279E+01   -0.13556E+01   784   0.550E+01  -0.553E+01
DMP:   8    -0.209412943547E+02   -0.60246E+00   -0.25598E+00   784   0.106E+01  -0.109E+01
DMP:   9    -0.210993326720E+02   -0.15804E+00   -0.42227E-01   784   0.965E-01   0.236E-01
DMP:  10    -0.211331467401E+02   -0.33814E-01   -0.34487E-01   784   0.625E-01   0.620E-01
DMP:  11    -0.211453550060E+02   -0.12208E-01   -0.33282E-01   784   0.878E-01  -0.121E-01
DMP:  12    -0.211592509139E+02   -0.13896E-01   -0.25695E-01   784   0.757E-01  -0.300E-01
DMP:  13    -0.211637433646E+02   -0.44925E-02   -0.16104E-01   784   0.509E-01  -0.279E-01
DMP:  14    -0.211717968487E+02   -0.80535E-02   -0.10430E-01   784   0.331E-01  -0.183E-01
DMP:  15    -0.211718371946E+02   -0.40346E-04   -0.64415E-02   784   0.211E-01  -0.130E-01
DMP:  16    -0.211760011692E+02   -0.41640E-02   -0.44606E-02   784   0.145E-01  -0.872E-02
DMP:  17    -0.211747286010E+02    0.12726E-02   -0.32331E-02   784   0.107E-01  -0.686E-02
DMP:  18    -0.211772998117E+02   -0.25712E-02   -0.27976E-02   784   0.919E-02  -0.575E-02
DMP:  19    -0.211755850579E+02    0.17148E-02   -0.25399E-02   784   0.849E-02  -0.560E-02
DMP:  20    -0.211777619728E+02   -0.21769E-02   -0.25421E-02   784   0.848E-02  -0.557E-02
DMP:  21    -0.211757992728E+02    0.19627E-02   -0.25156E-02   784   0.851E-02  -0.582E-02
DMP:  22    -0.211779695061E+02   -0.21702E-02   -0.26254E-02   784   0.887E-02  -0.603E-02
DMP:  23    -0.211757948853E+02    0.21746E-02   -0.26944E-02   784   0.918E-02  -0.639E-02
DMP:  24    -0.211780615757E+02   -0.22667E-02   -0.28673E-02   784   0.974E-02  -0.673E-02
DMP:  25    -0.211756675417E+02    0.23940E-02   -0.30226E-02   784   0.103E-01  -0.722E-02
DMP:  26    -0.211780814980E+02   -0.24140E-02   -0.32847E-02   784   0.112E-01  -0.775E-02
DMP:  27    -0.211754126181E+02    0.26689E-02   -0.35700E-02   784   0.122E-01  -0.847E-02
DMP:  28    -0.211780318768E+02   -0.26193E-02   -0.39837E-02   784   0.135E-01  -0.934E-02
DMP:  29    -0.211749917730E+02    0.30401E-02   -0.44436E-02   784   0.151E-01  -0.105E-01
DMP:  30    -0.211778976240E+02   -0.29059E-02   -0.50639E-02   784   0.172E-01  -0.118E-01
DMP:  31    -0.211743657270E+02    0.35319E-02   -0.57642E-02   784   0.196E-01  -0.135E-01
DMP:  32    -0.211776428438E+02   -0.32771E-02   -0.66674E-02   784   0.226E-01  -0.154E-01
DMP:  33    -0.211734786879E+02    0.41642E-02   -0.77061E-02   784   0.261E-01  -0.179E-01
DMP:  34    -0.211772057539E+02   -0.37271E-02   -0.90264E-02   784   0.305E-01  -0.208E-01
DMP:  35    -0.211722237313E+02    0.49820E-02   -0.10570E-01   784   0.357E-01  -0.244E-01
DMP:  36    -0.211764814384E+02   -0.42577E-02   -0.12510E-01   784   0.422E-01  -0.287E-01
DMP:  37    -0.211704471505E+02    0.60343E-02   -0.14796E-01   784   0.500E-01  -0.339E-01
DMP:  38    -0.211753109572E+02   -0.48638E-02   -0.17659E-01   784   0.596E-01  -0.404E-01
DMP:  39    -0.211679175248E+02    0.73934E-02   -0.21049E-01   784   0.710E-01  -0.481E-01
DMP:  40    -0.211734479434E+02   -0.55304E-02   -0.25321E-01   784   0.853E-01  -0.577E-01
DMP:  41    -0.211642672815E+02    0.91807E-02   -0.30391E-01   784   0.102E+00  -0.692E-01
DMP:  42    -0.211704947121E+02   -0.62274E-02   -0.36861E-01   784   0.124E+00  -0.837E-01
DMP:  43    -0.211588839236E+02    0.11611E-01   -0.44675E-01   784   0.150E+00  -0.101E+00
DMP:  44    -0.211656977663E+02   -0.68138E-02   -0.54912E-01   784   0.185E+00  -0.124E+00
DMP:  45    -0.211505760317E+02    0.15122E-01   -0.67401E-01   784   0.226E+00  -0.152E+00
DMP:  46    -0.211576815903E+02   -0.71056E-02   -0.84142E-01   784   0.282E+00  -0.188E+00
DMP:  47    -0.211373000619E+02    0.20382E-01   -0.10478E+00   784   0.351E+00  -0.234E+00
DMP:  48    -0.211438964685E+02   -0.65964E-02   -0.13307E+00   784   0.446E+00  -0.296E+00
DMP:  49    -0.211153668341E+02    0.28530E-01   -0.16806E+00   784   0.562E+00  -0.372E+00
DMP:  50    -0.211196747106E+02   -0.43079E-02   -0.21715E+00   784   0.726E+00  -0.479E+00
DMP:  51    -0.210781037937E+02    0.41571E-01   -0.27786E+00   784   0.928E+00  -0.610E+00
DMP:  52    -0.210763263558E+02    0.17774E-02   -0.36432E+00   784   0.122E+01  -0.799E+00
DMP:  53    -0.210141852035E+02    0.62141E-01   -0.46827E+00   784   0.156E+01  -0.103E+01
DMP:  54    -0.210001933750E+02    0.13992E-01   -0.61662E+00   784   0.206E+01  -0.135E+01
DMP:  55    -0.209078288437E+02    0.92365E-01   -0.78646E+00   784   0.262E+01  -0.172E+01
DMP:  56    -0.208725939519E+02    0.35235E-01   -0.10303E+01   784   0.344E+01  -0.227E+01
DMP:  57    -0.207390717793E+02    0.13352E+00   -0.12909E+01   784   0.432E+01  -0.285E+01
DMP:  58    -0.206713925246E+02    0.67679E-01   -0.16682E+01   784   0.558E+01  -0.370E+01
DMP:  59    -0.204891088625E+02    0.18228E+00   -0.20336E+01   784   0.682E+01  -0.453E+01
DMP:  60    -0.203798339679E+02    0.10927E+00   -0.25693E+01   784   0.863E+01  -0.578E+01
DMP:  61    -0.201544747432E+02    0.22536E+00   -0.30162E+01   784   0.101E+02  -0.683E+01
DMP:  62    -0.200064146843E+02    0.14806E+00   -0.36904E+01   784   0.125E+02  -0.844E+01
DMP:  63    -0.197647100963E+02    0.24170E+00   -0.41410E+01   784   0.140E+02  -0.956E+01
DMP:  64    -0.196000528216E+02    0.16466E+00   -0.48677E+01   784   0.165E+02  -0.114E+02
DMP:  65    -0.193886313628E+02    0.21142E+00   -0.51988E+01   784   0.177E+02  -0.123E+02
DMP:  66    -0.192462471837E+02    0.14238E+00   -0.58548E+01   784   0.200E+02  -0.140E+02
DMP:  67    -0.191017154419E+02    0.14453E+00   -0.59808E+01   784   0.205E+02  -0.144E+02
DMP:  68    -0.190085882379E+02    0.93127E-01   -0.64900E+01   784   0.222E+02  -0.158E+02
DMP:  69    -0.189372484352E+02    0.71340E-01   -0.64084E+01   784   0.220E+02  -0.157E+02
DMP:  70    -0.188956512113E+02    0.41597E-01   -0.67756E+01   784   0.233E+02  -0.167E+02
DMP:  71    -0.188753189424E+02    0.20332E-01   -0.65543E+01   784   0.226E+02  -0.162E+02
DMP:  72    -0.188690673430E+02    0.62516E-02   -0.68298E+01   784   0.235E+02  -0.169E+02
DMP:  73    -0.188746884760E+02   -0.56211E-02   -0.65380E+01   784   0.226E+02  -0.163E+02
DMP:  74    -0.188891195838E+02   -0.14431E-01   -0.67614E+01   784   0.233E+02  -0.168E+02
DMP:  75    -0.189063847352E+02   -0.17265E-01   -0.64386E+01   784   0.222E+02  -0.160E+02
DMP:  76    -0.189318178225E+02   -0.25433E-01   -0.66329E+01   784   0.229E+02  -0.165E+02
DMP:  77    -0.189534756156E+02   -0.21658E-01   -0.63008E+01   784   0.218E+02  -0.157E+02
DMP:  78    -0.189844591169E+02   -0.30984E-01   -0.64795E+01   784   0.224E+02  -0.161E+02
DMP:  79    -0.190054881872E+02   -0.21029E-01   -0.61527E+01   784   0.212E+02  -0.154E+02
DMP:  80    -0.190377357636E+02   -0.32248E-01   -0.63271E+01   784   0.218E+02  -0.158E+02
DMP:  81    -0.190547703106E+02   -0.17035E-01   -0.60148E+01   784   0.208E+02  -0.150E+02
DMP:  82    -0.190851922325E+02   -0.30422E-01   -0.61944E+01   784   0.214E+02  -0.154E+02
DMP:  83    -0.190961608128E+02   -0.10969E-01   -0.59005E+01   784   0.204E+02  -0.147E+02
DMP:  84    -0.191231944371E+02   -0.27034E-01   -0.60889E+01   784   0.210E+02  -0.151E+02
DMP:  85    -0.191278835405E+02   -0.46891E-02   -0.58133E+01   784   0.201E+02  -0.145E+02
DMP:  86    -0.191520250738E+02   -0.24142E-01   -0.60100E+01   784   0.207E+02  -0.149E+02
DMP:  87    -0.191513109739E+02    0.71410E-03   -0.57515E+01   784   0.198E+02  -0.143E+02
DMP:  88    -0.191706726848E+02   -0.19362E-01   -0.59598E+01   784   0.206E+02  -0.148E+02
DMP:  89    -0.191648126559E+02    0.58600E-02   -0.57160E+01   784   0.197E+02  -0.142E+02
DMP:  90    -0.191811980336E+02   -0.16385E-01   -0.59325E+01   784   0.205E+02  -0.147E+02
DMP:  91    -0.191715125296E+02    0.96855E-02   -0.56998E+01   784   0.197E+02  -0.142E+02
DMP:  92    -0.191848916903E+02   -0.13379E-01   -0.59236E+01   784   0.204E+02  -0.147E+02
DMP:  93    -0.191731340503E+02    0.11758E-01   -0.56963E+01   784   0.196E+02  -0.141E+02
DMP:  94    -0.191853344845E+02   -0.12200E-01   -0.59229E+01   784   0.204E+02  -0.147E+02
DMP:  95    -0.191727850328E+02    0.12549E-01   -0.56983E+01   784   0.196E+02  -0.141E+02
DMP:  96    -0.191839749735E+02   -0.11190E-01   -0.59265E+01   784   0.204E+02  -0.147E+02
DMP:  97    -0.191717145063E+02    0.12260E-01   -0.57006E+01   784   0.197E+02  -0.142E+02
DMP:  98    -0.191832559572E+02   -0.11541E-01   -0.59296E+01   784   0.204E+02  -0.147E+02
DMP:  99    -0.191696181032E+02    0.13638E-01   -0.57079E+01   784   0.197E+02  -0.142E+02
DMP: 100    -0.191787600421E+02   -0.91419E-02   -0.59465E+01   784   0.205E+02  -0.147E+02
  28 F= -.19178760E+02 E0= -.19171278E+02  d E =0.782715E-01
       N       E                     dE             d eps       ncg     rms           ort
SDA:   1     0.588363016144E+02    0.78006E+02   -0.11067E+03   784   0.277E+03   0.000E+00
DMP:   2     0.547416535519E+02   -0.40946E+01   -0.14104E+03   784   0.549E+03  -0.513E+03
DMP:   3    -0.672251140628E+01   -0.61464E+02   -0.17527E+02   784   0.939E+02  -0.131E+03
DMP:   4    -0.192200916026E+02   -0.12498E+02   -0.17047E+01   784   0.393E+01   0.856E+00
DMP:   5    -0.185496704827E+02    0.67042E+00   -0.52418E+01   784   0.150E+02  -0.496E+01
DMP:   6    -0.191624548300E+02   -0.61278E+00   -0.43260E+01   784   0.152E+02  -0.115E+02
DMP:   7    -0.201728548702E+02   -0.10104E+01   -0.15990E+01   784   0.626E+01  -0.592E+01
DMP:   8    -0.209059500852E+02   -0.73310E+00   -0.41818E+00   784   0.170E+01  -0.171E+01
DMP:   9    -0.210821655729E+02   -0.17622E+00   -0.74677E-01   784   0.247E+00  -0.159E+00
DMP:  10    -0.211464838266E+02   -0.64318E-01   -0.23597E-01   784   0.359E-01   0.605E-01
DMP:  11    -0.211659269072E+02   -0.19443E-01   -0.20413E-01   784   0.404E-01   0.278E-01
DMP:  12    -0.211697362206E+02   -0.38093E-02   -0.17374E-01   784   0.443E-01  -0.227E-02
DMP:  13    -0.211815991929E+02   -0.11863E-01   -0.12716E-01   784   0.370E-01  -0.137E-01
DMP:  14    -0.211804051311E+02    0.11941E-02   -0.88614E-02   784   0.272E-01  -0.131E-01
DMP:  15    -0.211871736854E+02   -0.67686E-02   -0.60648E-02   784   0.194E-01  -0.112E-01
DMP:  16    -0.211849323522E+02    0.22413E-02   -0.43821E-02   784   0.143E-01  -0.866E-02
DMP:  17    -0.211889273355E+02   -0.39950E-02   -0.32811E-02   784   0.109E-01  -0.709E-02
DMP:  18    -0.211866391450E+02    0.22882E-02   -0.27786E-02   784   0.925E-02  -0.604E-02
DMP:  19    -0.211894825562E+02   -0.28434E-02   -0.24567E-02   784   0.829E-02  -0.564E-02
DMP:  20    -0.211872019960E+02    0.22806E-02   -0.23329E-02   784   0.789E-02  -0.538E-02
DMP:  21    -0.211896861750E+02   -0.24842E-02   -0.22171E-02   784   0.757E-02  -0.530E-02
DMP:  22    -0.211874303112E+02    0.22559E-02   -0.21811E-02   784   0.745E-02  -0.522E-02
DMP:  23    -0.211897798393E+02   -0.23495E-02   -0.21563E-02   784   0.739E-02  -0.523E-02
DMP:  24    -0.211874989043E+02    0.22809E-02   -0.21881E-02   784   0.749E-02  -0.529E-02
DMP:  25    -0.211898229602E+02   -0.23241E-02   -0.22402E-02   784   0.767E-02  -0.542E-02
DMP:  26    -0.211874468598E+02    0.23761E-02   -0.23558E-02   784   0.805E-02  -0.566E-02
DMP:  27    -0.211898297533E+02   -0.23829E-02   -0.25116E-02   784   0.857E-02  -0.601E-02
DMP:  28    -0.211872555483E+02    0.25742E-02   -0.27591E-02   784   0.939E-02  -0.652E-02
DMP:  29    -0.211897925945E+02   -0.25370E-02   -0.30884E-02   784   0.105E-01  -0.724E-02
DMP:  30    -0.211868598968E+02    0.29327E-02   -0.35482E-02   784   0.120E-01  -0.824E-02
DMP:  31    -0.211896784850E+02   -0.28186E-02   -0.41264E-02   784   0.140E-01  -0.952E-02
DMP:  32    -0.211861997409E+02    0.34787E-02   -0.48986E-02   784   0.165E-01  -0.112E-01
DMP:  33    -0.211894242509E+02   -0.32245E-02   -0.58730E-02   784   0.198E-01  -0.134E-01
DMP:  34    -0.211851489353E+02    0.42753E-02   -0.71624E-02   784   0.241E-01  -0.162E-01
DMP:  35    -0.211889042512E+02   -0.37553E-02   -0.88219E-02   784   0.296E-01  -0.198E-01
DMP:  36    -0.211834613147E+02    0.54429E-02   -0.11029E-01   784   0.370E-01  -0.246E-01
DMP:  37    -0.211878614558E+02   -0.44001E-02   -0.13933E-01   784   0.466E-01  -0.309E-01
DMP:  38    -0.211806752707E+02    0.71862E-02   -0.17805E-01   784   0.595E-01  -0.393E-01
DMP:  39    -0.211857960141E+02   -0.51207E-02   -0.22997E-01   784   0.768E-01  -0.505E-01
DMP:  40    -0.211759492972E+02    0.98467E-02   -0.29968E-01   784   0.999E-01  -0.655E-01
DMP:  41    -0.211817053738E+02   -0.57561E-02   -0.39538E-01   784   0.132E+00  -0.860E-01
DMP:  42    -0.211676462169E+02    0.14059E-01   -0.52408E-01   784   0.174E+00  -0.113E+00
DMP:  43    -0.211735804574E+02   -0.59342E-02   -0.70425E-01   784   0.234E+00  -0.152E+00
DMP:  44    -0.211526450998E+02    0.20935E-01   -0.94669E-01   784   0.314E+00  -0.203E+00
DMP:  45    -0.211573793590E+02   -0.47343E-02   -0.12907E+00   784   0.428E+00  -0.277E+00
DMP:  46    -0.211250715336E+02    0.32308E-01   -0.17482E+00   784   0.580E+00  -0.374E+00
DMP:  47    -0.211254005653E+02   -0.32903E-03   -0.24078E+00   784   0.798E+00  -0.514E+00
DMP:  48    -0.210739388230E+02    0.51462E-01   -0.32690E+00   784   0.108E+01  -0.697E+00
DMP:  49    -0.210629950328E+02    0.10944E-01   -0.45247E+00   784   0.150E+01  -0.966E+00
DMP:  50    -0.209796244450E+02    0.83371E-01   -0.61207E+00   784   0.203E+01  -0.131E+01
DMP:  51    -0.209434614681E+02    0.36163E-01   -0.84921E+00   784   0.282E+01  -0.181E+01
DMP:  52    -0.208072469985E+02    0.13621E+00   -0.11375E+01   784   0.377E+01  -0.243E+01
DMP:  53    -0.207212820482E+02    0.85965E-01   -0.15693E+01   784   0.521E+01  -0.337E+01
DMP:  54    -0.205060409695E+02    0.21524E+00   -0.20541E+01   784   0.682E+01  -0.442E+01
DMP:  55    -0.203374359580E+02    0.16861E+00   -0.27785E+01   784   0.925E+01  -0.603E+01
DMP:  56    -0.200279238617E+02    0.30951E+00   -0.34911E+01   784   0.116E+02  -0.764E+01
DMP:  57    -0.197561610567E+02    0.27176E+00   -0.45441E+01   784   0.152E+02  -0.101E+02
DMP:  58    -0.193841654948E+02    0.37200E+00   -0.53842E+01   784   0.181E+02  -0.121E+02
DMP:  59    -0.190394584774E+02    0.34471E+00   -0.66166E+01   784   0.223E+02  -0.151E+02
DMP:  60    -0.187089497459E+02    0.33051E+00   -0.73088E+01   784   0.247E+02  -0.169E+02
DMP:  61    -0.183801568510E+02    0.32879E+00   -0.84274E+01   784   0.286E+02  -0.198E+02
DMP:  62    -0.181884728589E+02    0.19168E+00   -0.87274E+01   784   0.298E+02  -0.209E+02
DMP:  63    -0.179522786482E+02    0.23619E+00   -0.95246E+01   784   0.326E+02  -0.230E+02
DMP:  64    -0.179204612132E+02    0.31817E-01   -0.94002E+01   784   0.323E+02  -0.230E+02
DMP:  65    -0.177857287051E+02    0.13473E+00   -0.99003E+01   784   0.341E+02  -0.244E+02
DMP:  66    -0.178565310193E+02   -0.70802E-01   -0.95239E+01   784   0.328E+02  -0.236E+02
DMP:  67    -0.177714855779E+02    0.85045E-01   -0.99052E+01   784   0.341E+02  -0.245E+02
DMP:  68    -0.178701191082E+02   -0.98634E-01   -0.94642E+01   784   0.326E+02  -0.235E+02
DMP:  69    -0.177912808960E+02    0.78838E-01   -0.98545E+01   784   0.340E+02  -0.244E+02
DMP:  70    -0.178850294531E+02   -0.93749E-01   -0.94193E+01   784   0.325E+02  -0.234E+02
DMP:  71    -0.178056673136E+02    0.79362E-01   -0.98100E+01   784   0.338E+02  -0.243E+02
DMP:  72    -0.179063027376E+02   -0.10064E+00   -0.93514E+01   784   0.323E+02  -0.232E+02
DMP:  73    -0.178400259003E+02    0.66277E-01   -0.96987E+01   784   0.334E+02  -0.241E+02
DMP:  74    -0.179556906085E+02   -0.11566E+00   -0.92018E+01   784   0.318E+02  -0.229E+02
DMP:  75    -0.179042566208E+02    0.51434E-01   -0.95044E+01   784   0.328E+02  -0.236E+02
DMP:  76    -0.180284722492E+02   -0.12422E+00   -0.89904E+01   784   0.310E+02  -0.224E+02
DMP:  77    -0.179841004693E+02    0.44372E-01   -0.92766E+01   784   0.320E+02  -0.231E+02
DMP:  78    -0.181033148076E+02   -0.11921E+00   -0.87806E+01   784   0.303E+02  -0.219E+02
DMP:  79    -0.180563768321E+02    0.46938E-01   -0.90776E+01   784   0.313E+02  -0.226E+02
DMP:  80    -0.181641484312E+02   -0.10777E+00   -0.86143E+01   784   0.297E+02  -0.215E+02
DMP:  81    -0.181104591213E+02    0.53689E-01   -0.89329E+01   784   0.308E+02  -0.222E+02
DMP:  82    -0.182053908967E+02   -0.94932E-01   -0.85043E+01   784   0.293E+02  -0.211E+02
DMP:  83    -0.181445090498E+02    0.60882E-01   -0.88433E+01   784   0.305E+02  -0.219E+02
DMP:  84    -0.182302962537E+02   -0.85787E-01   -0.84389E+01   784   0.291E+02  -0.210E+02
DMP:  85    -0.181648294582E+02    0.65467E-01   -0.87893E+01   784   0.303E+02  -0.218E+02
DMP:  86    -0.182458147767E+02   -0.80985E-01   -0.83978E+01   784   0.290E+02  -0.208E+02
DMP:  87    -0.181777830104E+02    0.68032E-01   -0.87559E+01   784   0.302E+02  -0.217E+02
DMP:  88    -0.182544052250E+02   -0.76622E-01   -0.83775E+01   784   0.289E+02  -0.208E+02
DMP:  89    -0.181817184154E+02    0.72687E-01   -0.87473E+01   784   0.301E+02  -0.216E+02
DMP:  90    -0.182551316593E+02   -0.73413E-01   -0.83776E+01   784   0.289E+02  -0.208E+02
DMP:  91    -0.181803680910E+02    0.74764E-01   -0.87510E+01   784   0.301E+02  -0.217E+02
DMP:  92    -0.182536353492E+02   -0.73267E-01   -0.83826E+01   784   0.289E+02  -0.208E+02
DMP:  93    -0.181782184017E+02    0.75417E-01   -0.87568E+01   784   0.302E+02  -0.217E+02
DMP:  94    -0.182511812512E+02   -0.72963E-01   -0.83919E+01   784   0.289E+02  -0.208E+02
DMP:  95    -0.181705109515E+02    0.80670E-01   -0.87863E+01   784   0.303E+02  -0.217E+02
DMP:  96    -0.182340209735E+02   -0.63510E-01   -0.84475E+01   784   0.291E+02  -0.209E+02
DMP:  97    -0.181422973819E+02    0.91724E-01   -0.88762E+01   784   0.306E+02  -0.219E+02
DMP:  98    -0.181998120563E+02   -0.57515E-01   -0.85486E+01   784   0.294E+02  -0.211E+02
DMP:  99    -0.181048327268E+02    0.94979E-01   -0.89796E+01   784   0.309E+02  -0.222E+02
DMP: 100    -0.181694283049E+02   -0.64596E-01   -0.86309E+01   784   0.297E+02  -0.214E+02
  29 F= -.18169428E+02 E0= -.18160540E+02  d E =0.108760E+01
