<?xml version="1.0" encoding="ISO-8859-1"?>
<modeling>
 <generator>
  <i name="program" type="string">vasp </i>
  <i name="version" type="string">6.5.1  </i>
  <i name="subversion" type="string">10Mar25 (build May 05 2025 13:45:00) complex                          parallel </i>
  <i name="platform" type="string">LinuxIFC </i>
  <i name="date" type="string">2026 04 28 </i>
  <i name="time" type="string">06:47:51 </i>
 </generator>
 <incar>
  <i type="string" name="PREC">Normal</i>
  <i type="string" name="ALGO">Damped</i>
  <i type="int" name="NELM">   100</i>
  <i type="int" name="IBRION">     2</i>
  <i name="EDIFF">      0.00000010</i>
  <i name="EDIFFG">     -0.00500000</i>
  <i type="int" name="NSW">   300</i>
  <i type="int" name="ISIF">     3</i>
  <i name="ENCUT">    400.00000000</i>
  <i type="logical" name="LREAL"> F  </i>
  <i name="TIME">      0.40000000</i>
  <i type="int" name="ISMEAR">     0</i>
  <i name="SIGMA">      0.10000000</i>
  <i type="logical" name="LWAVE"> T  </i>
  <i type="logical" name="LCHARG"> F  </i>
  <i type="int" name="LORBIT">    10</i>
  <i type="logical" name="LASPH"> T  </i>
  <i name="HFSCREEN">      0.20000000</i>
  <i type="logical" name="LHFCALC"> T  </i>
  <i name="AEXX">      0.36000000</i>
  <i type="string" name="PRECFOCK">Fast</i>
 </incar>
 <primitive_cell>
  <structure name="primitive_cell" >
   <crystal>
    <varray name="basis" >
     <v>       3.71007376       0.00000000       0.00000000 </v>
     <v>      -1.85503688       3.21301812       0.00000000 </v>
     <v>       0.00000000       0.00000000      11.89921547 </v>
    </varray>
    <i name="volume">    141.84500511 </i>
    <varray name="rec_basis" >
     <v>       0.26953642       0.15561692       0.00000000 </v>
     <v>       0.00000000       0.31123385       0.00000000 </v>
     <v>       0.00000000       0.00000000       0.08403915 </v>
    </varray>
   </crystal>
   <varray name="positions" >
    <v>       0.00000000       0.00000000       0.00000000 </v>
    <v>       0.00000000       0.00000000       0.50000000 </v>
    <v>       0.33333333       0.66666667       0.25000000 </v>
    <v>       0.66666667       0.33333333       0.75000000 </v>
   </varray>
  </structure>
  <varray name="primitive_index" >
   <v type="int" >        1 </v>
   <v type="int" >        2 </v>
   <v type="int" >        3 </v>
   <v type="int" >        4 </v>
  </varray>
 </primitive_cell>
 <kpoints>
  <generation param="Gamma">
   <v type="int" name="divisions">      10       10        3 </v>
   <v name="usershift">      0.00000000       0.00000000       0.00000000 </v>
   <v name="genvec1">      0.10000000       0.00000000       0.00000000 </v>
   <v name="genvec2">      0.00000000       0.10000000       0.00000000 </v>
   <v name="genvec3">      0.00000000       0.00000000       0.33333333 </v>
   <v name="shift">      0.00000000       0.00000000       0.00000000 </v>
  </generation>
  <varray name="kpointlist" >
   <v>       0.00000000       0.00000000       0.00000000 </v>
   <v>       0.10000000       0.00000000       0.00000000 </v>
   <v>       0.20000000       0.00000000       0.00000000 </v>
   <v>       0.30000000       0.00000000       0.00000000 </v>
   <v>       0.40000000       0.00000000       0.00000000 </v>
   <v>       0.50000000       0.00000000       0.00000000 </v>
   <v>       0.10000000       0.10000000       0.00000000 </v>
   <v>       0.20000000       0.10000000       0.00000000 </v>
   <v>       0.30000000       0.10000000       0.00000000 </v>
   <v>       0.40000000       0.10000000       0.00000000 </v>
   <v>       0.20000000       0.20000000       0.00000000 </v>
   <v>       0.30000000       0.20000000       0.00000000 </v>
   <v>       0.40000000       0.20000000       0.00000000 </v>
   <v>       0.30000000       0.30000000       0.00000000 </v>
   <v>       0.00000000       0.00000000       0.33333333 </v>
   <v>       0.10000000       0.00000000       0.33333333 </v>
   <v>       0.20000000       0.00000000       0.33333333 </v>
   <v>       0.30000000       0.00000000       0.33333333 </v>
   <v>       0.40000000       0.00000000       0.33333333 </v>
   <v>       0.50000000       0.00000000       0.33333333 </v>
   <v>       0.10000000       0.10000000       0.33333333 </v>
   <v>       0.20000000       0.10000000       0.33333333 </v>
   <v>       0.30000000       0.10000000       0.33333333 </v>
   <v>       0.40000000       0.10000000       0.33333333 </v>
   <v>       0.20000000       0.20000000       0.33333333 </v>
   <v>       0.30000000       0.20000000       0.33333333 </v>
   <v>       0.40000000       0.20000000       0.33333333 </v>
   <v>       0.30000000       0.30000000       0.33333333 </v>
  </varray>
  <varray name="weights" >
   <v>       0.00333333 </v>
   <v>       0.02000000 </v>
   <v>       0.02000000 </v>
   <v>       0.02000000 </v>
   <v>       0.02000000 </v>
   <v>       0.01000000 </v>
   <v>       0.02000000 </v>
   <v>       0.04000000 </v>
   <v>       0.04000000 </v>
   <v>       0.04000000 </v>
   <v>       0.02000000 </v>
   <v>       0.04000000 </v>
   <v>       0.02000000 </v>
   <v>       0.02000000 </v>
   <v>       0.00666667 </v>
   <v>       0.04000000 </v>
   <v>       0.04000000 </v>
   <v>       0.04000000 </v>
   <v>       0.04000000 </v>
   <v>       0.02000000 </v>
   <v>       0.04000000 </v>
   <v>       0.08000000 </v>
   <v>       0.08000000 </v>
   <v>       0.08000000 </v>
   <v>       0.04000000 </v>
   <v>       0.08000000 </v>
   <v>       0.04000000 </v>
   <v>       0.04000000 </v>
  </varray>
 </kpoints>
 <parameters>
  <separator name="general" >
   <i type="string" name="SYSTEM">unknown system</i>
   <i type="logical" name="LCOMPAT"> F  </i>
  </separator>
  <separator name="electronic" >
   <i type="string" name="PREC">normal</i>
   <i name="ENMAX">    400.00000000</i>
   <i name="ENAUG">    299.02100000</i>
   <i name="EDIFF">      0.00000010</i>
   <i type="int" name="IALGO">    53</i>
   <i type="int" name="IWAVPR">    11</i>
   <i type="int" name="NBANDS">    28</i>
   <i type="int" name="NBANDSLOW">    -1</i>
   <i type="int" name="NBANDSHIGH">    -1</i>
   <i name="NELECT">     44.00000000</i>
   <i type="int" name="TURBO">     0</i>
   <i type="int" name="IRESTART">     0</i>
   <i type="int" name="NREBOOT">     0</i>
   <i type="int" name="NMIN">     0</i>
   <i name="EREF">      0.00000000</i>
   <separator name="electronic smearing" >
    <i type="int" name="ISMEAR">     0</i>
    <i name="SIGMA">      0.10000000</i>
    <i name="KSPACING">      0.50000000</i>
    <i type="logical" name="KGAMMA"> T  </i>
    <i type="logical" name="KBLOWUP"> T  </i>
   </separator>
   <separator name="electronic projectors" >
    <i type="logical" name="LREAL"> F  </i>
    <v name="ROPT">      0.00000000</v>
    <i type="int" name="LMAXPAW">  -100</i>
    <i type="int" name="LMAXMIX">     2</i>
    <i type="logical" name="NLSPLINE"> F  </i>
   </separator>
   <separator name="electronic startup" >
    <i type="int" name="ISTART">     0</i>
    <i type="int" name="ICHARG">     2</i>
    <i type="int" name="INIWAV">     1</i>
   </separator>
   <separator name="electronic spin" >
    <i type="int" name="ISPIN">     1</i>
    <i type="logical" name="LNONCOLLINEAR"> F  </i>
    <v name="MAGMOM">      1.00000000      1.00000000      1.00000000      1.00000000</v>
    <i name="NUPDOWN">     -1.00000000</i>
    <i type="logical" name="LSORBIT"> F  </i>
    <v name="SAXIS">      0.00000000      0.00000000      1.00000000</v>
    <i type="logical" name="LSPIRAL"> F  </i>
    <v name="QSPIRAL">      0.00000000      0.00000000      0.00000000</v>
    <i type="logical" name="LZEROZ"> F  </i>
   </separator>
   <separator name="electronic exchange-correlation" >
    <i type="logical" name="LASPH"> T  </i>
   </separator>
   <separator name="electronic convergence" >
    <i type="int" name="NELM">   100</i>
    <i type="int" name="NELMDL">    -5</i>
    <i type="int" name="NELMIN">     2</i>
    <i name="ENINI">    400.00000000</i>
    <separator name="electronic convergence detail" >
     <i type="logical" name="LDIAG"> T  </i>
     <i type="logical" name="LSUBROT"> F  </i>
     <i type="logical" name="LROBUST"> F  </i>
     <i type="int" name="ISEARCH">     0</i>
     <i name="WEIMIN">      0.00100000</i>
     <i name="EBREAK">      0.00000000</i>
     <i name="DEPER">      0.30000000</i>
     <i type="int" name="NRMM">     4</i>
     <i name="TIME">      0.40000000</i>
    </separator>
   </separator>
   <separator name="electronic mixer" >
    <i name="AMIX">      0.40000000</i>
    <i name="BMIX">      1.00000000</i>
    <i name="AMIN">      0.10000000</i>
    <i name="AMIX_MAG">      1.60000000</i>
    <i name="BMIX_MAG">      1.00000000</i>
    <separator name="electronic mixer details" >
     <i type="int" name="IMIX">     4</i>
     <i type="logical" name="MIXFIRST"> F  </i>
     <i type="int" name="MAXMIX">   -45</i>
     <i name="WC">    100.00000000</i>
     <i type="int" name="INIMIX">     1</i>
     <i type="int" name="MIXPRE">     1</i>
     <i type="int" name="MREMOVE">     5</i>
    </separator>
   </separator>
   <separator name="electronic dipolcorrection" >
    <i type="logical" name="LDIPOL"> F  </i>
    <i type="logical" name="LMONO"> F  </i>
    <i type="int" name="IDIPOL">     0</i>
    <i name="EPSILON">      1.00000000</i>
    <v name="DIPOL">   -100.00000000   -100.00000000   -100.00000000</v>
    <i name="EFIELD">      0.00000000</i>
    <i type="logical" name="LVACPOTAV"> F  </i>
   </separator>
  </separator>
  <separator name="grids" >
   <i type="int" name="NGX">    18</i>
   <i type="int" name="NGY">    18</i>
   <i type="int" name="NGZ">    60</i>
   <i type="int" name="NGXF">    36</i>
   <i type="int" name="NGYF">    36</i>
   <i type="int" name="NGZF">   120</i>
   <i type="logical" name="ADDGRID"> F  </i>
  </separator>
  <separator name="ionic" >
   <i type="int" name="NSW">   300</i>
   <i type="int" name="IBRION">     2</i>
   <i type="int" name="MDALGO">     0</i>
   <i type="int" name="ISIF">     3</i>
   <i name="PSTRESS">      0.00000000</i>
   <i name="EDIFFG">     -0.00500000</i>
   <i type="int" name="NFREE">     1</i>
   <i name="POTIM">      0.50000000</i>
   <i name="SMASS">     -3.00000000</i>
   <i name="SCALEE">      1.00000000</i>
  </separator>
  <separator name="ionic md" >
   <i name="TEBEG">      0.00010000</i>
   <i name="TEEND">      0.00010000</i>
   <i type="int" name="NBLOCK">     1</i>
   <i type="int" name="KBLOCK">   300</i>
   <i type="int" name="NPACO">   256</i>
   <i name="APACO">     10.00000000</i>
  </separator>
  <separator name="symmetry" >
   <i type="int" name="ISYM">     3</i>
   <i name="SYMPREC">      0.00001000</i>
  </separator>
  <separator name="dos" >
   <i type="int" name="LORBIT">    10</i>
   <v name="RWIGS">     -1.00000000</v>
   <i type="int" name="NEDOS">   301</i>
   <i name="EMIN">     10.00000000</i>
   <i name="EMAX">    -10.00000000</i>
   <i name="EFERMI">      0.00000000</i>
  </separator>
  <separator name="writing" >
   <i type="int" name="NWRITE">     2</i>
   <i type="logical" name="LWAVE"> T  </i>
   <i type="logical" name="LDOWNSAMPLE"> F  </i>
   <i type="logical" name="LCHARG"> F  </i>
   <i type="logical" name="LPARD"> F  </i>
   <i type="logical" name="LVTOT"> F  </i>
   <i type="logical" name="LVHAR"> F  </i>
   <i type="logical" name="LELF"> F  </i>
   <i type="logical" name="LOPTICS"> F  </i>
   <v name="STM">      0.00000000      0.00000000      0.00000000      0.00000000      0.00000000      0.00000000      0.00000000</v>
  </separator>
  <separator name="performance" >
   <i type="int" name="NPAR">    28</i>
   <i type="int" name="NSIM">     4</i>
   <i type="int" name="NBLK">    -1</i>
   <i type="logical" name="LPLANE"> T  </i>
   <i type="logical" name="LSCALAPACK"> T  </i>
   <i type="logical" name="LSCAAWARE"> F  </i>
   <i type="logical" name="LSCALU"> F  </i>
   <i type="logical" name="LASYNC"> F  </i>
   <i type="logical" name="LORBITALREAL"> F  </i>
  </separator>
  <separator name="miscellaneous" >
   <i type="int" name="IDIOT">     3</i>
   <i type="int" name="PHON_NSTRUCT">    -1</i>
   <i type="logical" name="LMUSIC"> F  </i>
   <v name="POMASS">    144.24000000</v>
   <v name="DARWINR">      0.00000000</v>
   <v name="DARWINV">      1.00000000</v>
   <i type="logical" name="LCORR"> T  </i>
  </separator>
  <i type="logical" name="GGA_COMPAT"> T  </i>
  <i type="logical" name="LBERRY"> F  </i>
  <i type="int" name="ICORELEVEL">     0</i>
  <i type="logical" name="LDAU"> F  </i>
  <i type="int" name="I_CONSTRAINED_M">     0</i>
  <separator name="electronic exchange-correlation" >
   <i type="string" name="GGA    ">PE</i>
   <i type="string" name="XC_C">1</i>
   <i type="int" name="VOSKOWN">     0</i>
   <i type="logical" name="LHFCALC"> T  </i>
   <i type="string" name="PRECFOCK">fast</i>
   <i type="logical" name="LSYMGRAD"> F  </i>
   <i type="logical" name="LHFONE"> F  </i>
   <i type="logical" name="LRHFCALC"> F  </i>
   <i type="logical" name="LTHOMAS"> F  </i>
   <i type="logical" name="LMODELHF"> F  </i>
   <i type="logical" name="LFOCKACE"> T  </i>
   <i name="ENCUT4O">     -1.00000000</i>
   <i type="int" name="EXXOEP">     0</i>
   <i type="int" name="FOURORBIT">     0</i>
   <i name="AEXX">      0.36000000</i>
   <i name="HFALPHA">     -1.00000000</i>
   <i name="MCALPHA">      0.00000000</i>
   <i name="ALDAX">      0.64000000</i>
   <i name="AGGAX">      0.64000000</i>
   <i name="AMGGAX">      0.64000000</i>
   <i name="ALDAC">      1.00000000</i>
   <i name="AGGAC">      1.00000000</i>
   <i name="AMGGAC">      1.00000000</i>
   <i type="int" name="NKREDX">     1</i>
   <i type="int" name="NKREDY">     1</i>
   <i type="int" name="NKREDZ">     1</i>
   <i type="logical" name="SHIFTRED"> F  </i>
   <i type="logical" name="ODDONLY"> F  </i>
   <i type="logical" name="EVENONLY"> F  </i>
   <i type="int" name="LMAXFOCK">     4</i>
   <i type="int" name="NMAXFOCKAE">     1</i>
   <i type="logical" name="LFOCKAEDFT"> F  </i>
   <i name="HFSCREEN">      0.20000000</i>
   <i name="HFSCREENC">      0.20000000</i>
   <i type="int" name="NBANDSGWLOW">     1</i>
  </separator>
  <separator name="vdW DFT" >
   <i type="logical" name="LUSE_VDW"> F  </i>
   <i type="int" name="IVDW_NL">    -1</i>
   <i type="logical" name="LSPIN_VDW"> F  </i>
   <i name="ZAB_VDW">     -0.84910000</i>
   <i name="GAMMA_VDW">      1.39626340</i>
   <i name="ALPHA_VDW">      0.00000000</i>
   <i name="PARAM1">      0.12340000</i>
   <i name="PARAM2">      1.00000000</i>
   <i name="BPARAM">      6.30000000</i>
   <i name="CPARAM">      0.00930000</i>
  </separator>
  <separator name="model GW" >
   <i type="int" name="MODEL_GW">     0</i>
   <i name="MODEL_EPS0">     21.27675077</i>
   <i name="MODEL_ALPHA">      1.00000000</i>
  </separator>
  <separator name="linear response parameters" >
   <i type="logical" name="LEPSILON"> F  </i>
   <i type="logical" name="LRPA"> F  </i>
   <i type="logical" name="LNABLA"> F  </i>
   <i type="logical" name="LVEL"> F  </i>
   <i name="CSHIFT">      0.10000000</i>
   <i name="OMEGAMAX">     -1.00000000</i>
   <i name="DEG_THRESHOLD">      0.00200000</i>
   <i name="RTIME">     -0.10000000</i>
   <i name="WPLASMAI">      0.00000000</i>
   <v name="DFIELD">      0.00000000      0.00000000      0.00000000</v>
   <v name="WPLASMA">      0.00000000      0.00000000      0.00000000      0.00000000      0.00000000      0.00000000      0.00000000      0.00000000      0.00000000</v>
  </separator>
  <separator name="orbital magnetization" >
   <i type="logical" name="NUCIND"> F  </i>
   <v name="MAGPOS">      0.00000000      0.00000000      0.00000000</v>
   <i type="logical" name="LNICSALL"> T  </i>
   <i type="logical" name="ORBITALMAG"> F  </i>
   <i type="logical" name="LMAGBLOCH"> F  </i>
   <i type="logical" name="LCHIMAG"> F  </i>
   <i type="logical" name="LGAUGE"> T  </i>
   <i type="int" name="MAGATOM">     0</i>
   <v name="MAGDIPOL">      0.00000000      0.00000000      0.00000000</v>
   <v name="AVECCONST">      0.00000000      0.00000000      0.00000000</v>
  </separator>
  <separator name="response functions" >
   <i type="logical" name="LALL_IN_ONE"> F  </i>
   <i type="int" name="IALL_IN_ONE">    -1</i>
   <i type="int" name="NBANDS_WAVE">    -1</i>
   <i type="logical" name="LFINITE_TEMPERATURE"> F  </i>
   <i type="logical" name="LADDER"> F  </i>
   <i type="logical" name="LRPAFORCE"> F  </i>
   <i type="logical" name="LFXC"> F  </i>
   <i type="logical" name="LHARTREE"> T  </i>
   <i type="int" name="IBSE">     2</i>
   <v type="int" name="KPOINT">    -1     0     0     0</v>
   <i type="logical" name="LTCTC"> F  </i>
   <i type="logical" name="LTCTE"> F  </i>
   <i type="logical" name="LTETE"> F  </i>
   <i type="logical" name="LTRIPLET"> F  </i>
   <i type="logical" name="LFXCEPS"> F  </i>
   <i type="logical" name="LFXHEG"> F  </i>
   <i type="int" name="NATURALO">     2</i>
   <i type="logical" name="LHOLEGF"> F  </i>
   <i type="logical" name="L2ORDER"> F  </i>
   <i type="logical" name="LDMP1"> F  </i>
   <i type="logical" name="LMP2LT"> F  </i>
   <i type="logical" name="LSMP2LT"> F  </i>
   <i type="logical" name="LGWLF"> F  </i>
   <i name="ENCUTGW">     -1.60000002</i>
   <i name="ENCUTGWSOFT">     -1.60000002</i>
   <i name="ENCUTLF">     -1.00000000</i>
   <i type="logical" name="ESF_SPLINES"> F  </i>
   <i name="ESF_CONV">      0.01000000</i>
   <i type="int" name="ESF_NINTER">    15</i>
   <i type="int" name="LMAXMP2">    -1</i>
   <i name="SCISSOR">      0.00000000</i>
   <i type="int" name="NOMEGA">     0</i>
   <i type="int" name="NOMEGAR">     0</i>
   <i type="int" name="NBANDSGW">    -1</i>
   <i type="int" name="NBANDSO">    -1</i>
   <i type="int" name="NBANDSV">    -1</i>
   <i type="int" name="NELMGW">     1</i>
   <i type="int" name="NELMHF">     1</i>
   <i type="int" name="DIM">     3</i>
   <i type="int" name="IESPILON">     4</i>
   <i type="int" name="ANTIRES">     0</i>
   <i name="OMEGAMAX">    -30.00000000</i>
   <i name="OMEGAMIN">    -30.00000000</i>
   <i name="OMEGATL">   -200.00000000</i>
   <i type="int" name="OMEGAGRID">     0</i>
   <i name="CSHIFT">     -0.10000000</i>
   <i type="logical" name="LSELFENERGY"> F  </i>
   <i type="logical" name="LSPECTRAL"> F  </i>
   <i type="logical" name="LSPECTRALGW"> F  </i>
   <i type="logical" name="LSINGLES"> F  </i>
   <i type="logical" name="LFERMIGW"> F  </i>
   <i type="logical" name="ODDONLYGW"> F  </i>
   <i type="logical" name="EVENONLYGW"> F  </i>
   <i type="int" name="NKREDLFX">     1</i>
   <i type="int" name="NKREDLFY">     1</i>
   <i type="int" name="NKREDLFZ">     1</i>
   <i type="int" name="MAXMEM">  2800</i>
   <i type="int" name="TELESCOPE">     0</i>
   <i type="int" name="NTAUPAR">    -1</i>
   <i type="int" name="NOMEGAPAR">    -1</i>
   <i name="DAMP_NEWTON">      0.80000001</i>
   <i name="LAMBDA">      1.00000000</i>
  </separator>
  <separator name="External order field" >
   <i name="OFIELD_KAPPA">      0.00000000</i>
   <v name="OFIELD_K">      0.00000000      0.00000000      0.00000000</v>
   <i name="OFIELD_Q6_NEAR">      0.00000000</i>
   <i name="OFIELD_Q6_FAR">      0.00000000</i>
   <i name="OFIELD_A">      0.00000000</i>
  </separator>
  <separator name="optional k-points parameters" >
   <i type="int" name="KPOINTS_OPT_MODE">     1</i>
   <i type="logical" name="LKPOINTS_OPT"> F  </i>
  </separator>
 </parameters>
 <atominfo>
  <atoms>       4 </atoms>
  <types>       1 </types>
  <array name="atoms" >
   <dimension dim="1">ion</dimension>
   <field type="string">element</field>
   <field type="int">atomtype</field>
   <set>
    <rc><c>Nd</c><c>   1</c></rc>
    <rc><c>Nd</c><c>   1</c></rc>
    <rc><c>Nd</c><c>   1</c></rc>
    <rc><c>Nd</c><c>   1</c></rc>
   </set>
  </array>
  <array name="atomtypes" >
   <dimension dim="1">type</dimension>
   <field type="int">atomspertype</field>
   <field type="string">element</field>
   <field>mass</field>
   <field>valence</field>
   <field type="string">pseudopotential</field>
   <set>
    <rc><c>   4</c><c>Nd</c><c>    144.24000000</c><c>     11.00000000</c><c>  PAW_PBE Nd_3 06Sep2000                </c></rc>
   </set>
  </array>
 </atominfo>
 <structure name="initialpos" >
  <crystal>
   <varray name="basis" >
    <v>       3.71007376       0.00000000       0.00000000 </v>
    <v>      -1.85503688       3.21301812       0.00000000 </v>
    <v>       0.00000000       0.00000000      11.89921547 </v>
   </varray>
   <i name="volume">    141.84500511 </i>
   <varray name="rec_basis" >
    <v>       0.26953642       0.15561692       0.00000000 </v>
    <v>       0.00000000       0.31123385       0.00000000 </v>
    <v>       0.00000000       0.00000000       0.08403915 </v>
   </varray>
  </crystal>
  <varray name="positions" >
   <v>       0.00000000       0.00000000       0.00000000 </v>
   <v>       0.00000000       0.00000000       0.50000000 </v>
   <v>       0.33333333       0.66666667       0.25000000 </v>
   <v>       0.66666667       0.33333333       0.75000000 </v>
  </varray>
 </structure>
 <calculation>
  <scstep>
   <time name="total">    0.20    0.39</time>
   <energy>
    <i name="alphaZ">    301.68262581 </i>
    <i name="ewald">  -3063.34967320 </i>
    <i name="hartreedc">   -610.43620315 </i>
    <i name="XCdc">    107.12488955 </i>
    <i name="pawpsdc">   2881.55773661 </i>
    <i name="pawaedc"> -10964.40077372 </i>
    <i name="eentropy">     -0.01451499 </i>
    <i name="bandstr">   -339.88404674 </i>
    <i name="atom">   3758.86448176 </i>
    <i name="e_fr_energy">  -7928.85547806 </i>
    <i name="e_wo_entrp">  -7928.84096307 </i>
    <i name="e_0_energy">  -7928.84822057 </i>
   </energy>
  </scstep>
  <scstep>
   <time name="total">    0.13    0.16</time>
   <energy>
    <i name="e_fr_energy">  -8294.95051413 </i>
    <i name="e_wo_entrp">  -8294.93188037 </i>
    <i name="e_0_energy">  -8294.94119725 </i>
   </energy>
  </scstep>
  <scstep>
   <time name="total">    0.12    0.13</time>
   <energy>
    <i name="e_fr_energy">  -8322.37402132 </i>
    <i name="e_wo_entrp">  -8322.35535585 </i>
    <i name="e_0_energy">  -8322.36468859 </i>
   </energy>
  </scstep>
  <scstep>
   <time name="total">    0.12    0.13</time>
   <energy>
    <i name="e_fr_energy">  -8326.59307816 </i>
    <i name="e_wo_entrp">  -8326.56369618 </i>
    <i name="e_0_energy">  -8326.57838717 </i>
   </energy>
  </scstep>
  <scstep>
   <time name="total">   22.91   23.04</time>
   <energy>
    <i name="e_fr_energy">    -19.73857656 </i>
    <i name="e_wo_entrp">    -19.71871355 </i>
    <i name="e_0_energy">    -19.72864506 </i>
   </energy>
  </scstep>
  <scstep>
   <time name="total">   22.82   22.96</time>
   <energy>
    <i name="e_fr_energy">    -19.90694405 </i>
    <i name="e_wo_entrp">    -19.88708105 </i>
    <i name="e_0_energy">    -19.89701255 </i>
   </energy>
  </scstep>
  <scstep>
   <time name="total">   22.75   22.86</time>
   <energy>
    <i name="e_fr_energy">    -20.24960604 </i>
    <i name="e_wo_entrp">    -20.22985880 </i>
    <i name="e_0_energy">    -20.23973242 </i>
   </energy>
  </scstep>
  <scstep>
   <time name="total">   22.72   22.82</time>
   <energy>
    <i name="e_fr_energy">    -20.58576317 </i>
    <i name="e_wo_entrp">    -20.56675724 </i>
    <i name="e_0_energy">    -20.57626020 </i>
   </energy>
  </scstep>
  <scstep>
   <time name="total">   22.74   22.84</time>
   <energy>
    <i name="e_fr_energy">    -20.72714591 </i>
    <i name="e_wo_entrp">    -20.70885311 </i>
    <i name="e_0_energy">    -20.71799951 </i>
   </energy>
  </scstep>
  <scstep>
   <time name="total">   22.68   22.80</time>
   <energy>
    <i name="e_fr_energy">    -20.86782498 </i>
    <i name="e_wo_entrp">    -20.85045493 </i>
    <i name="e_0_energy">    -20.85913995 </i>
   </energy>
  </scstep>
  <scstep>
   <time name="total">   22.74   22.84</time>
   <energy>
    <i name="e_fr_energy">    -20.96352731 </i>
    <i name="e_wo_entrp">    -20.94660963 </i>
    <i name="e_0_energy">    -20.95506847 </i>
   </energy>
  </scstep>
  <scstep>
   <time name="total">   22.91   23.05</time>
   <energy>
    <i name="e_fr_energy">    -21.03393411 </i>
    <i name="e_wo_entrp">    -21.01711513 </i>
    <i name="e_0_energy">    -21.02552462 </i>
   </energy>
  </scstep>
  <scstep>
   <time name="total">   22.74   22.85</time>
   <energy>
    <i name="e_fr_energy">    -21.08110567 </i>
    <i name="e_wo_entrp">    -21.06426871 </i>
    <i name="e_0_energy">    -21.07268719 </i>
   </energy>
  </scstep>
  <scstep>
   <time name="total">   22.73   22.84</time>
   <energy>
    <i name="e_fr_energy">    -21.11226374 </i>
    <i name="e_wo_entrp">    -21.09550160 </i>
    <i name="e_0_energy">    -21.10388267 </i>
   </energy>
  </scstep>
  <scstep>
   <time name="total">   22.75   22.87</time>
   <energy>
    <i name="e_fr_energy">    -21.13103595 </i>
    <i name="e_wo_entrp">    -21.11449069 </i>
    <i name="e_0_energy">    -21.12276332 </i>
   </energy>
  </scstep>
  <scstep>
   <time name="total">   22.74   22.83</time>
   <energy>
    <i name="e_fr_energy">    -21.14221799 </i>
    <i name="e_wo_entrp">    -21.12594792 </i>
    <i name="e_0_energy">    -21.13408295 </i>
   </energy>
  </scstep>
  <scstep>
   <time name="total">   22.85   23.20</time>
   <energy>
    <i name="e_fr_energy">    -21.14778855 </i>
    <i name="e_wo_entrp">    -21.13180954 </i>
    <i name="e_0_energy">    -21.13979905 </i>
   </energy>
  </scstep>
  <scstep>
   <time name="total">   22.73   22.85</time>
   <energy>
    <i name="e_fr_energy">    -21.15151325 </i>
    <i name="e_wo_entrp">    -21.13574484 </i>
    <i name="e_0_energy">    -21.14362905 </i>
   </energy>
  </scstep>
  <scstep>
   <time name="total">   22.76   22.86</time>
   <energy>
    <i name="e_fr_energy">    -21.15276378 </i>
    <i name="e_wo_entrp">    -21.13717651 </i>
    <i name="e_0_energy">    -21.14497015 </i>
   </energy>
  </scstep>
  <scstep>
   <time name="total">   22.69   22.82</time>
   <energy>
    <i name="e_fr_energy">    -21.15439073 </i>
    <i name="e_wo_entrp">    -21.13889392 </i>
    <i name="e_0_energy">    -21.14664232 </i>
   </energy>
  </scstep>
  <scstep>
   <time name="total">   22.75   22.85</time>
   <energy>
    <i name="e_fr_energy">    -21.15443775 </i>
    <i name="e_wo_entrp">    -21.13903443 </i>
    <i name="e_0_energy">    -21.14673609 </i>
   </energy>
  </scstep>
  <scstep>
   <time name="total">   22.72   22.83</time>
   <energy>
    <i name="e_fr_energy">    -21.15551634 </i>
    <i name="e_wo_entrp">    -21.14013925 </i>
    <i name="e_0_energy">    -21.14782779 </i>
   </energy>
  </scstep>
  <scstep>
   <time name="total">   22.74   22.86</time>
   <energy>
    <i name="e_fr_energy">    -21.15520246 </i>
    <i name="e_wo_entrp">    -21.13988130 </i>
    <i name="e_0_energy">    -21.14754188 </i>
   </energy>
  </scstep>
  <scstep>
   <time name="total">   22.72   22.82</time>
   <energy>
    <i name="e_fr_energy">    -21.15604949 </i>
    <i name="e_wo_entrp">    -21.14073079 </i>
    <i name="e_0_energy">    -21.14839014 </i>
   </energy>
  </scstep>
  <scstep>
   <time name="total">   22.86   22.98</time>
   <energy>
    <i name="e_fr_energy">    -21.15567500 </i>
    <i name="e_wo_entrp">    -21.14039463 </i>
    <i name="e_0_energy">    -21.14803482 </i>
   </energy>
  </scstep>
  <scstep>
   <time name="total">   22.72   22.87</time>
   <energy>
    <i name="e_fr_energy">    -21.15632504 </i>
    <i name="e_wo_entrp">    -21.14104072 </i>
    <i name="e_0_energy">    -21.14868288 </i>
   </energy>
  </scstep>
  <scstep>
   <time name="total">   22.72   22.84</time>
   <energy>
    <i name="e_fr_energy">    -21.15600723 </i>
    <i name="e_wo_entrp">    -21.14074987 </i>
    <i name="e_0_energy">    -21.14837855 </i>
   </energy>
  </scstep>
  <scstep>
   <time name="total">   22.70   22.83</time>
   <energy>
    <i name="e_fr_energy">    -21.15647251 </i>
    <i name="e_wo_entrp">    -21.14121081 </i>
    <i name="e_0_energy">    -21.14884166 </i>
   </energy>
  </scstep>
  <scstep>
   <time name="total">   22.72   22.84</time>
   <energy>
    <i name="e_fr_energy">    -21.15624483 </i>
    <i name="e_wo_entrp">    -21.14100138 </i>
    <i name="e_0_energy">    -21.14862311 </i>
   </energy>
  </scstep>
  <scstep>
   <time name="total">   22.71   22.81</time>
   <energy>
    <i name="e_fr_energy">    -21.15656456 </i>
    <i name="e_wo_entrp">    -21.14131778 </i>
    <i name="e_0_energy">    -21.14894117 </i>
   </energy>
  </scstep>
  <scstep>
   <time name="total">   22.89   23.21</time>
   <energy>
    <i name="e_fr_energy">    -21.15641474 </i>
    <i name="e_wo_entrp">    -21.14118003 </i>
    <i name="e_0_energy">    -21.14879739 </i>
   </energy>
  </scstep>
  <scstep>
   <time name="total">   22.71   22.81</time>
   <energy>
    <i name="e_fr_energy">    -21.15663441 </i>
    <i name="e_wo_entrp">    -21.14139737 </i>
    <i name="e_0_energy">    -21.14901589 </i>
   </energy>
  </scstep>
  <scstep>
   <time name="total">   22.78   22.89</time>
   <energy>
    <i name="e_fr_energy">    -21.15654030 </i>
    <i name="e_wo_entrp">    -21.14131125 </i>
    <i name="e_0_energy">    -21.14892577 </i>
   </energy>
  </scstep>
  <scstep>
   <time name="total">   22.72   22.83</time>
   <energy>
    <i name="e_fr_energy">    -21.15669777 </i>
    <i name="e_wo_entrp">    -21.14146709 </i>
    <i name="e_0_energy">    -21.14908243 </i>
   </energy>
  </scstep>
  <scstep>
   <time name="total">   22.75   22.85</time>
   <energy>
    <i name="e_fr_energy">    -21.15663641 </i>
    <i name="e_wo_entrp">    -21.14141135 </i>
    <i name="e_0_energy">    -21.14902388 </i>
   </energy>
  </scstep>
  <scstep>
   <time name="total">   22.66   22.80</time>
   <energy>
    <i name="e_fr_energy">    -21.15675896 </i>
    <i name="e_wo_entrp">    -21.14153268 </i>
    <i name="e_0_energy">    -21.14914582 </i>
   </energy>
  </scstep>
  <scstep>
   <time name="total">   22.75   22.86</time>
   <energy>
    <i name="e_fr_energy">    -21.15671360 </i>
    <i name="e_wo_entrp">    -21.14149171 </i>
    <i name="e_0_energy">    -21.14910266 </i>
   </energy>
  </scstep>
  <scstep>
   <time name="total">   22.83   22.94</time>
   <energy>
    <i name="e_fr_energy">    -21.15681698 </i>
    <i name="e_wo_entrp">    -21.14159407 </i>
    <i name="e_0_energy">    -21.14920552 </i>
   </energy>
  </scstep>
  <scstep>
   <time name="total">   22.74   22.85</time>
   <energy>
    <i name="e_fr_energy">    -21.15677826 </i>
    <i name="e_wo_entrp">    -21.14155911 </i>
    <i name="e_0_energy">    -21.14916868 </i>
   </energy>
  </scstep>
  <scstep>
   <time name="total">   22.69   22.81</time>
   <energy>
    <i name="e_fr_energy">    -21.15687035 </i>
    <i name="e_wo_entrp">    -21.14165029 </i>
    <i name="e_0_energy">    -21.14926032 </i>
   </energy>
  </scstep>
  <scstep>
   <time name="total">   22.69   22.83</time>
   <energy>
    <i name="e_fr_energy">    -21.15683327 </i>
    <i name="e_wo_entrp">    -21.14161662 </i>
    <i name="e_0_energy">    -21.14922495 </i>
   </energy>
  </scstep>
  <scstep>
   <time name="total">   22.70   22.82</time>
   <energy>
    <i name="e_fr_energy">    -21.15691845 </i>
    <i name="e_wo_entrp">    -21.14170088 </i>
    <i name="e_0_energy">    -21.14930967 </i>
   </energy>
  </scstep>
  <scstep>
   <time name="total">   22.75   22.85</time>
   <energy>
    <i name="e_fr_energy">    -21.15688035 </i>
    <i name="e_wo_entrp">    -21.14166601 </i>
    <i name="e_0_energy">    -21.14927318 </i>
   </energy>
  </scstep>
  <scstep>
   <time name="total">   22.86   23.29</time>
   <energy>
    <i name="e_fr_energy">    -21.15696368 </i>
    <i name="e_wo_entrp">    -21.14174833 </i>
    <i name="e_0_energy">    -21.14935600 </i>
   </energy>
  </scstep>
  <scstep>
   <time name="total">   22.75   22.87</time>
   <energy>
    <i name="e_fr_energy">    -21.15692576 </i>
    <i name="e_wo_entrp">    -21.14171354 </i>
    <i name="e_0_energy">    -21.14931965 </i>
   </energy>
  </scstep>
  <scstep>
   <time name="total">   22.71   22.82</time>
   <energy>
    <i name="e_fr_energy">    -21.15700722 </i>
    <i name="e_wo_entrp">    -21.14179390 </i>
    <i name="e_0_energy">    -21.14940056 </i>
   </energy>
  </scstep>
  <scstep>
   <time name="total">   22.72   22.86</time>
   <energy>
    <i name="e_fr_energy">    -21.15696553 </i>
    <i name="e_wo_entrp">    -21.14175522 </i>
    <i name="e_0_energy">    -21.14936037 </i>
   </energy>
  </scstep>
  <scstep>
   <time name="total">   22.70   22.83</time>
   <energy>
    <i name="e_fr_energy">    -21.15704298 </i>
    <i name="e_wo_entrp">    -21.14183151 </i>
    <i name="e_0_energy">    -21.14943725 </i>
   </energy>
  </scstep>
  <scstep>
   <time name="total">   22.72   22.85</time>
   <energy>
    <i name="e_fr_energy">    -21.15699940 </i>
    <i name="e_wo_entrp">    -21.14179085 </i>
    <i name="e_0_energy">    -21.14939513 </i>
   </energy>
  </scstep>
  <scstep>
   <time name="total">   22.68   22.80</time>
   <energy>
    <i name="e_fr_energy">    -21.15707473 </i>
    <i name="e_wo_entrp">    -21.14186498 </i>
    <i name="e_0_energy">    -21.14946985 </i>
   </energy>
  </scstep>
  <scstep>
   <time name="total">   22.73   22.83</time>
   <energy>
    <i name="e_fr_energy">    -21.15703247 </i>
    <i name="e_wo_entrp">    -21.14182553 </i>
    <i name="e_0_energy">    -21.14942900 </i>
   </energy>
  </scstep>
  <scstep>
   <time name="total">   22.89   23.31</time>
   <energy>
    <i name="e_fr_energy">    -21.15710521 </i>
    <i name="e_wo_entrp">    -21.14189707 </i>
    <i name="e_0_energy">    -21.14950114 </i>
   </energy>
  </scstep>
  <scstep>
   <time name="total">   22.76   22.87</time>
   <energy>
    <i name="e_fr_energy">    -21.15706313 </i>
    <i name="e_wo_entrp">    -21.14185764 </i>
    <i name="e_0_energy">    -21.14946039 </i>
   </energy>
  </scstep>
  <scstep>
   <time name="total">   22.68   22.79</time>
   <energy>
    <i name="e_fr_energy">    -21.15713010 </i>
    <i name="e_wo_entrp">    -21.14192346 </i>
    <i name="e_0_energy">    -21.14952678 </i>
   </energy>
  </scstep>
  <scstep>
   <time name="total">   22.70   22.81</time>
   <energy>
    <i name="e_fr_energy">    -21.15708983 </i>
    <i name="e_wo_entrp">    -21.14188567 </i>
    <i name="e_0_energy">    -21.14948775 </i>
   </energy>
  </scstep>
  <scstep>
   <time name="total">   22.68   22.79</time>
   <energy>
    <i name="e_fr_energy">    -21.15715235 </i>
    <i name="e_wo_entrp">    -21.14194711 </i>
    <i name="e_0_energy">    -21.14954973 </i>
   </energy>
  </scstep>
  <scstep>
   <time name="total">   22.85   23.34</time>
   <energy>
    <i name="e_fr_energy">    -21.15711406 </i>
    <i name="e_wo_entrp">    -21.14191114 </i>
    <i name="e_0_energy">    -21.14951260 </i>
   </energy>
  </scstep>
  <scstep>
   <time name="total">   22.83   22.93</time>
   <energy>
    <i name="e_fr_energy">    -21.15717278 </i>
    <i name="e_wo_entrp">    -21.14196882 </i>
    <i name="e_0_energy">    -21.14957080 </i>
   </energy>
  </scstep>
  <scstep>
   <time name="total">   22.70   22.81</time>
   <energy>
    <i name="e_fr_energy">    -21.15713568 </i>
    <i name="e_wo_entrp">    -21.14193392 </i>
    <i name="e_0_energy">    -21.14953480 </i>
   </energy>
  </scstep>
  <scstep>
   <time name="total">   22.66   22.77</time>
   <energy>
    <i name="e_fr_energy">    -21.15719059 </i>
    <i name="e_wo_entrp">    -21.14198784 </i>
    <i name="e_0_energy">    -21.14958921 </i>
   </energy>
  </scstep>
  <scstep>
   <time name="total">   22.73   22.85</time>
   <energy>
    <i name="e_fr_energy">    -21.15715580 </i>
    <i name="e_wo_entrp">    -21.14195510 </i>
    <i name="e_0_energy">    -21.14955545 </i>
   </energy>
  </scstep>
  <scstep>
   <time name="total">   22.75   22.85</time>
   <energy>
    <i name="e_fr_energy">    -21.15720676 </i>
    <i name="e_wo_entrp">    -21.14200516 </i>
    <i name="e_0_energy">    -21.14960596 </i>
   </energy>
  </scstep>
  <scstep>
   <time name="total">   22.75   22.86</time>
   <energy>
    <i name="e_fr_energy">    -21.15717476 </i>
    <i name="e_wo_entrp">    -21.14197506 </i>
    <i name="e_0_energy">    -21.14957491 </i>
   </energy>
  </scstep>
  <scstep>
   <time name="total">   22.74   22.86</time>
   <energy>
    <i name="e_fr_energy">    -21.15722131 </i>
    <i name="e_wo_entrp">    -21.14202078 </i>
    <i name="e_0_energy">    -21.14962105 </i>
   </energy>
  </scstep>
  <scstep>
   <time name="total">   22.94   23.36</time>
   <energy>
    <i name="e_fr_energy">    -21.15719269 </i>
    <i name="e_wo_entrp">    -21.14199389 </i>
    <i name="e_0_energy">    -21.14959329 </i>
   </energy>
  </scstep>
  <scstep>
   <time name="total">   22.79   22.90</time>
   <energy>
    <i name="e_fr_energy">    -21.15723405 </i>
    <i name="e_wo_entrp">    -21.14203454 </i>
    <i name="e_0_energy">    -21.14963429 </i>
   </energy>
  </scstep>
  <scstep>
   <time name="total">   22.73   22.85</time>
   <energy>
    <i name="e_fr_energy">    -21.15720931 </i>
    <i name="e_wo_entrp">    -21.14201133 </i>
    <i name="e_0_energy">    -21.14961032 </i>
   </energy>
  </scstep>
  <scstep>
   <time name="total">   22.74   22.88</time>
   <energy>
    <i name="e_fr_energy">    -21.15724505 </i>
    <i name="e_wo_entrp">    -21.14204648 </i>
    <i name="e_0_energy">    -21.14964576 </i>
   </energy>
  </scstep>
  <scstep>
   <time name="total">   23.13   23.23</time>
   <energy>
    <i name="e_fr_energy">    -21.15722426 </i>
    <i name="e_wo_entrp">    -21.14202702 </i>
    <i name="e_0_energy">    -21.14962564 </i>
   </energy>
  </scstep>
  <scstep>
   <time name="total">   22.73   22.85</time>
   <energy>
    <i name="e_fr_energy">    -21.15725441 </i>
    <i name="e_wo_entrp">    -21.14205670 </i>
    <i name="e_0_energy">    -21.14965556 </i>
   </energy>
  </scstep>
  <scstep>
   <time name="total">   22.86   23.10</time>
   <energy>
    <i name="e_fr_energy">    -21.15723738 </i>
    <i name="e_wo_entrp">    -21.14204081 </i>
    <i name="e_0_energy">    -21.14963910 </i>
   </energy>
  </scstep>
  <scstep>
   <time name="total">   22.75   22.85</time>
   <energy>
    <i name="e_fr_energy">    -21.15726266 </i>
    <i name="e_wo_entrp">    -21.14206571 </i>
    <i name="e_0_energy">    -21.14966419 </i>
   </energy>
  </scstep>
  <scstep>
   <time name="total">   22.75   22.86</time>
   <energy>
    <i name="e_fr_energy">    -21.15724852 </i>
    <i name="e_wo_entrp">    -21.14205254 </i>
    <i name="e_0_energy">    -21.14965053 </i>
   </energy>
  </scstep>
  <scstep>
   <time name="total">   22.75   22.85</time>
   <energy>
    <i name="e_fr_energy">    -21.15727029 </i>
    <i name="e_wo_entrp">    -21.14207400 </i>
    <i name="e_0_energy">    -21.14967215 </i>
   </energy>
  </scstep>
  <scstep>
   <time name="total">   22.76   22.88</time>
   <energy>
    <i name="e_fr_energy">    -21.15725775 </i>
    <i name="e_wo_entrp">    -21.14206229 </i>
    <i name="e_0_energy">    -21.14966002 </i>
   </energy>
  </scstep>
  <scstep>
   <time name="total">   22.73   22.83</time>
   <energy>
    <i name="e_fr_energy">    -21.15727727 </i>
    <i name="e_wo_entrp">    -21.14208152 </i>
    <i name="e_0_energy">    -21.14967939 </i>
   </energy>
  </scstep>
  <scstep>
   <time name="total">   22.75   22.87</time>
   <energy>
    <i name="e_fr_energy">    -21.15726529 </i>
    <i name="e_wo_entrp">    -21.14207031 </i>
    <i name="e_0_energy">    -21.14966780 </i>
   </energy>
  </scstep>
  <scstep>
   <time name="total">   22.84   23.04</time>
   <energy>
    <i name="e_fr_energy">    -21.15728316 </i>
    <i name="e_wo_entrp">    -21.14208789 </i>
    <i name="e_0_energy">    -21.14968552 </i>
   </energy>
  </scstep>
  <scstep>
   <time name="total">   22.84   22.99</time>
   <energy>
    <i name="e_fr_energy">    -21.15727196 </i>
    <i name="e_wo_entrp">    -21.14207738 </i>
    <i name="e_0_energy">    -21.14967467 </i>
   </energy>
  </scstep>
  <scstep>
   <time name="total">   22.85   22.97</time>
   <energy>
    <i name="e_fr_energy">    -21.15728882 </i>
    <i name="e_wo_entrp">    -21.14209396 </i>
    <i name="e_0_energy">    -21.14969139 </i>
   </energy>
  </scstep>
  <scstep>
   <time name="total">   22.75   22.85</time>
   <energy>
    <i name="e_fr_energy">    -21.15727905 </i>
    <i name="e_wo_entrp">    -21.14208482 </i>
    <i name="e_0_energy">    -21.14968193 </i>
   </energy>
  </scstep>
  <scstep>
   <time name="total">   22.72   22.84</time>
   <energy>
    <i name="e_fr_energy">    -21.15729445 </i>
    <i name="e_wo_entrp">    -21.14209994 </i>
    <i name="e_0_energy">    -21.14969720 </i>
   </energy>
  </scstep>
  <scstep>
   <time name="total">   22.70   22.81</time>
   <energy>
    <i name="e_fr_energy">    -21.15728539 </i>
    <i name="e_wo_entrp">    -21.14209143 </i>
    <i name="e_0_energy">    -21.14968841 </i>
   </energy>
  </scstep>
  <scstep>
   <time name="total">   22.76   22.93</time>
   <energy>
    <i name="e_fr_energy">    -21.15729916 </i>
    <i name="e_wo_entrp">    -21.14210495 </i>
    <i name="e_0_energy">    -21.14970206 </i>
   </energy>
  </scstep>
  <scstep>
   <time name="total">   22.93   23.47</time>
   <energy>
    <i name="e_fr_energy">    -21.15729063 </i>
    <i name="e_wo_entrp">    -21.14209691 </i>
    <i name="e_0_energy">    -21.14969377 </i>
   </energy>
  </scstep>
  <scstep>
   <time name="total">   22.72   22.93</time>
   <energy>
    <i name="e_fr_energy">    -21.15730357 </i>
    <i name="e_wo_entrp">    -21.14210960 </i>
    <i name="e_0_energy">    -21.14970658 </i>
   </energy>
  </scstep>
  <scstep>
   <time name="total">   22.74   22.85</time>
   <energy>
    <i name="e_fr_energy">    -21.15729468 </i>
    <i name="e_wo_entrp">    -21.14210119 </i>
    <i name="e_0_energy">    -21.14969794 </i>
   </energy>
  </scstep>
  <scstep>
   <time name="total">   22.75   22.86</time>
   <energy>
    <i name="e_fr_energy">    -21.15730845 </i>
    <i name="e_wo_entrp">    -21.14211467 </i>
    <i name="e_0_energy">    -21.14971156 </i>
   </energy>
  </scstep>
  <scstep>
   <time name="total">   22.72   22.85</time>
   <energy>
    <i name="e_fr_energy">    -21.15729757 </i>
    <i name="e_wo_entrp">    -21.14210429 </i>
    <i name="e_0_energy">    -21.14970093 </i>
   </energy>
  </scstep>
  <scstep>
   <time name="total">   22.77   22.91</time>
   <energy>
    <i name="e_fr_energy">    -21.15731332 </i>
    <i name="e_wo_entrp">    -21.14211965 </i>
    <i name="e_0_energy">    -21.14971649 </i>
   </energy>
  </scstep>
  <scstep>
   <time name="total">   22.87   23.03</time>
   <energy>
    <i name="e_fr_energy">    -21.15730011 </i>
    <i name="e_wo_entrp">    -21.14210702 </i>
    <i name="e_0_energy">    -21.14970356 </i>
   </energy>
  </scstep>
  <scstep>
   <time name="total">   22.80   22.90</time>
   <energy>
    <i name="e_fr_energy">    -21.15731763 </i>
    <i name="e_wo_entrp">    -21.14212406 </i>
    <i name="e_0_energy">    -21.14972085 </i>
   </energy>
  </scstep>
  <scstep>
   <time name="total">   22.71   22.84</time>
   <energy>
    <i name="e_fr_energy">    -21.15730246 </i>
    <i name="e_wo_entrp">    -21.14210950 </i>
    <i name="e_0_energy">    -21.14970598 </i>
   </energy>
  </scstep>
  <scstep>
   <time name="total">   22.70   22.84</time>
   <energy>
    <i name="e_fr_energy">    -21.15732145 </i>
    <i name="e_wo_entrp">    -21.14212795 </i>
    <i name="e_0_energy">    -21.14972470 </i>
   </energy>
  </scstep>
  <scstep>
   <time name="total">   22.74   22.84</time>
   <energy>
    <i name="e_fr_energy">    -21.15730453 </i>
    <i name="e_wo_entrp">    -21.14211168 </i>
    <i name="e_0_energy">    -21.14970810 </i>
   </energy>
  </scstep>
  <scstep>
   <time name="total">   22.74   22.85</time>
   <energy>
    <i name="e_fr_energy">    -21.15732492 </i>
    <i name="e_wo_entrp">    -21.14213144 </i>
    <i name="e_0_energy">    -21.14972818 </i>
   </energy>
  </scstep>
  <scstep>
   <time name="total">   22.77   22.87</time>
   <energy>
    <i name="e_fr_energy">    -21.15730594 </i>
    <i name="e_wo_entrp">    -21.14211316 </i>
    <i name="e_0_energy">    -21.14970955 </i>
   </energy>
  </scstep>
  <scstep>
   <time name="total">   22.84   23.29</time>
   <energy>
    <i name="e_fr_energy">    -21.15732713 </i>
    <i name="e_wo_entrp">    -21.14213366 </i>
    <i name="e_0_energy">    -21.14973040 </i>
   </energy>
  </scstep>
  <scstep>
   <time name="total">   22.73   22.84</time>
   <energy>
    <i name="e_fr_energy">    -21.15730525 </i>
    <i name="e_wo_entrp">    -21.14211251 </i>
    <i name="e_0_energy">    -21.14970888 </i>
   </energy>
  </scstep>
  <scstep>
   <time name="total">   45.26   45.47</time>
   <energy>
    <i name="alphaZ">    301.68262581 </i>
    <i name="ewald">  -3063.34967320 </i>
    <i name="hartreedc">   -585.04532385 </i>
    <i name="XCdc">     68.83399523 </i>
    <i name="pawpsdc">   3558.93384341 </i>
    <i name="pawaedc">  -3455.05859731 </i>
    <i name="eentropy">     -0.01519347 </i>
    <i name="bandstr">   -744.35799590 </i>
    <i name="atom">   3758.86448176 </i>
    <i name="e_fr_energy">    -21.15732657 </i>
    <i name="e_wo_entrp">    -21.14213311 </i>
    <i name="e_0_energy">    -21.14972984 </i>
   </energy>
  </scstep>
  <structure>
   <crystal>
    <varray name="basis" >
     <v>       3.71007376       0.00000000       0.00000000 </v>
     <v>      -1.85503688       3.21301812       0.00000000 </v>
     <v>       0.00000000       0.00000000      11.89921547 </v>
    </varray>
    <i name="volume">    141.84500511 </i>
    <varray name="rec_basis" >
     <v>       0.26953642       0.15561692       0.00000000 </v>
     <v>       0.00000000       0.31123385       0.00000000 </v>
     <v>       0.00000000       0.00000000       0.08403915 </v>
    </varray>
   </crystal>
   <varray name="positions" >
    <v>       0.00000000       0.00000000       0.00000000 </v>
    <v>       0.00000000       0.00000000       0.50000000 </v>
    <v>       0.33333333       0.66666667       0.25000000 </v>
    <v>       0.66666667       0.33333333       0.75000000 </v>
   </varray>
  </structure>
  <varray name="forces" >
   <v>      -0.00000000      -0.00000000       0.00000000 </v>
   <v>       0.00000000      -0.00000000       0.00000000 </v>
   <v>      -0.00000000       0.00000000      -0.00000000 </v>
   <v>       0.00000000      -0.00000000       0.00000000 </v>
  </varray>
  <varray name="stress" >
   <v>     -15.30224041       0.00000000      -0.00000000 </v>
   <v>       0.00000000     -15.30224042      -0.00000000 </v>
   <v>      -0.00000000      -0.00000000     -18.09055449 </v>
  </varray>
  <energy>
   <i name="e_fr_energy">    -21.15732657 </i>
   <i name="e_wo_entrp">    -21.14213387 </i>
   <i name="e_0_energy">    -21.14973022 </i>
  </energy>
  <time name="totalsc"> 2285.41 2300.26</time>
 </calculation>
 <calculation>
  <scstep>
   <time name="total">   23.20   23.37</time>
   <energy>
    <i name="alphaZ">    317.92935429 </i>
    <i name="ewald">  -3117.33000124 </i>
    <i name="hartreedc">   -600.33564007 </i>
    <i name="XCdc">     70.45693065 </i>
    <i name="pawpsdc">   3621.15571971 </i>
    <i name="pawaedc">  -3506.85631670 </i>
    <i name="eentropy">     -0.01402916 </i>
    <i name="bandstr">   -704.89275363 </i>
    <i name="atom">   3758.86448176 </i>
    <i name="e_fr_energy">    -19.74224320 </i>
    <i name="e_wo_entrp">    -19.72821404 </i>
    <i name="e_0_energy">    -19.73522862 </i>
   </energy>
  </scstep>
  <scstep>
   <time name="total">   23.02   23.14</time>
   <energy>
    <i name="e_fr_energy">    -20.88412608 </i>
    <i name="e_wo_entrp">    -20.87006270 </i>
    <i name="e_0_energy">    -20.87709439 </i>
   </energy>
  </scstep>
  <scstep>
   <time name="total">   23.04   23.15</time>
   <energy>
    <i name="e_fr_energy">    -20.98149743 </i>
    <i name="e_wo_entrp">    -20.96759170 </i>
    <i name="e_0_energy">    -20.97454456 </i>
   </energy>
  </scstep>
  <scstep>
   <time name="total">   23.02   23.14</time>
   <energy>
    <i name="e_fr_energy">    -21.15293499 </i>
    <i name="e_wo_entrp">    -21.13921080 </i>
    <i name="e_0_energy">    -21.14607290 </i>
   </energy>
  </scstep>
  <scstep>
   <time name="total">   23.04   23.15</time>
   <energy>
    <i name="e_fr_energy">    -21.16280727 </i>
    <i name="e_wo_entrp">    -21.14919127 </i>
    <i name="e_0_energy">    -21.15599927 </i>
   </energy>
  </scstep>
  <scstep>
   <time name="total">   23.02   23.13</time>
   <energy>
    <i name="e_fr_energy">    -21.18760510 </i>
    <i name="e_wo_entrp">    -21.17404787 </i>
    <i name="e_0_energy">    -21.18082649 </i>
   </energy>
  </scstep>
  <scstep>
   <time name="total">   23.20   23.59</time>
   <energy>
    <i name="e_fr_energy">    -21.19001749 </i>
    <i name="e_wo_entrp">    -21.17650343 </i>
    <i name="e_0_energy">    -21.18326046 </i>
   </energy>
  </scstep>
  <scstep>
   <time name="total">   23.01   23.13</time>
   <energy>
    <i name="e_fr_energy">    -21.19422318 </i>
    <i name="e_wo_entrp">    -21.18073692 </i>
    <i name="e_0_energy">    -21.18748005 </i>
   </energy>
  </scstep>
  <scstep>
   <time name="total">   23.33   23.44</time>
   <energy>
    <i name="e_fr_energy">    -21.19460978 </i>
    <i name="e_wo_entrp">    -21.18113732 </i>
    <i name="e_0_energy">    -21.18787355 </i>
   </energy>
  </scstep>
  <scstep>
   <time name="total">   23.04   23.17</time>
   <energy>
    <i name="e_fr_energy">    -21.19529779 </i>
    <i name="e_wo_entrp">    -21.18183185 </i>
    <i name="e_0_energy">    -21.18856482 </i>
   </energy>
  </scstep>
  <scstep>
   <time name="total">   23.04   23.14</time>
   <energy>
    <i name="e_fr_energy">    -21.19541927 </i>
    <i name="e_wo_entrp">    -21.18195719 </i>
    <i name="e_0_energy">    -21.18868823 </i>
   </energy>
  </scstep>
  <scstep>
   <time name="total">   23.03   23.14</time>
   <energy>
    <i name="e_fr_energy">    -21.19558919 </i>
    <i name="e_wo_entrp">    -21.18212929 </i>
    <i name="e_0_energy">    -21.18885924 </i>
   </energy>
  </scstep>
  <scstep>
   <time name="total">   23.04   23.16</time>
   <energy>
    <i name="e_fr_energy">    -21.19565293 </i>
    <i name="e_wo_entrp">    -21.18219381 </i>
    <i name="e_0_energy">    -21.18892337 </i>
   </energy>
  </scstep>
  <scstep>
   <time name="total">   23.13   23.31</time>
   <energy>
    <i name="e_fr_energy">    -21.19570292 </i>
    <i name="e_wo_entrp">    -21.18224411 </i>
    <i name="e_0_energy">    -21.18897351 </i>
   </energy>
  </scstep>
  <scstep>
   <time name="total">   23.04   23.17</time>
   <energy>
    <i name="e_fr_energy">    -21.19573059 </i>
    <i name="e_wo_entrp">    -21.18227204 </i>
    <i name="e_0_energy">    -21.18900131 </i>
   </energy>
  </scstep>
  <scstep>
   <time name="total">   23.08   23.21</time>
   <energy>
    <i name="e_fr_energy">    -21.19574987 </i>
    <i name="e_wo_entrp">    -21.18229159 </i>
    <i name="e_0_energy">    -21.18902073 </i>
   </energy>
  </scstep>
  <scstep>
   <time name="total">   23.07   23.17</time>
   <energy>
    <i name="e_fr_energy">    -21.19576247 </i>
    <i name="e_wo_entrp">    -21.18230436 </i>
    <i name="e_0_energy">    -21.18903341 </i>
   </energy>
  </scstep>
  <scstep>
   <time name="total">   23.00   23.12</time>
   <energy>
    <i name="e_fr_energy">    -21.19576947 </i>
    <i name="e_wo_entrp">    -21.18231157 </i>
    <i name="e_0_energy">    -21.18904052 </i>
   </energy>
  </scstep>
  <scstep>
   <time name="total">   23.03   23.14</time>
   <energy>
    <i name="e_fr_energy">    -21.19577413 </i>
    <i name="e_wo_entrp">    -21.18231639 </i>
    <i name="e_0_energy">    -21.18904526 </i>
   </energy>
  </scstep>
  <scstep>
   <time name="total">   23.08   23.27</time>
   <energy>
    <i name="e_fr_energy">    -21.19577640 </i>
    <i name="e_wo_entrp">    -21.18231885 </i>
    <i name="e_0_energy">    -21.18904762 </i>
   </energy>
  </scstep>
  <scstep>
   <time name="total">   22.99   23.13</time>
   <energy>
    <i name="e_fr_energy">    -21.19577863 </i>
    <i name="e_wo_entrp">    -21.18232124 </i>
    <i name="e_0_energy">    -21.18904993 </i>
   </energy>
  </scstep>
  <scstep>
   <time name="total">   23.05   23.16</time>
   <energy>
    <i name="e_fr_energy">    -21.19577877 </i>
    <i name="e_wo_entrp">    -21.18232155 </i>
    <i name="e_0_energy">    -21.18905016 </i>
   </energy>
  </scstep>
  <scstep>
   <time name="total">   23.02   23.17</time>
   <energy>
    <i name="e_fr_energy">    -21.19578069 </i>
    <i name="e_wo_entrp">    -21.18232356 </i>
    <i name="e_0_energy">    -21.18905212 </i>
   </energy>
  </scstep>
  <scstep>
   <time name="total">   23.02   23.16</time>
   <energy>
    <i name="e_fr_energy">    -21.19577882 </i>
    <i name="e_wo_entrp">    -21.18232188 </i>
    <i name="e_0_energy">    -21.18905035 </i>
   </energy>
  </scstep>
  <scstep>
   <time name="total">   23.03   23.16</time>
   <energy>
    <i name="e_fr_energy">    -21.19578263 </i>
    <i name="e_wo_entrp">    -21.18232567 </i>
    <i name="e_0_energy">    -21.18905415 </i>
   </energy>
  </scstep>
  <scstep>
   <time name="total">   23.00   23.16</time>
   <energy>
    <i name="e_fr_energy">    -21.19577624 </i>
    <i name="e_wo_entrp">    -21.18231956 </i>
    <i name="e_0_energy">    -21.18904790 </i>
   </energy>
  </scstep>
  <scstep>
   <time name="total">   23.11   23.30</time>
   <energy>
    <i name="e_fr_energy">    -21.19578710 </i>
    <i name="e_wo_entrp">    -21.18233014 </i>
    <i name="e_0_energy">    -21.18905862 </i>
   </energy>
  </scstep>
  <scstep>
   <time name="total">   23.08   23.20</time>
   <energy>
    <i name="e_fr_energy">    -21.19576549 </i>
    <i name="e_wo_entrp">    -21.18230922 </i>
    <i name="e_0_energy">    -21.18903736 </i>
   </energy>
  </scstep>
  <scstep>
   <time name="total">   23.01   23.13</time>
   <energy>
    <i name="e_fr_energy">    -21.19580391 </i>
    <i name="e_wo_entrp">    -21.18234646 </i>
    <i name="e_0_energy">    -21.18907519 </i>
   </energy>
  </scstep>
  <scstep>
   <time name="total">   23.03   23.13</time>
   <energy>
    <i name="e_fr_energy">    -21.19573001 </i>
    <i name="e_wo_entrp">    -21.18227484 </i>
    <i name="e_0_energy">    -21.18900243 </i>
   </energy>
  </scstep>
  <scstep>
   <time name="total">   23.04   23.15</time>
   <energy>
    <i name="e_fr_energy">    -21.19585978 </i>
    <i name="e_wo_entrp">    -21.18240045 </i>
    <i name="e_0_energy">    -21.18913012 </i>
   </energy>
  </scstep>
  <scstep>
   <time name="total">   23.19   23.30</time>
   <energy>
    <i name="e_fr_energy">    -21.19561180 </i>
    <i name="e_wo_entrp">    -21.18216007 </i>
    <i name="e_0_energy">    -21.18888594 </i>
   </energy>
  </scstep>
  <scstep>
   <time name="total">   23.09   23.30</time>
   <energy>
    <i name="e_fr_energy">    -21.19598705 </i>
    <i name="e_wo_entrp">    -21.18252205 </i>
    <i name="e_0_energy">    -21.18925455 </i>
   </energy>
  </scstep>
  <scstep>
   <time name="total">   23.02   23.13</time>
   <energy>
    <i name="e_fr_energy">    -21.19521880 </i>
    <i name="e_wo_entrp">    -21.18177646 </i>
    <i name="e_0_energy">    -21.18849763 </i>
   </energy>
  </scstep>
  <scstep>
   <time name="total">   23.11   23.35</time>
   <energy>
    <i name="e_fr_energy">    -21.19612345 </i>
    <i name="e_wo_entrp">    -21.18264398 </i>
    <i name="e_0_energy">    -21.18938371 </i>
   </energy>
  </scstep>
  <scstep>
   <time name="total">   23.02   23.12</time>
   <energy>
    <i name="e_fr_energy">    -21.19389390 </i>
    <i name="e_wo_entrp">    -21.18047404 </i>
    <i name="e_0_energy">    -21.18718397 </i>
   </energy>
  </scstep>
  <scstep>
   <time name="total">   23.04   23.14</time>
   <energy>
    <i name="e_fr_energy">    -21.19552176 </i>
    <i name="e_wo_entrp">    -21.18200963 </i>
    <i name="e_0_energy">    -21.18876569 </i>
   </energy>
  </scstep>
  <scstep>
   <time name="total">   23.02   23.13</time>
   <energy>
    <i name="e_fr_energy">    -21.18906603 </i>
    <i name="e_wo_entrp">    -21.17569604 </i>
    <i name="e_0_energy">    -21.18238104 </i>
   </energy>
  </scstep>
  <scstep>
   <time name="total">   23.02   23.14</time>
   <energy>
    <i name="e_fr_energy">    -21.19015077 </i>
    <i name="e_wo_entrp">    -21.17657153 </i>
    <i name="e_0_energy">    -21.18336115 </i>
   </energy>
  </scstep>
  <scstep>
   <time name="total">   23.38   23.53</time>
   <energy>
    <i name="e_fr_energy">    -21.17087053 </i>
    <i name="e_wo_entrp">    -21.15760662 </i>
    <i name="e_0_energy">    -21.16423858 </i>
   </energy>
  </scstep>
  <scstep>
   <time name="total">   23.09   23.22</time>
   <energy>
    <i name="e_fr_energy">    -21.16255967 </i>
    <i name="e_wo_entrp">    -21.14885473 </i>
    <i name="e_0_energy">    -21.15570720 </i>
   </energy>
  </scstep>
  <scstep>
   <time name="total">   23.03   23.14</time>
   <energy>
    <i name="e_fr_energy">    -21.10247341 </i>
    <i name="e_wo_entrp">    -21.08942802 </i>
    <i name="e_0_energy">    -21.09595071 </i>
   </energy>
  </scstep>
  <scstep>
   <time name="total">   23.05   23.15</time>
   <energy>
    <i name="e_fr_energy">    -21.04620214 </i>
    <i name="e_wo_entrp">    -21.03230271 </i>
    <i name="e_0_energy">    -21.03925243 </i>
   </energy>
  </scstep>
  <scstep>
   <time name="total">   23.02   23.13</time>
   <energy>
    <i name="e_fr_energy">    -20.86067412 </i>
    <i name="e_wo_entrp">    -20.84803485 </i>
    <i name="e_0_energy">    -20.85435448 </i>
   </energy>
  </scstep>
  <scstep>
   <time name="total">   23.04   23.15</time>
   <energy>
    <i name="e_fr_energy">    -20.62703752 </i>
    <i name="e_wo_entrp">    -20.61300765 </i>
    <i name="e_0_energy">    -20.62002259 </i>
   </energy>
  </scstep>
  <scstep>
   <time name="total">   23.06   23.17</time>
   <energy>
    <i name="e_fr_energy">    -20.12022647 </i>
    <i name="e_wo_entrp">    -20.10808284 </i>
    <i name="e_0_energy">    -20.11415466 </i>
   </energy>
  </scstep>
  <scstep>
   <time name="total">   23.03   23.15</time>
   <energy>
    <i name="e_fr_energy">    -19.44166306 </i>
    <i name="e_wo_entrp">    -19.42813056 </i>
    <i name="e_0_energy">    -19.43489681 </i>
   </energy>
  </scstep>
  <scstep>
   <time name="total">   23.03   23.13</time>
   <energy>
    <i name="e_fr_energy">    -18.47733272 </i>
    <i name="e_wo_entrp">    -18.46491472 </i>
    <i name="e_0_energy">    -18.47112372 </i>
   </energy>
  </scstep>
  <scstep>
   <time name="total">   23.10   23.31</time>
   <energy>
    <i name="e_fr_energy">    -17.32087613 </i>
    <i name="e_wo_entrp">    -17.30865810 </i>
    <i name="e_0_energy">    -17.31476712 </i>
   </energy>
  </scstep>
  <scstep>
   <time name="total">   23.17   23.29</time>
   <energy>
    <i name="e_fr_energy">    -16.46033095 </i>
    <i name="e_wo_entrp">    -16.44612184 </i>
    <i name="e_0_energy">    -16.45322639 </i>
   </energy>
  </scstep>
  <scstep>
   <time name="total">   23.09   23.19</time>
   <energy>
    <i name="e_fr_energy">    -15.60143956 </i>
    <i name="e_wo_entrp">    -15.59023236 </i>
    <i name="e_0_energy">    -15.59583596 </i>
   </energy>
  </scstep>
  <scstep>
   <time name="total">   23.01   23.13</time>
   <energy>
    <i name="e_fr_energy">    -15.74024203 </i>
    <i name="e_wo_entrp">    -15.72473664 </i>
    <i name="e_0_energy">    -15.73248934 </i>
   </energy>
  </scstep>
  <scstep>
   <time name="total">   23.20   23.39</time>
   <energy>
    <i name="e_fr_energy">    -15.65747716 </i>
    <i name="e_wo_entrp">    -15.64577256 </i>
    <i name="e_0_energy">    -15.65162486 </i>
   </energy>
  </scstep>
  <scstep>
   <time name="total">   23.07   23.21</time>
   <energy>
    <i name="e_fr_energy">    -16.45310312 </i>
    <i name="e_wo_entrp">    -16.43657115 </i>
    <i name="e_0_energy">    -16.44483713 </i>
   </energy>
  </scstep>
  <scstep>
   <time name="total">   23.03   23.14</time>
   <energy>
    <i name="e_fr_energy">    -16.65595206 </i>
    <i name="e_wo_entrp">    -16.64281241 </i>
    <i name="e_0_energy">    -16.64938224 </i>
   </energy>
  </scstep>
  <scstep>
   <time name="total">   23.03   23.14</time>
   <energy>
    <i name="e_fr_energy">    -17.28619308 </i>
    <i name="e_wo_entrp">    -17.26923561 </i>
    <i name="e_0_energy">    -17.27771435 </i>
   </energy>
  </scstep>
  <scstep>
   <time name="total">   23.04   23.14</time>
   <energy>
    <i name="e_fr_energy">    -17.36239170 </i>
    <i name="e_wo_entrp">    -17.34815396 </i>
    <i name="e_0_energy">    -17.35527283 </i>
   </energy>
  </scstep>
  <scstep>
   <time name="total">   23.01   23.12</time>
   <energy>
    <i name="e_fr_energy">    -17.75855519 </i>
    <i name="e_wo_entrp">    -17.74183765 </i>
    <i name="e_0_energy">    -17.75019642 </i>
   </energy>
  </scstep>
  <scstep>
   <time name="total">   23.08   23.19</time>
   <energy>
    <i name="e_fr_energy">    -17.73672278 </i>
    <i name="e_wo_entrp">    -17.72200006 </i>
    <i name="e_0_energy">    -17.72936142 </i>
   </energy>
  </scstep>
  <scstep>
   <time name="total">   23.02   23.12</time>
   <energy>
    <i name="e_fr_energy">    -18.01409824 </i>
    <i name="e_wo_entrp">    -17.99797205 </i>
    <i name="e_0_energy">    -18.00603514 </i>
   </energy>
  </scstep>
  <scstep>
   <time name="total">   23.03   23.14</time>
   <energy>
    <i name="e_fr_energy">    -17.99210207 </i>
    <i name="e_wo_entrp">    -17.97737416 </i>
    <i name="e_0_energy">    -17.98473812 </i>
   </energy>
  </scstep>
  <scstep>
   <time name="total">   23.05   23.26</time>
   <energy>
    <i name="e_fr_energy">    -18.24392588 </i>
    <i name="e_wo_entrp">    -18.22845639 </i>
    <i name="e_0_energy">    -18.23619114 </i>
   </energy>
  </scstep>
  <scstep>
   <time name="total">   23.01   23.12</time>
   <energy>
    <i name="e_fr_energy">    -18.20911558 </i>
    <i name="e_wo_entrp">    -18.19475592 </i>
    <i name="e_0_energy">    -18.20193575 </i>
   </energy>
  </scstep>
  <scstep>
   <time name="total">   23.15   23.29</time>
   <energy>
    <i name="e_fr_energy">    -18.40293660 </i>
    <i name="e_wo_entrp">    -18.38797600 </i>
    <i name="e_0_energy">    -18.39545630 </i>
   </energy>
  </scstep>
  <scstep>
   <time name="total">   23.18   23.30</time>
   <energy>
    <i name="e_fr_energy">    -18.37076748 </i>
    <i name="e_wo_entrp">    -18.35658081 </i>
    <i name="e_0_energy">    -18.36367415 </i>
   </energy>
  </scstep>
  <scstep>
   <time name="total">   23.14   23.31</time>
   <energy>
    <i name="e_fr_energy">    -18.52988583 </i>
    <i name="e_wo_entrp">    -18.51528065 </i>
    <i name="e_0_energy">    -18.52258324 </i>
   </energy>
  </scstep>
  <scstep>
   <time name="total">   23.03   23.16</time>
   <energy>
    <i name="e_fr_energy">    -18.48651194 </i>
    <i name="e_wo_entrp">    -18.47247850 </i>
    <i name="e_0_energy">    -18.47949522 </i>
   </energy>
  </scstep>
  <scstep>
   <time name="total">   23.10   23.22</time>
   <energy>
    <i name="e_fr_energy">    -18.61625679 </i>
    <i name="e_wo_entrp">    -18.60185782 </i>
    <i name="e_0_energy">    -18.60905731 </i>
   </energy>
  </scstep>
  <scstep>
   <time name="total">   23.00   23.12</time>
   <energy>
    <i name="e_fr_energy">    -18.56155276 </i>
    <i name="e_wo_entrp">    -18.54761789 </i>
    <i name="e_0_energy">    -18.55458533 </i>
   </energy>
  </scstep>
  <scstep>
   <time name="total">   22.99   23.12</time>
   <energy>
    <i name="e_fr_energy">    -18.66414464 </i>
    <i name="e_wo_entrp">    -18.64986162 </i>
    <i name="e_0_energy">    -18.65700313 </i>
   </energy>
  </scstep>
  <scstep>
   <time name="total">   23.03   23.14</time>
   <energy>
    <i name="e_fr_energy">    -18.59362663 </i>
    <i name="e_wo_entrp">    -18.57974247 </i>
    <i name="e_0_energy">    -18.58668455 </i>
   </energy>
  </scstep>
  <scstep>
   <time name="total">   23.05   23.21</time>
   <energy>
    <i name="e_fr_energy">    -18.67397786 </i>
    <i name="e_wo_entrp">    -18.65974228 </i>
    <i name="e_0_energy">    -18.66686007 </i>
   </energy>
  </scstep>
  <scstep>
   <time name="total">   23.02   23.13</time>
   <energy>
    <i name="e_fr_energy">    -18.58783970 </i>
    <i name="e_wo_entrp">    -18.57397734 </i>
    <i name="e_0_energy">    -18.58090852 </i>
   </energy>
  </scstep>
  <scstep>
   <time name="total">   23.05   23.16</time>
   <energy>
    <i name="e_fr_energy">    -18.65203606 </i>
    <i name="e_wo_entrp">    -18.63779915 </i>
    <i name="e_0_energy">    -18.64491761 </i>
   </energy>
  </scstep>
  <scstep>
   <time name="total">   23.02   23.13</time>
   <energy>
    <i name="e_fr_energy">    -18.55401225 </i>
    <i name="e_wo_entrp">    -18.54012918 </i>
    <i name="e_0_energy">    -18.54707071 </i>
   </energy>
  </scstep>
  <scstep>
   <time name="total">   23.10   23.46</time>
   <energy>
    <i name="e_fr_energy">    -18.61274457 </i>
    <i name="e_wo_entrp">    -18.59846991 </i>
    <i name="e_0_energy">    -18.60560724 </i>
   </energy>
  </scstep>
  <scstep>
   <time name="total">   23.01   23.14</time>
   <energy>
    <i name="e_fr_energy">    -18.50845543 </i>
    <i name="e_wo_entrp">    -18.49453308 </i>
    <i name="e_0_energy">    -18.50149426 </i>
   </energy>
  </scstep>
  <scstep>
   <time name="total">   23.03   23.14</time>
   <energy>
    <i name="e_fr_energy">    -18.56708139 </i>
    <i name="e_wo_entrp">    -18.55274298 </i>
    <i name="e_0_energy">    -18.55991218 </i>
   </energy>
  </scstep>
  <scstep>
   <time name="total">   23.16   23.35</time>
   <energy>
    <i name="e_fr_energy">    -18.46147746 </i>
    <i name="e_wo_entrp">    -18.44749294 </i>
    <i name="e_0_energy">    -18.45448520 </i>
   </energy>
  </scstep>
  <scstep>
   <time name="total">   23.02   23.18</time>
   <energy>
    <i name="e_fr_energy">    -18.52654460 </i>
    <i name="e_wo_entrp">    -18.51213721 </i>
    <i name="e_0_energy">    -18.51934091 </i>
   </energy>
  </scstep>
  <scstep>
   <time name="total">   23.04   23.15</time>
   <energy>
    <i name="e_fr_energy">    -18.42065730 </i>
    <i name="e_wo_entrp">    -18.40661282 </i>
    <i name="e_0_energy">    -18.41363506 </i>
   </energy>
  </scstep>
  <scstep>
   <time name="total">   23.02   23.14</time>
   <energy>
    <i name="e_fr_energy">    -18.48818035 </i>
    <i name="e_wo_entrp">    -18.47369628 </i>
    <i name="e_0_energy">    -18.48093831 </i>
   </energy>
  </scstep>
  <scstep>
   <time name="total">   22.95   23.10</time>
   <energy>
    <i name="e_fr_energy">    -18.38324864 </i>
    <i name="e_wo_entrp">    -18.36914173 </i>
    <i name="e_0_energy">    -18.37619518 </i>
   </energy>
  </scstep>
  <scstep>
   <time name="total">   23.25   23.36</time>
   <energy>
    <i name="e_fr_energy">    -18.46122884 </i>
    <i name="e_wo_entrp">    -18.44668230 </i>
    <i name="e_0_energy">    -18.45395557 </i>
   </energy>
  </scstep>
  <scstep>
   <time name="total">   23.08   23.19</time>
   <energy>
    <i name="e_fr_energy">    -18.36189806 </i>
    <i name="e_wo_entrp">    -18.34774270 </i>
    <i name="e_0_energy">    -18.35482038 </i>
   </energy>
  </scstep>
  <scstep>
   <time name="total">   23.04   23.16</time>
   <energy>
    <i name="e_fr_energy">    -18.44568246 </i>
    <i name="e_wo_entrp">    -18.43108636 </i>
    <i name="e_0_energy">    -18.43838441 </i>
   </energy>
  </scstep>
  <scstep>
   <time name="total">   23.01   23.12</time>
   <energy>
    <i name="e_fr_energy">    -18.34866821 </i>
    <i name="e_wo_entrp">    -18.33447097 </i>
    <i name="e_0_energy">    -18.34156959 </i>
   </energy>
  </scstep>
  <scstep>
   <time name="total">   22.98   23.14</time>
   <energy>
    <i name="e_fr_energy">    -18.43645901 </i>
    <i name="e_wo_entrp">    -18.42183321 </i>
    <i name="e_0_energy">    -18.42914611 </i>
   </energy>
  </scstep>
  <scstep>
   <time name="total">   23.00   23.12</time>
   <energy>
    <i name="e_fr_energy">    -18.34336157 </i>
    <i name="e_wo_entrp">    -18.32913249 </i>
    <i name="e_0_energy">    -18.33624703 </i>
   </energy>
  </scstep>
  <scstep>
   <time name="total">   23.12   23.40</time>
   <energy>
    <i name="e_fr_energy">    -18.43842742 </i>
    <i name="e_wo_entrp">    -18.42379381 </i>
    <i name="e_0_energy">    -18.43111062 </i>
   </energy>
  </scstep>
  <scstep>
   <time name="total">   23.02   23.15</time>
   <energy>
    <i name="e_fr_energy">    -18.34869466 </i>
    <i name="e_wo_entrp">    -18.33444392 </i>
    <i name="e_0_energy">    -18.34156929 </i>
   </energy>
  </scstep>
  <scstep>
   <time name="total">   23.14   23.26</time>
   <energy>
    <i name="e_fr_energy">    -18.44250640 </i>
    <i name="e_wo_entrp">    -18.42788236 </i>
    <i name="e_0_energy">    -18.43519438 </i>
   </energy>
  </scstep>
  <scstep>
   <time name="total">   23.02   23.17</time>
   <energy>
    <i name="e_fr_energy">    -18.34870913 </i>
    <i name="e_wo_entrp">    -18.33444913 </i>
    <i name="e_0_energy">    -18.34157913 </i>
   </energy>
  </scstep>
  <scstep>
   <time name="total">   23.07   23.18</time>
   <energy>
    <i name="e_fr_energy">    -18.43622341 </i>
    <i name="e_wo_entrp">    -18.42159943 </i>
    <i name="e_0_energy">    -18.42891142 </i>
   </energy>
  </scstep>
  <scstep>
   <time name="total">   23.02   23.12</time>
   <energy>
    <i name="e_fr_energy">    -18.33740884 </i>
    <i name="e_wo_entrp">    -18.32314375 </i>
    <i name="e_0_energy">    -18.33027629 </i>
   </energy>
  </scstep>
  <scstep>
   <time name="total">   23.02   23.12</time>
   <energy>
    <i name="e_fr_energy">    -18.42239039 </i>
    <i name="e_wo_entrp">    -18.40775416 </i>
    <i name="e_0_energy">    -18.41507227 </i>
   </energy>
  </scstep>
  <scstep>
   <time name="total">   23.04   23.14</time>
   <energy>
    <i name="e_fr_energy">    -18.32319331 </i>
    <i name="e_wo_entrp">    -18.30891836 </i>
    <i name="e_0_energy">    -18.31605583 </i>
   </energy>
  </scstep>
  <scstep>
   <time name="total">   23.07   23.22</time>
   <energy>
    <i name="e_fr_energy">    -18.41200581 </i>
    <i name="e_wo_entrp">    -18.39735035 </i>
    <i name="e_0_energy">    -18.40467808 </i>
   </energy>
  </scstep>
  <scstep>
   <time name="total">   23.02   23.13</time>
   <energy>
    <i name="e_fr_energy">    -18.31564192 </i>
    <i name="e_wo_entrp">    -18.30135717 </i>
    <i name="e_0_energy">    -18.30849955 </i>
   </energy>
  </scstep>
  <scstep>
   <time name="total">   45.84   46.06</time>
   <energy>
    <i name="alphaZ">    317.92935429 </i>
    <i name="ewald">  -3117.33000124 </i>
    <i name="hartreedc">   -563.19764778 </i>
    <i name="XCdc">     69.23398019 </i>
    <i name="pawpsdc">   3677.31983070 </i>
    <i name="pawaedc">  -3573.78810341 </i>
    <i name="eentropy">     -0.01466028 </i>
    <i name="bandstr">   -726.25324632 </i>
    <i name="atom">   3758.86448176 </i>
    <i name="e_fr_energy">    -18.41061376 </i>
    <i name="e_wo_entrp">    -18.39595348 </i>
    <i name="e_0_energy">    -18.40328362 </i>
   </energy>
  </scstep>
  <structure>
   <crystal>
    <varray name="basis" >
     <v>       3.64945427       0.00000000      -0.00000000 </v>
     <v>      -1.82472714       3.16052011      -0.00000000 </v>
     <v>      -0.00000000      -0.00000000      11.66936528 </v>
    </varray>
    <i name="volume">    134.59648511 </i>
    <varray name="rec_basis" >
     <v>       0.27401357       0.15820181       0.00000000 </v>
     <v>      -0.00000000       0.31640362       0.00000000 </v>
     <v>       0.00000000       0.00000000       0.08569446 </v>
    </varray>
   </crystal>
   <varray name="positions" >
    <v>       1.00000000       1.00000000       0.00000000 </v>
    <v>       0.00000000       1.00000000       0.50000000 </v>
    <v>       0.33333333       0.66666667       0.25000000 </v>
    <v>       0.66666667       0.33333333       0.75000000 </v>
   </varray>
  </structure>
  <varray name="forces" >
   <v>      -0.00000000       0.00000000       0.00000000 </v>
   <v>      -0.00000000       0.00000000       0.00000000 </v>
   <v>       0.00000000      -0.00000000       0.00000000 </v>
   <v>      -0.00000000       0.00000000      -0.00000000 </v>
  </varray>
  <varray name="stress" >
   <v>      12.10891533      -0.00000000       0.00000000 </v>
   <v>      -0.00000000      12.10891533      -0.00000000 </v>
   <v>       0.00000000      -0.00000000     -12.28904013 </v>
  </varray>
  <energy>
   <i name="e_fr_energy">    -18.41061376 </i>
   <i name="e_wo_entrp">    -18.39631512 </i>
   <i name="e_0_energy">    -18.40346444 </i>
  </energy>
  <time name="totalsc"> 2406.20 2420.45</time>
 </calculation>
 <calculation>
  <scstep>
   <time name="total">   23.00   23.11</time>
   <energy>
    <i name="alphaZ">    315.41455286 </i>
    <i name="ewald">  -3109.09731978 </i>
    <i name="hartreedc">   -601.52551072 </i>
    <i name="XCdc">     69.43948713 </i>
    <i name="pawpsdc">   3641.17543195 </i>
    <i name="pawaedc">  -3544.84191883 </i>
    <i name="eentropy">     -0.01722308 </i>
    <i name="bandstr">   -588.13033915 </i>
    <i name="atom">   3758.86448176 </i>
    <i name="e_fr_energy">     80.40351649 </i>
    <i name="e_wo_entrp">     80.42073957 </i>
    <i name="e_0_energy">     80.41212803 </i>
   </energy>
  </scstep>
  <scstep>
   <time name="total">   23.05   23.17</time>
   <energy>
    <i name="e_fr_energy">     63.31995359 </i>
    <i name="e_wo_entrp">     63.33874055 </i>
    <i name="e_0_energy">     63.32934707 </i>
   </energy>
  </scstep>
  <scstep>
   <time name="total">   23.11   23.23</time>
   <energy>
    <i name="e_fr_energy">     -5.58610299 </i>
    <i name="e_wo_entrp">     -5.56877184 </i>
    <i name="e_0_energy">     -5.57743741 </i>
   </energy>
  </scstep>
  <scstep>
   <time name="total">   22.93   23.06</time>
   <energy>
    <i name="e_fr_energy">    -18.75735382 </i>
    <i name="e_wo_entrp">    -18.73399910 </i>
    <i name="e_0_energy">    -18.74567646 </i>
   </energy>
  </scstep>
  <scstep>
   <time name="total">   22.95   23.05</time>
   <energy>
    <i name="e_fr_energy">    -18.90224679 </i>
    <i name="e_wo_entrp">    -18.88085294 </i>
    <i name="e_0_energy">    -18.89154987 </i>
   </energy>
  </scstep>
  <scstep>
   <time name="total">   22.92   23.05</time>
   <energy>
    <i name="e_fr_energy">    -19.19039151 </i>
    <i name="e_wo_entrp">    -19.17030307 </i>
    <i name="e_0_energy">    -19.18034729 </i>
   </energy>
  </scstep>
  <scstep>
   <time name="total">   22.96   23.07</time>
   <energy>
    <i name="e_fr_energy">    -19.73843968 </i>
    <i name="e_wo_entrp">    -19.71961229 </i>
    <i name="e_0_energy">    -19.72902598 </i>
   </energy>
  </scstep>
  <scstep>
   <time name="total">   22.93   23.06</time>
   <energy>
    <i name="e_fr_energy">    -20.57699723 </i>
    <i name="e_wo_entrp">    -20.56099887 </i>
    <i name="e_0_energy">    -20.56899805 </i>
   </energy>
  </scstep>
  <scstep>
   <time name="total">   22.95   23.06</time>
   <energy>
    <i name="e_fr_energy">    -20.90385473 </i>
    <i name="e_wo_entrp">    -20.88911984 </i>
    <i name="e_0_energy">    -20.89648728 </i>
   </energy>
  </scstep>
  <scstep>
   <time name="total">   22.96   23.06</time>
   <energy>
    <i name="e_fr_energy">    -21.07041983 </i>
    <i name="e_wo_entrp">    -21.05711809 </i>
    <i name="e_0_energy">    -21.06376896 </i>
   </energy>
  </scstep>
  <scstep>
   <time name="total">   22.98   23.09</time>
   <energy>
    <i name="e_fr_energy">    -21.13876512 </i>
    <i name="e_wo_entrp">    -21.12531138 </i>
    <i name="e_0_energy">    -21.13203825 </i>
   </energy>
  </scstep>
  <scstep>
   <time name="total">   22.92   23.04</time>
   <energy>
    <i name="e_fr_energy">    -21.16017573 </i>
    <i name="e_wo_entrp">    -21.14712200 </i>
    <i name="e_0_energy">    -21.15364887 </i>
   </energy>
  </scstep>
  <scstep>
   <time name="total">   23.04   23.26</time>
   <energy>
    <i name="e_fr_energy">    -21.17869776 </i>
    <i name="e_wo_entrp">    -21.16529123 </i>
    <i name="e_0_energy">    -21.17199450 </i>
   </energy>
  </scstep>
  <scstep>
   <time name="total">   23.03   23.15</time>
   <energy>
    <i name="e_fr_energy">    -21.17685334 </i>
    <i name="e_wo_entrp">    -21.16363145 </i>
    <i name="e_0_energy">    -21.17024239 </i>
   </energy>
  </scstep>
  <scstep>
   <time name="total">   22.98   23.10</time>
   <energy>
    <i name="e_fr_energy">    -21.18519949 </i>
    <i name="e_wo_entrp">    -21.17160837 </i>
    <i name="e_0_energy">    -21.17840393 </i>
   </energy>
  </scstep>
  <scstep>
   <time name="total">   22.99   23.12</time>
   <energy>
    <i name="e_fr_energy">    -21.17599255 </i>
    <i name="e_wo_entrp">    -21.16264794 </i>
    <i name="e_0_energy">    -21.16932024 </i>
   </energy>
  </scstep>
  <scstep>
   <time name="total">   22.95   23.05</time>
   <energy>
    <i name="e_fr_energy">    -21.18160911 </i>
    <i name="e_wo_entrp">    -21.16786095 </i>
    <i name="e_0_energy">    -21.17473503 </i>
   </energy>
  </scstep>
  <scstep>
   <time name="total">   22.90   23.01</time>
   <energy>
    <i name="e_fr_energy">    -21.16409711 </i>
    <i name="e_wo_entrp">    -21.15073639 </i>
    <i name="e_0_energy">    -21.15741675 </i>
   </energy>
  </scstep>
  <scstep>
   <time name="total">   22.95   23.06</time>
   <energy>
    <i name="e_fr_energy">    -21.16619996 </i>
    <i name="e_wo_entrp">    -21.15232537 </i>
    <i name="e_0_energy">    -21.15926266 </i>
   </energy>
  </scstep>
  <scstep>
   <time name="total">   22.99   23.10</time>
   <energy>
    <i name="e_fr_energy">    -21.13224652 </i>
    <i name="e_wo_entrp">    -21.11897489 </i>
    <i name="e_0_energy">    -21.12561070 </i>
   </energy>
  </scstep>
  <scstep>
   <time name="total">   22.95   23.06</time>
   <energy>
    <i name="e_fr_energy">    -21.12295472 </i>
    <i name="e_wo_entrp">    -21.10895519 </i>
    <i name="e_0_energy">    -21.11595496 </i>
   </energy>
  </scstep>
  <scstep>
   <time name="total">   22.92   23.03</time>
   <energy>
    <i name="e_fr_energy">    -21.05026590 </i>
    <i name="e_wo_entrp">    -21.03719740 </i>
    <i name="e_0_energy">    -21.04373165 </i>
   </energy>
  </scstep>
  <scstep>
   <time name="total">   22.95   23.06</time>
   <energy>
    <i name="e_fr_energy">    -21.00189994 </i>
    <i name="e_wo_entrp">    -20.98776778 </i>
    <i name="e_0_energy">    -20.99483386 </i>
   </energy>
  </scstep>
  <scstep>
   <time name="total">   22.93   23.04</time>
   <energy>
    <i name="e_fr_energy">    -20.83632100 </i>
    <i name="e_wo_entrp">    -20.82359562 </i>
    <i name="e_0_energy">    -20.82995831 </i>
   </energy>
  </scstep>
  <scstep>
   <time name="total">   22.89   23.03</time>
   <energy>
    <i name="e_fr_energy">    -20.67551604 </i>
    <i name="e_wo_entrp">    -20.66133078 </i>
    <i name="e_0_energy">    -20.66842341 </i>
   </energy>
  </scstep>
  <scstep>
   <time name="total">   22.94   23.05</time>
   <energy>
    <i name="e_fr_energy">    -20.31292452 </i>
    <i name="e_wo_entrp">    -20.30061052 </i>
    <i name="e_0_energy">    -20.30676752 </i>
   </energy>
  </scstep>
  <scstep>
   <time name="total">   23.02   23.25</time>
   <energy>
    <i name="e_fr_energy">    -19.90327144 </i>
    <i name="e_wo_entrp">    -19.88935532 </i>
    <i name="e_0_energy">    -19.89631338 </i>
   </energy>
  </scstep>
[...]
    <i name="e_wo_entrp">    -21.17423934 </i>
    <i name="e_0_energy">    -21.18086912 </i>
   </energy>
  </scstep>
  <scstep>
   <time name="total">   23.02   23.13</time>
   <energy>
    <i name="e_fr_energy">    -21.18982296 </i>
    <i name="e_wo_entrp">    -21.17647607 </i>
    <i name="e_0_energy">    -21.18314952 </i>
   </energy>
  </scstep>
  <scstep>
   <time name="total">   23.32   24.29</time>
   <energy>
    <i name="e_fr_energy">    -21.18744686 </i>
    <i name="e_wo_entrp">    -21.17419602 </i>
    <i name="e_0_energy">    -21.18082144 </i>
   </energy>
  </scstep>
  <scstep>
   <time name="total">   23.11   23.48</time>
   <energy>
    <i name="e_fr_energy">    -21.18982975 </i>
    <i name="e_wo_entrp">    -21.17648605 </i>
    <i name="e_0_energy">    -21.18315790 </i>
   </energy>
  </scstep>
  <scstep>
   <time name="total">   23.03   23.15</time>
   <energy>
    <i name="e_fr_energy">    -21.18725555 </i>
    <i name="e_wo_entrp">    -21.17401199 </i>
    <i name="e_0_energy">    -21.18063377 </i>
   </energy>
  </scstep>
  <scstep>
   <time name="total">   23.06   23.16</time>
   <energy>
    <i name="e_fr_energy">    -21.18979259 </i>
    <i name="e_wo_entrp">    -21.17644721 </i>
    <i name="e_0_energy">    -21.18311990 </i>
   </energy>
  </scstep>
  <scstep>
   <time name="total">   23.01   23.12</time>
   <energy>
    <i name="e_fr_energy">    -21.18685990 </i>
    <i name="e_wo_entrp">    -21.17362451 </i>
    <i name="e_0_energy">    -21.18024220 </i>
   </energy>
  </scstep>
  <scstep>
   <time name="total">   23.07   23.22</time>
   <energy>
    <i name="e_fr_energy">    -21.18967848 </i>
    <i name="e_wo_entrp">    -21.17632673 </i>
    <i name="e_0_energy">    -21.18300261 </i>
   </energy>
  </scstep>
  <scstep>
   <time name="total">   23.02   23.13</time>
   <energy>
    <i name="e_fr_energy">    -21.18619974 </i>
    <i name="e_wo_entrp">    -21.17297449 </i>
    <i name="e_0_energy">    -21.17958711 </i>
   </energy>
  </scstep>
  <scstep>
   <time name="total">   23.05   23.16</time>
   <energy>
    <i name="e_fr_energy">    -21.18942425 </i>
    <i name="e_wo_entrp">    -21.17606180 </i>
    <i name="e_0_energy">    -21.18274303 </i>
   </energy>
  </scstep>
  <scstep>
   <time name="total">   23.08   23.22</time>
   <energy>
    <i name="e_fr_energy">    -21.18514894 </i>
    <i name="e_wo_entrp">    -21.17193687 </i>
    <i name="e_0_energy">    -21.17854290 </i>
   </energy>
  </scstep>
  <scstep>
   <time name="total">   23.06   23.17</time>
   <energy>
    <i name="e_fr_energy">    -21.18890425 </i>
    <i name="e_wo_entrp">    -21.17552606 </i>
    <i name="e_0_energy">    -21.18221515 </i>
   </energy>
  </scstep>
  <scstep>
   <time name="total">   23.02   23.12</time>
   <energy>
    <i name="e_fr_energy">    -21.18346131 </i>
    <i name="e_wo_entrp">    -21.17026683 </i>
    <i name="e_0_energy">    -21.17686407 </i>
   </energy>
  </scstep>
  <scstep>
   <time name="total">   23.01   23.11</time>
   <energy>
    <i name="e_fr_energy">    -21.18786146 </i>
    <i name="e_wo_entrp">    -21.17446087 </i>
    <i name="e_0_energy">    -21.18116116 </i>
   </energy>
  </scstep>
  <scstep>
   <time name="total">   23.03   23.13</time>
   <energy>
    <i name="e_fr_energy">    -21.18067527 </i>
    <i name="e_wo_entrp">    -21.16750465 </i>
    <i name="e_0_energy">    -21.17408996 </i>
   </energy>
  </scstep>
  <scstep>
   <time name="total">   23.20   23.41</time>
   <energy>
    <i name="e_fr_energy">    -21.18579601 </i>
    <i name="e_wo_entrp">    -21.17236386 </i>
    <i name="e_0_energy">    -21.17907994 </i>
   </energy>
  </scstep>
  <scstep>
   <time name="total">   23.28   25.84</time>
   <energy>
    <i name="e_fr_energy">    -21.17594930 </i>
    <i name="e_wo_entrp">    -21.16281109 </i>
    <i name="e_0_energy">    -21.16938020 </i>
   </energy>
  </scstep>
  <scstep>
   <time name="total">   23.67   24.42</time>
   <energy>
    <i name="e_fr_energy">    -21.18170537 </i>
    <i name="e_wo_entrp">    -21.16822854 </i>
    <i name="e_0_energy">    -21.17496695 </i>
   </energy>
  </scstep>
  <scstep>
   <time name="total">   23.01   23.15</time>
   <energy>
    <i name="e_fr_energy">    -21.16764622 </i>
    <i name="e_wo_entrp">    -21.15455223 </i>
    <i name="e_0_energy">    -21.16109922 </i>
   </energy>
  </scstep>
  <scstep>
   <time name="total">   23.01   23.12</time>
   <energy>
    <i name="e_fr_energy">    -21.17358046 </i>
    <i name="e_wo_entrp">    -21.16003967 </i>
    <i name="e_0_energy">    -21.16681006 </i>
   </energy>
  </scstep>
  <scstep>
   <time name="total">   23.02   23.13</time>
   <energy>
    <i name="e_fr_energy">    -21.15264510 </i>
    <i name="e_wo_entrp">    -21.13961068 </i>
    <i name="e_0_energy">    -21.14612789 </i>
   </energy>
  </scstep>
  <scstep>
   <time name="total">   23.02   23.13</time>
   <energy>
    <i name="e_fr_energy">    -21.15737936 </i>
    <i name="e_wo_entrp">    -21.14374605 </i>
    <i name="e_0_energy">    -21.15056270 </i>
   </energy>
  </scstep>
  <scstep>
   <time name="total">   23.03   23.13</time>
   <energy>
    <i name="e_fr_energy">    -21.12507153 </i>
    <i name="e_wo_entrp">    -21.11211528 </i>
    <i name="e_0_energy">    -21.11859341 </i>
   </energy>
  </scstep>
  <scstep>
   <time name="total">   23.05   23.17</time>
   <energy>
    <i name="e_fr_energy">    -21.12540057 </i>
    <i name="e_wo_entrp">    -21.11163350 </i>
    <i name="e_0_energy">    -21.11851703 </i>
   </energy>
  </scstep>
  <scstep>
   <time name="total">   23.04   23.14</time>
   <energy>
    <i name="e_fr_energy">    -21.07393882 </i>
    <i name="e_wo_entrp">    -21.06108016 </i>
    <i name="e_0_energy">    -21.06750949 </i>
   </energy>
  </scstep>
  <scstep>
   <time name="total">   23.02   23.12</time>
   <energy>
    <i name="e_fr_energy">    -21.06299503 </i>
    <i name="e_wo_entrp">    -21.04903569 </i>
    <i name="e_0_energy">    -21.05601536 </i>
   </energy>
  </scstep>
  <scstep>
   <time name="total">   22.99   23.09</time>
   <energy>
    <i name="e_fr_energy">    -20.97962444 </i>
    <i name="e_wo_entrp">    -20.96687510 </i>
    <i name="e_0_energy">    -20.97324977 </i>
   </energy>
  </scstep>
  <scstep>
   <time name="total">   23.02   23.13</time>
   <energy>
    <i name="e_fr_energy">    -20.94346147 </i>
    <i name="e_wo_entrp">    -20.92922979 </i>
    <i name="e_0_energy">    -20.93634563 </i>
   </energy>
  </scstep>
  <scstep>
   <time name="total">   23.33   24.53</time>
   <energy>
    <i name="e_fr_energy">    -20.80724700 </i>
    <i name="e_wo_entrp">    -20.79459553 </i>
    <i name="e_0_energy">    -20.80092126 </i>
   </energy>
  </scstep>
  <scstep>
   <time name="total">   23.62   24.70</time>
   <energy>
    <i name="e_fr_energy">    -20.72128205 </i>
    <i name="e_wo_entrp">    -20.70667795 </i>
    <i name="e_0_energy">    -20.71398000 </i>
   </energy>
  </scstep>
  <scstep>
   <time name="total">   23.04   23.16</time>
   <energy>
    <i name="e_fr_energy">    -20.50604097 </i>
    <i name="e_wo_entrp">    -20.49341203 </i>
    <i name="e_0_energy">    -20.49972650 </i>
   </energy>
  </scstep>
  <scstep>
   <time name="total">   22.99   23.11</time>
   <energy>
    <i name="e_fr_energy">    -20.33743596 </i>
    <i name="e_wo_entrp">    -20.32237106 </i>
    <i name="e_0_energy">    -20.32990351 </i>
   </energy>
  </scstep>
  <scstep>
   <time name="total">   23.01   23.11</time>
   <energy>
    <i name="e_fr_energy">    -20.02792386 </i>
    <i name="e_wo_entrp">    -20.01512871 </i>
    <i name="e_0_energy">    -20.02152628 </i>
   </energy>
  </scstep>
  <scstep>
   <time name="total">   23.02   23.12</time>
   <energy>
    <i name="e_fr_energy">    -19.75616106 </i>
    <i name="e_wo_entrp">    -19.74063191 </i>
    <i name="e_0_energy">    -19.74839648 </i>
   </energy>
  </scstep>
  <scstep>
   <time name="total">   23.08   23.21</time>
   <energy>
    <i name="e_fr_energy">    -19.38416549 </i>
    <i name="e_wo_entrp">    -19.37092631 </i>
    <i name="e_0_energy">    -19.37754590 </i>
   </energy>
  </scstep>
  <scstep>
   <time name="total">   23.02   23.12</time>
   <energy>
    <i name="e_fr_energy">    -19.03945848 </i>
    <i name="e_wo_entrp">    -19.02356211 </i>
    <i name="e_0_energy">    -19.03151030 </i>
   </energy>
  </scstep>
  <scstep>
   <time name="total">   23.01   23.11</time>
   <energy>
    <i name="e_fr_energy">    -18.70894975 </i>
    <i name="e_wo_entrp">    -18.69509948 </i>
    <i name="e_0_energy">    -18.70202461 </i>
   </energy>
  </scstep>
  <scstep>
   <time name="total">   22.99   23.09</time>
   <energy>
    <i name="e_fr_energy">    -18.38015685 </i>
    <i name="e_wo_entrp">    -18.36394359 </i>
    <i name="e_0_energy">    -18.37205022 </i>
   </energy>
  </scstep>
  <scstep>
   <time name="total">   22.98   23.09</time>
   <energy>
    <i name="e_fr_energy">    -18.18847286 </i>
    <i name="e_wo_entrp">    -18.17410882 </i>
    <i name="e_0_energy">    -18.18129084 </i>
   </energy>
  </scstep>
  <scstep>
   <time name="total">   23.00   23.11</time>
   <energy>
    <i name="e_fr_energy">    -17.95227865 </i>
    <i name="e_wo_entrp">    -17.93564463 </i>
    <i name="e_0_energy">    -17.94396164 </i>
   </energy>
  </scstep>
  <scstep>
   <time name="total">   23.00   23.11</time>
   <energy>
    <i name="e_fr_energy">    -17.92046121 </i>
    <i name="e_wo_entrp">    -17.90574757 </i>
    <i name="e_0_energy">    -17.91310439 </i>
   </energy>
  </scstep>
  <scstep>
   <time name="total">   23.19   23.48</time>
   <energy>
    <i name="e_fr_energy">    -17.78572871 </i>
    <i name="e_wo_entrp">    -17.76855083 </i>
    <i name="e_0_energy">    -17.77713977 </i>
   </energy>
  </scstep>
  <scstep>
   <time name="total">   23.00   23.11</time>
   <energy>
    <i name="e_fr_energy">    -17.85653102 </i>
    <i name="e_wo_entrp">    -17.84162022 </i>
    <i name="e_0_energy">    -17.84907562 </i>
   </energy>
  </scstep>
  <scstep>
   <time name="total">   23.16   24.16</time>
   <energy>
    <i name="e_fr_energy">    -17.77148558 </i>
    <i name="e_wo_entrp">    -17.75375880 </i>
    <i name="e_0_energy">    -17.76262219 </i>
   </energy>
  </scstep>
  <scstep>
   <time name="total">   23.01   23.15</time>
   <energy>
    <i name="e_fr_energy">    -17.87011911 </i>
    <i name="e_wo_entrp">    -17.85520710 </i>
    <i name="e_0_energy">    -17.86266310 </i>
   </energy>
  </scstep>
  <scstep>
   <time name="total">   23.02   23.13</time>
   <energy>
    <i name="e_fr_energy">    -17.79128090 </i>
    <i name="e_wo_entrp">    -17.77314564 </i>
    <i name="e_0_energy">    -17.78221327 </i>
   </energy>
  </scstep>
  <scstep>
   <time name="total">   23.02   23.12</time>
   <energy>
    <i name="e_fr_energy">    -17.88502945 </i>
    <i name="e_wo_entrp">    -17.87019697 </i>
    <i name="e_0_energy">    -17.87761321 </i>
   </energy>
  </scstep>
  <scstep>
   <time name="total">   23.08   23.21</time>
   <energy>
    <i name="e_fr_energy">    -17.80566731 </i>
    <i name="e_wo_entrp">    -17.78741839 </i>
    <i name="e_0_energy">    -17.79654285 </i>
   </energy>
  </scstep>
  <scstep>
   <time name="total">   23.01   23.14</time>
   <energy>
    <i name="e_fr_energy">    -17.90630274 </i>
    <i name="e_wo_entrp">    -17.89142388 </i>
    <i name="e_0_energy">    -17.89886331 </i>
   </energy>
  </scstep>
  <scstep>
   <time name="total">   23.02   23.13</time>
   <energy>
    <i name="e_fr_energy">    -17.84002590 </i>
    <i name="e_wo_entrp">    -17.82178160 </i>
    <i name="e_0_energy">    -17.83090375 </i>
   </energy>
  </scstep>
  <scstep>
   <time name="total">   23.00   23.10</time>
   <energy>
    <i name="e_fr_energy">    -17.95569061 </i>
    <i name="e_wo_entrp">    -17.94073788 </i>
    <i name="e_0_energy">    -17.94821425 </i>
   </energy>
  </scstep>
  <scstep>
   <time name="total">   23.01   23.11</time>
   <energy>
    <i name="e_fr_energy">    -17.90425662 </i>
    <i name="e_wo_entrp">    -17.88608608 </i>
    <i name="e_0_energy">    -17.89517135 </i>
   </energy>
  </scstep>
  <scstep>
   <time name="total">   23.03   23.14</time>
   <energy>
    <i name="e_fr_energy">    -18.02847225 </i>
    <i name="e_wo_entrp">    -18.01348454 </i>
    <i name="e_0_energy">    -18.02097839 </i>
   </energy>
  </scstep>
  <scstep>
   <time name="total">   23.02   23.13</time>
   <energy>
    <i name="e_fr_energy">    -17.98410047 </i>
    <i name="e_wo_entrp">    -17.96603978 </i>
    <i name="e_0_energy">    -17.97507013 </i>
   </energy>
  </scstep>
  <scstep>
   <time name="total">   23.08   25.84</time>
   <energy>
    <i name="e_fr_energy">    -18.10331481 </i>
    <i name="e_wo_entrp">    -18.08833444 </i>
    <i name="e_0_energy">    -18.09582462 </i>
   </energy>
  </scstep>
  <scstep>
   <time name="total">   23.81   24.92</time>
   <energy>
    <i name="e_fr_energy">    -18.05637683 </i>
    <i name="e_wo_entrp">    -18.03843411 </i>
    <i name="e_0_energy">    -18.04740547 </i>
   </energy>
  </scstep>
  <scstep>
   <time name="total">   23.19   24.11</time>
   <energy>
    <i name="e_fr_energy">    -18.16414843 </i>
    <i name="e_wo_entrp">    -18.14919701 </i>
    <i name="e_0_energy">    -18.15667272 </i>
   </energy>
  </scstep>
  <scstep>
   <time name="total">   23.03   23.18</time>
   <energy>
    <i name="e_fr_energy">    -18.11045912 </i>
    <i name="e_wo_entrp">    -18.09262637 </i>
    <i name="e_0_energy">    -18.10154274 </i>
   </energy>
  </scstep>
  <scstep>
   <time name="total">   23.03   23.13</time>
   <energy>
    <i name="e_fr_energy">    -18.20539090 </i>
    <i name="e_wo_entrp">    -18.19047248 </i>
    <i name="e_0_energy">    -18.19793169 </i>
   </energy>
  </scstep>
  <scstep>
   <time name="total">   23.03   23.14</time>
   <energy>
    <i name="e_fr_energy">    -18.14450905 </i>
    <i name="e_wo_entrp">    -18.12676686 </i>
    <i name="e_0_energy">    -18.13563795 </i>
   </energy>
  </scstep>
  <scstep>
   <time name="total">   23.10   23.23</time>
   <energy>
    <i name="e_fr_energy">    -18.23029625 </i>
    <i name="e_wo_entrp">    -18.21540541 </i>
    <i name="e_0_energy">    -18.22285083 </i>
   </energy>
  </scstep>
  <scstep>
   <time name="total">   23.04   23.14</time>
   <energy>
    <i name="e_fr_energy">    -18.16482946 </i>
    <i name="e_wo_entrp">    -18.14715607 </i>
    <i name="e_0_energy">    -18.15599277 </i>
   </energy>
  </scstep>
  <scstep>
   <time name="total">   23.03   23.15</time>
   <energy>
    <i name="e_fr_energy">    -18.24581478 </i>
    <i name="e_wo_entrp">    -18.23094341 </i>
    <i name="e_0_energy">    -18.23837909 </i>
   </energy>
  </scstep>
  <scstep>
   <time name="total">   23.01   23.12</time>
   <energy>
    <i name="e_fr_energy">    -18.17778301 </i>
    <i name="e_wo_entrp">    -18.16016018 </i>
    <i name="e_0_energy">    -18.16897160 </i>
   </energy>
  </scstep>
  <scstep>
   <time name="total">   23.02   23.13</time>
   <energy>
    <i name="e_fr_energy">    -18.25440523 </i>
    <i name="e_wo_entrp">    -18.23955422 </i>
    <i name="e_0_energy">    -18.24697972 </i>
   </energy>
  </scstep>
  <scstep>
   <time name="total">   23.03   23.13</time>
   <energy>
    <i name="e_fr_energy">    -18.18171842 </i>
    <i name="e_wo_entrp">    -18.16412909 </i>
    <i name="e_0_energy">    -18.17292375 </i>
   </energy>
  </scstep>
  <scstep>
   <time name="total">   23.03   23.12</time>
   <energy>
    <i name="e_fr_energy">    -18.25513166 </i>
    <i name="e_wo_entrp">    -18.24028628 </i>
    <i name="e_0_energy">    -18.24770897 </i>
   </energy>
  </scstep>
  <scstep>
   <time name="total">   23.19   23.54</time>
   <energy>
    <i name="e_fr_energy">    -18.18036809 </i>
    <i name="e_wo_entrp">    -18.16280320 </i>
    <i name="e_0_energy">    -18.17158565 </i>
   </energy>
  </scstep>
  <scstep>
   <time name="total">   23.03   23.13</time>
   <energy>
    <i name="e_fr_energy">    -18.25363535 </i>
    <i name="e_wo_entrp">    -18.23879044 </i>
    <i name="e_0_energy">    -18.24621290 </i>
   </energy>
  </scstep>
  <scstep>
   <time name="total">   23.02   23.13</time>
   <energy>
    <i name="e_fr_energy">    -18.17821840 </i>
    <i name="e_wo_entrp">    -18.16066651 </i>
    <i name="e_0_energy">    -18.16944246 </i>
   </energy>
  </scstep>
  <scstep>
   <time name="total">   23.13   23.92</time>
   <energy>
    <i name="e_fr_energy">    -18.25118125 </i>
    <i name="e_wo_entrp">    -18.23633056 </i>
    <i name="e_0_energy">    -18.24375590 </i>
   </energy>
  </scstep>
  <scstep>
   <time name="total">   23.03   23.19</time>
   <energy>
    <i name="e_fr_energy">    -18.17051095 </i>
    <i name="e_wo_entrp">    -18.15291241 </i>
    <i name="e_0_energy">    -18.16171168 </i>
   </energy>
  </scstep>
  <scstep>
   <time name="total">   23.02   23.14</time>
   <energy>
    <i name="e_fr_energy">    -18.23402097 </i>
    <i name="e_wo_entrp">    -18.21920446 </i>
    <i name="e_0_energy">    -18.22661272 </i>
   </energy>
  </scstep>
  <scstep>
   <time name="total">   23.09   23.23</time>
   <energy>
    <i name="e_fr_energy">    -18.14229738 </i>
    <i name="e_wo_entrp">    -18.12456248 </i>
    <i name="e_0_energy">    -18.13342993 </i>
   </energy>
  </scstep>
  <scstep>
   <time name="total">   23.00   23.12</time>
   <energy>
    <i name="e_fr_energy">    -18.19981206 </i>
    <i name="e_wo_entrp">    -18.18503613 </i>
    <i name="e_0_energy">    -18.19242409 </i>
   </energy>
  </scstep>
  <scstep>
   <time name="total">   22.99   23.11</time>
   <energy>
    <i name="e_fr_energy">    -18.10483273 </i>
    <i name="e_wo_entrp">    -18.08705998 </i>
    <i name="e_0_energy">    -18.09594636 </i>
   </energy>
  </scstep>
  <scstep>
   <time name="total">   45.86   46.30</time>
   <energy>
    <i name="alphaZ">    315.40914404 </i>
    <i name="ewald">  -3108.52661559 </i>
    <i name="hartreedc">   -566.75001447 </i>
    <i name="XCdc">     69.16264902 </i>
    <i name="pawpsdc">   3657.17236056 </i>
    <i name="pawaedc">  -3553.87508258 </i>
    <i name="eentropy">     -0.01480636 </i>
    <i name="bandstr">   -728.36174006 </i>
    <i name="atom">   3758.86448176 </i>
    <i name="e_fr_energy">    -18.16942830 </i>
    <i name="e_wo_entrp">    -18.15462195 </i>
    <i name="e_0_energy">    -18.16202513 </i>
   </energy>
  </scstep>
  <structure>
   <crystal>
    <varray name="basis" >
     <v>       3.68445829       0.00000000      -0.00000000 </v>
     <v>      -1.84222915       3.19083448      -0.00000000 </v>
     <v>      -0.00000000      -0.00000000      11.54016838 </v>
    </varray>
    <i name="volume">    135.67194994 </i>
    <varray name="rec_basis" >
     <v>       0.27141032       0.15669882       0.00000000 </v>
     <v>      -0.00000000       0.31339764       0.00000000 </v>
     <v>       0.00000000       0.00000000       0.08665385 </v>
    </varray>
   </crystal>
   <varray name="positions" >
    <v>       0.00000000       0.00000000       0.00000000 </v>
    <v>       0.00000000       0.00000000       0.50000000 </v>
    <v>       0.33333333       0.66666667       0.25000000 </v>
    <v>       0.66666667       0.33333333       0.75000000 </v>
   </varray>
  </structure>
  <varray name="forces" >
   <v>       0.00000000      -0.00000000       0.00000000 </v>
   <v>       0.00000000      -0.00000000       0.00000000 </v>
   <v>      -0.00000000       0.00000000       0.00000000 </v>
   <v>       0.00000000      -0.00000000      -0.00000000 </v>
  </varray>
  <varray name="stress" >
   <v>       6.31455501      -0.00000000       0.00000000 </v>
   <v>      -0.00000000       6.31455501       0.00000000 </v>
   <v>       0.00000000       0.00000000      -9.35676025 </v>
  </varray>
  <energy>
   <i name="e_fr_energy">    -18.16942830 </i>
   <i name="e_wo_entrp">    -18.15165115 </i>
   <i name="e_0_energy">    -18.16053973 </i>
  </energy>
