       N       E                     dE             d eps       ncg     rms           ort
SDA:   1    -0.682234945218E+03   -0.68223E+03    0.00000E+00  2564   0.758E-05   0.000E+00
CGA:   2    -0.682234946809E+03   -0.15911E-05   -0.15845E-05  2564   0.298E-05   0.731E-06
   1 F= -.68223495E+03 E0= -.68223495E+03  d E =-.682235E+03  mag=     2.0000
