 vasp.6.5.1 10Mar25 (build May 13 2025 11:33:44) complex                         
 executed on              LinuxNV date 2026.05.10  22:00:17
 running    2 mpi-ranks, on    1 nodes
 distrk:  each k-point on    1 cores,    2 groups
 distr:  one band on NCORE=   1 cores,    1 groups
 Offloading initialized ...    2 GPUs detected


--------------------------------------------------------------------------------------------------------


 INCAR:
   ALGO = All
   PREC = Normal
   LREAL = Auto
   EDIFF = 1e-05
   ENCUT = 400.0
   LASPH = True
   NELM = 100
   ISIF = 2
   IBRION = 2
   EDIFFG = -0.03
   NSW = 300
   ISMEAR = 0
   SIGMA = 0.1
   ISPIN = 2
   LWAVE = True
   LCHARG = False
   ISTRAT = 1
   IGHARG = 1
   LORBIT = 10
   LHFCALC = True
   PRECFOCK = Fast
   AEXX = 0.36
   HFSCREEN = 0.2
   TIME = 0.4
   KPAR = 4

 POTCAR:    PAW_PBE Zn 06Sep2000                  
 POTCAR:    PAW_PBE O 08Apr2002                   
 -----------------------------------------------------------------------------
|                                                                             |
|           W    W    AA    RRRRR   N    N  II  N    N   GGGG   !!!           |
|           W    W   A  A   R    R  NN   N  II  NN   N  G    G  !!!           |
|           W    W  A    A  R    R  N N  N  II  N N  N  G       !!!           |
|           W WW W  AAAAAA  RRRRR   N  N N  II  N  N N  G  GGG   !            |
|           WW  WW  A    A  R   R   N   NN  II  N   NN  G    G                |
|           W    W  A    A  R    R  N    N  II  N    N   GGGG   !!!           |
|                                                                             |
|     You requested a magnetic or noncollinear calculation, but did not       |
|     specify the initial magnetic moment with the MAGMOM tag. Note that      |
|     a default of 1 will be used for all atoms. This ferromagnetic setup     |
|     may break the symmetry of the crystal, in particular it may rule        |
|     out finding an antiferromagnetic solution. Thence, we recommend         |
|     setting the initial magnetic moment manually or verifying carefully     |
|     that this magnetic setup is desired.                                    |
|                                                                             |
 -----------------------------------------------------------------------------

 POTCAR:    PAW_PBE Zn 06Sep2000                  
   SHA256 =  501fddbd8274dd8e9725d4f3de27861d7f1e553a7e18441bc79fed8f346e7f23 Zn/POTCAR             
   COPYR  = (c) Copyright 06Sep2000 Georg Kresse                                                    
   COPYR  = This file is part of the software VASP. Any use, copying, and all other rights are regul
   COPYR  = If you do not have a valid VASP license, you may not use, copy or distribute this file. 
   VRHFIN =Zn: d10 p2                                                                               
   LEXCH  = PE                                                                                      
   EATOM  =  1748.8345 eV,  128.5357 Ry                                                             
                                                                                                    
   TITEL  = PAW_PBE Zn 06Sep2000                                                                    
   LULTRA =        F    use ultrasoft PP ?                                                          
   IUNSCR =        1    unscreen: 0-lin 1-nonlin 2-no                                               
   RPACOR =    2.000    partial core radius                                                         
   POMASS =   65.390; ZVAL   =   12.000    mass and valenz                                          
   RCORE  =    2.300    outmost cutoff radius                                                       
   RWIGS  =    2.400; RWIGS  =    1.270    wigner-seitz radius (au A)                               
   ENMAX  =  276.723; ENMIN  =  207.542 eV                                                          
   RCLOC  =    1.828    cutoff for local pot                                                        
   LCOR   =        T    correct aug charges                                                         
   LPAW   =        T    paw PP                                                                      
   EAUG   =  575.892                                                                                
   DEXC   =    0.000                                                                                
   RMAX   =    2.347    core radius for proj-oper                                                   
   RAUG   =    1.300    factor for augmentation sphere                                              
   RDEP   =    2.324    radius for radial grids                                                     
   RDEPT  =    1.788    core radius for aug-charge                                                  
                                                                                                    
   Atomic configuration                                                                             
    9 entries                                                                                       
     n  l   j            E        occ.                                                              
     1  0  0.50     -9524.6913   2.0000                                                             
     2  0  0.50     -1158.1882   2.0000                                                             
     2  1  1.50     -1003.8506   6.0000                                                             
     3  0  0.50      -129.2194   2.0000                                                             
     3  1  1.50       -83.3890   6.0000                                                             
     3  2  2.50       -10.1410  10.0000                                                             
     4  0  0.50        -5.9785   2.0000                                                             
     4  1  0.50        -4.0817   0.0000                                                             
     4  3  2.50        -1.3606   0.0000                                                             
   Description                                                                                      
     l       E           TYP  RCUT    TYP  RCUT                                                     
     2    -10.1410010     23  2.300                                                                 
     2    -11.5015836     23  2.300                                                                 
     0     -5.9785163     23  2.300                                                                 
     0      1.1858015     23  2.300                                                                 
     1     -2.7211652     23  2.300                                                                 
     1     13.2444212     23  2.300                                                                 
  local pseudopotential read in
  partial core-charges read in
  partial kinetic energy density read in
  atomic valenz-charges read in
  non local Contribution for L=            2  read in
    real space projection operators read in
  non local Contribution for L=            2  read in
    real space projection operators read in
  non local Contribution for L=            0  read in
    real space projection operators read in
  non local Contribution for L=            0  read in
    real space projection operators read in
  non local Contribution for L=            1  read in
    real space projection operators read in
  non local Contribution for L=            1  read in
    real space projection operators read in
    PAW grid and wavefunctions read in
 
   number of l-projection  operators is LMAX  =            6
   number of lm-projection operators is LMMAX =           18
 
 POTCAR:    PAW_PBE O 08Apr2002                   
   SHA256 =  818f92134a0a090dccd8ba1447fa70422a3b330e708bb4f08108d8ae51209ddf O/POTCAR              
   COPYR  = (c) Copyright 08Apr2002 Georg Kresse                                                    
   COPYR  = This file is part of the software VASP. Any use, copying, and all other rights are regul
   COPYR  = If you do not have a valid VASP license, you may not use, copy or distribute this file. 
   VRHFIN =O: s2p4                                                                                  
   LEXCH  = PE                                                                                      
   EATOM  =   432.3788 eV,   31.7789 Ry                                                             
                                                                                                    
   TITEL  = PAW_PBE O 08Apr2002                                                                     
   LULTRA =        F    use ultrasoft PP ?                                                          
   IUNSCR =        1    unscreen: 0-lin 1-nonlin 2-no                                               
   RPACOR =    1.200    partial core radius                                                         
   POMASS =   16.000; ZVAL   =    6.000    mass and valenz                                          
   RCORE  =    1.520    outmost cutoff radius                                                       
   RWIGS  =    1.550; RWIGS  =    0.820    wigner-seitz radius (au A)                               
   ENMAX  =  400.000; ENMIN  =  300.000 eV                                                          
   ICORE  =        2    local potential                                                             
   LCOR   =        T    correct aug charges                                                         
   LPAW   =        T    paw PP                                                                      
   EAUG   =  605.392                                                                                
   DEXC   =    0.000                                                                                
   RMAX   =    1.553    core radius for proj-oper                                                   
   RAUG   =    1.300    factor for augmentation sphere                                              
   RDEP   =    1.550    radius for radial grids                                                     
   RDEPT  =    1.329    core radius for aug-charge                                                  
                                                                                                    
   Atomic configuration                                                                             
    4 entries                                                                                       
     n  l   j            E        occ.                                                              
     1  0  0.50      -514.6923   2.0000                                                             
     2  0  0.50       -23.9615   2.0000                                                             
     2  1  0.50        -9.0305   4.0000                                                             
     3  2  1.50        -9.5241   0.0000                                                             
   Description                                                                                      
     l       E           TYP  RCUT    TYP  RCUT                                                     
     0    -23.9615318     23  1.200                                                                 
     0     -9.5240782     23  1.200                                                                 
     1     -9.0304911     23  1.520                                                                 
     1      8.1634956     23  1.520                                                                 
     2     -9.5240782      7  1.500                                                                 
  local pseudopotential read in
  partial core-charges read in
  partial kinetic energy density read in
  kinetic energy density of atom read in
  atomic valenz-charges read in
  non local Contribution for L=            0  read in
    real space projection operators read in
  non local Contribution for L=            0  read in
    real space projection operators read in
  non local Contribution for L=            1  read in
    real space projection operators read in
  non local Contribution for L=            1  read in
    real space projection operators read in
    PAW grid and wavefunctions read in
 
   number of l-projection  operators is LMAX  =            4
   number of lm-projection operators is LMMAX =            8
 
 Optimization of the real space projectors (new method)

 maximal supplied QI-value         = 16.25
 optimisation between [QCUT,QGAM] = [ 10.24, 20.48] = [ 29.35,117.42] Ry 
 Optimized for a Real-space Cutoff    1.38 Angstroem

   l    n(q)    QCUT    max X(q) W(low)/X(q) W(high)/X(q)  e(spline) 
   2      7    10.239    46.356    0.21E-03    0.48E-03    0.10E-06
   2      7    10.239    41.843    0.21E-03    0.50E-03    0.10E-06
   0      8    10.239    48.958    0.37E-03    0.79E-04    0.11E-06
   0      8    10.239    32.776    0.35E-03    0.73E-04    0.10E-06
   1      8    10.239    17.787    0.49E-03    0.70E-03    0.14E-06
   1      8    10.239    14.435    0.42E-03    0.61E-03    0.13E-06
 Optimization of the real space projectors (new method)

 maximal supplied QI-value         = 24.76
 optimisation between [QCUT,QGAM] = [ 10.15, 20.30] = [ 28.85,115.39] Ry 
 Optimized for a Real-space Cutoff    1.38 Angstroem

   l    n(q)    QCUT    max X(q) W(low)/X(q) W(high)/X(q)  e(spline) 
   0      8    10.150    20.381    0.22E-03    0.32E-03    0.29E-06
   0      8    10.150    15.268    0.23E-03    0.35E-03    0.30E-06
   1      8    10.150     5.964    0.46E-03    0.53E-03    0.21E-06
   1      8    10.150     5.382    0.38E-03    0.45E-03    0.19E-06
  PAW_PBE Zn 06Sep2000                  :
 energy of atom  1       EATOM=-1748.8345
 kinetic energy error for atom=    0.0107 (will be added to EATOM!!)
  PAW_PBE O 08Apr2002                   :
 energy of atom  2       EATOM= -432.3788
 kinetic energy error for atom=    0.1156 (will be added to EATOM!!)
 
 
 POSCAR: Zn54 O55
  positions in direct lattice
  velocities in cartesian coordinates


 exchange-correlation table for PE
   RHO(1)=    0.500       N(1)  =     2000
   RHO(2)=  100.500       N(2)  =     4000
 


--------------------------------------------------------------------------------------------------------


 ion  position               nearest neighbor table
   1  0.111  0.222  1.000-  85 1.97  88 1.97 103 1.98  56 1.98
   2  0.117  0.221  0.333-  86 1.98  57 1.99  83 1.99 101 2.03  55 2.46
   3  0.111  0.222  0.666-  84 1.97 102 1.98  87 1.98  58 1.98
   4  0.111  0.556  1.000-  88 1.97  91 1.97 106 1.98  59 1.99
   5  0.113  0.557  0.333-  89 1.97  86 1.97 104 1.98  60 1.99
   6  0.112  0.556  0.667-  90 1.97 105 1.97  87 1.97  61 1.98
   7  0.111  0.890  1.000-  85 1.97  91 1.97 109 1.98  62 1.98
   8  0.117  0.896  0.333-  89 1.98  83 1.99  63 1.99 107 2.03  55 2.47
   9  0.111  0.889  0.666-  84 1.97 108 1.98  90 1.98  64 1.98
  10  0.444  0.222  0.000-  85 1.97  94 1.98  97 1.98  65 1.99
  11  0.458  0.229  0.337-  83 1.90  95 1.97  92 1.97  66 1.98
  12  0.444  0.222  0.667-  84 1.97  96 1.98  93 1.98  67 1.98
  13  0.444  0.555  1.000- 100 1.97  97 1.98  88 1.98  68 1.99
  14  0.445  0.555  0.333-  95 1.97  86 1.97  98 1.98  69 1.99
  15  0.444  0.555  0.667-  96 1.97  87 1.97  99 1.98  70 1.98
  16  0.444  0.889  1.000- 100 1.97  94 1.98  91 1.98  71 1.99
  17  0.445  0.890  0.333-  92 1.97  89 1.97  98 1.98  72 1.99
  18  0.444  0.888  0.667-  93 1.97  90 1.97  99 1.98  73 1.98
  19  0.778  0.222  1.000-  94 1.97 106 1.97 103 1.97  74 1.99
  20  0.776  0.228  0.336-  92 1.95 101 1.95 104 1.96  75 1.97
  21  0.778  0.222  0.667-  93 1.97 102 1.98 105 1.98  76 1.98
  22  0.778  0.556  1.000-  97 1.97 106 1.97 109 1.97  77 1.99
  23  0.776  0.549  0.336-  95 1.95 107 1.95 104 1.96  78 1.97
  24  0.778  0.556  0.667-  96 1.97 108 1.97 105 1.98  79 1.98
  25  0.774  0.887  0.995-  80 1.95 100 1.97 109 1.98 103 1.98
  26  0.775  0.887  0.335-  98 1.96  81 1.97 107 2.02 101 2.02  55 2.34
  27  0.778  0.889  0.667- 102 1.97 108 1.97  99 1.98  82 1.99
  28  0.224  0.113  0.169-  65 1.98  56 2.00  62 2.00  83 2.02  55 2.29
  29  0.224  0.112  0.500-  63 1.97  57 1.97  66 1.98  84 1.99
  30  0.222  0.111  0.833-  67 1.97  58 1.98  64 1.98  85 1.98
  31  0.220  0.443  0.167-  56 1.96  68 1.97  59 1.97  86 1.99
  32  0.222  0.444  0.500-  60 1.97  57 1.98  69 1.98  87 1.99
  33  0.222  0.444  0.833-  70 1.97  58 1.98  61 1.98  88 1.98
  34  0.220  0.778  0.167-  62 1.96  71 1.97  59 1.97  89 1.99
  35  0.222  0.778  0.500-  60 1.98  63 1.98  72 1.98  90 1.99
  36  0.222  0.778  0.833-  73 1.97  61 1.98  64 1.98  91 1.98
  37  0.555  0.111  0.167-  71 1.97  65 1.97  74 1.98  92 1.99
  38  0.556  0.110  0.502-  66 1.97  72 1.97  75 1.98  93 1.98
  39  0.555  0.111  0.833-  67 1.97  73 1.97  76 1.98  94 1.99
  40  0.555  0.445  0.167-  68 1.97  65 1.97  77 1.98  95 1.99
  41  0.556  0.446  0.502-  66 1.97  69 1.97  78 1.98  96 1.98
  42  0.555  0.444  0.833-  67 1.97  70 1.98  79 1.98  97 1.99
  43  0.551  0.775  0.165-  80 1.94  68 1.97  71 1.97  98 2.00
  44  0.555  0.778  0.500-  72 1.98  69 1.98  81 1.98  99 1.98
  45  0.554  0.777  0.832-  70 1.97  73 1.97 100 1.97  82 1.98
  46  0.883  0.106  0.163-  74 1.96  80 2.00  56 2.01 101 2.12  55 2.14
  47  0.890  0.112  0.500-  57 1.97  75 1.98  81 1.98 102 1.99
  48  0.889  0.112  0.833-  58 1.97  76 1.97  82 1.98 103 1.98
  49  0.889  0.445  0.166-  59 1.97  77 1.98  74 1.98 104 1.99
  50  0.890  0.445  0.502-  60 1.97  75 1.97  78 1.97 105 1.98
  51  0.889  0.445  0.833-  79 1.97  76 1.97  61 1.98 106 1.99
  52  0.884  0.779  0.163-  77 1.96  80 2.00  62 2.00 107 2.12  55 2.14
  53  0.890  0.779  0.500-  63 1.97  78 1.98  81 1.98 108 1.99
  54  0.889  0.778  0.833-  64 1.97  79 1.97  82 1.98 109 1.98
  55  0.983  0.992  0.237-  46 2.14  52 2.14  28 2.29  26 2.34   2 2.46   8 2.47
  56  0.111  0.223  0.126-  31 1.96   1 1.98  28 2.00  46 2.01
  57  0.112  0.222  0.460-  47 1.97  29 1.97  32 1.98   2 1.99
  58  0.111  0.222  0.793-  48 1.97  30 1.98  33 1.98   3 1.98
  59  0.110  0.556  0.127-  49 1.97  31 1.97  34 1.97   4 1.99
  60  0.111  0.556  0.460-  50 1.97  32 1.97  35 1.98   5 1.99
  61  0.111  0.556  0.794-  51 1.98  36 1.98  33 1.98   6 1.98
  62  0.111  0.889  0.126-  34 1.96   7 1.98  52 2.00  28 2.00
  63  0.112  0.890  0.460-  53 1.97  29 1.97  35 1.98   8 1.99
  64  0.111  0.889  0.793-  54 1.97  36 1.98  30 1.98   9 1.98
  65  0.445  0.223  0.127-  37 1.97  40 1.97  28 1.98  10 1.99
  66  0.449  0.224  0.463-  38 1.97  41 1.97  29 1.98  11 1.98
  67  0.444  0.222  0.794-  30 1.97  39 1.97  42 1.97  12 1.98
  68  0.442  0.553  0.127-  31 1.97  43 1.97  40 1.97  13 1.99
  69  0.445  0.556  0.460-  41 1.97  44 1.98  32 1.98  14 1.99
  70  0.444  0.555  0.793-  45 1.97  33 1.97  42 1.98  15 1.98
  71  0.442  0.889  0.127-  34 1.97  43 1.97  37 1.97  16 1.99
  72  0.445  0.889  0.460-  38 1.97  44 1.98  35 1.98  17 1.99
  73  0.444  0.889  0.793-  45 1.97  36 1.97  39 1.97  18 1.98
  74  0.777  0.222  0.127-  46 1.96  49 1.98  37 1.98  19 1.99
  75  0.778  0.223  0.462-  20 1.97  50 1.97  47 1.98  38 1.98
  76  0.778  0.222  0.794-  48 1.97  51 1.97  39 1.98  21 1.98
  77  0.778  0.556  0.127-  52 1.96  49 1.98  40 1.98  22 1.99
  78  0.778  0.555  0.462-  23 1.97  50 1.97  41 1.98  53 1.98
  79  0.778  0.555  0.794-  54 1.97  51 1.97  42 1.98  24 1.98
  80  0.764  0.882  0.120-  43 1.94  25 1.95  46 2.00  52 2.00
  81  0.778  0.889  0.461-  26 1.97  47 1.98  53 1.98  44 1.98
  82  0.778  0.889  0.794-  48 1.98  54 1.98  45 1.98  27 1.99
  83  0.244  0.122  0.298-  11 1.90   8 1.99   2 1.99  28 2.02
  84  0.223  0.111  0.627-   9 1.97   3 1.97  12 1.97  29 1.99
  85  0.223  0.111  0.960-   1 1.97   7 1.97  10 1.97  30 1.98
  86  0.222  0.444  0.294-  14 1.97   5 1.97   2 1.98  31 1.99
  87  0.222  0.444  0.627-  15 1.97   6 1.97   3 1.98  32 1.99
  88  0.222  0.444  0.960-   4 1.97   1 1.97  13 1.98  33 1.98
  89  0.223  0.779  0.294-  17 1.97   5 1.97   8 1.98  34 1.99
  90  0.222  0.778  0.627-  18 1.97   6 1.97   9 1.98  35 1.99
  91  0.222  0.778  0.960-   4 1.97   7 1.97  16 1.98  36 1.98
  92  0.559  0.112  0.294-  20 1.95  11 1.97  17 1.97  37 1.99
  93  0.556  0.111  0.628-  18 1.97  21 1.97  12 1.98  38 1.98
  94  0.555  0.111  0.960-  19 1.97  16 1.98  10 1.98  39 1.99
  95  0.559  0.448  0.294-  23 1.95  11 1.97  14 1.97  40 1.99
  96  0.556  0.445  0.628-  15 1.97  24 1.97  12 1.98  41 1.98
  97  0.555  0.445  0.960-  22 1.97  13 1.98  10 1.98  42 1.99
  98  0.555  0.778  0.293-  26 1.96  14 1.98  17 1.98  43 2.00
  99  0.556  0.778  0.627-  18 1.98  15 1.98  27 1.98  44 1.98
 100  0.551  0.776  0.958-  25 1.97  16 1.97  13 1.97  45 1.97
 101  0.885  0.117  0.298-  20 1.95  26 2.02   2 2.03  46 2.12
 102  0.889  0.111  0.627-  27 1.97   3 1.98  21 1.98  47 1.99
 103  0.889  0.112  0.959-  19 1.97  25 1.98   1 1.98  48 1.98
 104  0.891  0.446  0.294-  20 1.96  23 1.96   5 1.98  49 1.99
 105  0.889  0.445  0.628-   6 1.97  21 1.98  24 1.98  50 1.98
 106  0.889  0.444  0.961-  19 1.97  22 1.97   4 1.98  51 1.99
 107  0.886  0.770  0.298-  23 1.95  26 2.02   8 2.03  52 2.12
 108  0.889  0.778  0.627-  27 1.97  24 1.97   9 1.98  53 1.99
 109  0.889  0.778  0.959-  22 1.97  25 1.98   7 1.98  54 1.98
 
  LATTYP: Found a hexagonal cell.
 ALAT       =     9.7481175735
 C/A-ratio  =     1.6035510008
  
  Lattice vectors:
  
 A1 = (   9.7481175735,   0.0000000000,   0.0000000000)
 A2 = (  -4.8740587867,   8.4421174577,   0.0000000000)
 A3 = (   0.0000000000,   0.0000000000,  15.6316036913)


Analysis of symmetry for initial positions (statically):
=====================================================================
 Subroutine PRICEL returns:
 Original cell was already a primitive cell.
 

 Routine SETGRP: Setting up the symmetry group for a 
 hexagonal supercell.


 Subroutine GETGRP returns: Found  1 space group operations
 (whereof  1 operations were pure point group operations)
 out of a pool of 24 trial point group operations.


The static configuration has the point symmetry C_1 .


Analysis of symmetry for dynamics (positions and initial velocities):
=====================================================================
 Subroutine PRICEL returns:
 Original cell was already a primitive cell.
 

 Routine SETGRP: Setting up the symmetry group for a 
 hexagonal supercell.


 Subroutine GETGRP returns: Found  1 space group operations
 (whereof  1 operations were pure point group operations)
 out of a pool of 24 trial point group operations.


The dynamic configuration has the point symmetry C_1 .


Analysis of structural, dynamic, and magnetic symmetry:
=====================================================================
 Subroutine PRICEL returns:
 Original cell was already a primitive cell.
 

 Routine SETGRP: Setting up the symmetry group for a 
 hexagonal supercell.


 Subroutine GETGRP returns: Found  1 space group operations
 (whereof  1 operations were pure point group operations)
 out of a pool of 24 trial point group operations.


The overall configuration has the point symmetry C_1 .


 Subroutine INISYM returns: Found  1 space group operations
 (whereof  1 operations are pure point group operations),
 and found     1 'primitive' translations


----------------------------------------------------------------------------------------

                                     Primitive cell                                     

  volume of cell :    1286.3990

  direct lattice vectors                    reciprocal lattice vectors
     9.748117574  0.000000000  0.000000000     0.102583908  0.059226847 -0.000000000
    -4.874058787  8.442117458  0.000000000     0.000000000  0.118453694  0.000000000
     0.000000000  0.000000000 15.631603691     0.000000000 -0.000000000  0.063972963

  length of vectors
     9.748117574  9.748117573 15.631603691     0.118453694  0.118453694  0.063972963

  position of ions in fractional coordinates (direct lattice)
     0.111172705  0.221959354  0.999714002
     0.116597332  0.221396069  0.332950292
     0.111283695  0.222205090  0.666459186
     0.111250735  0.555747612  0.999926313
     0.112854927  0.556675451  0.333340990
     0.111742381  0.555921567  0.666947495
     0.111314074  0.889651840  0.999702937
     0.117162222  0.896004071  0.332872652
     0.111494020  0.889264844  0.666445657
     0.444231546  0.222255138  0.000079558
     0.457875333  0.229155067  0.336952808
     0.444490306  0.222327512  0.666962184
     0.443805137  0.555272567  0.999948549
     0.444601211  0.555333371  0.333106986
     0.443752946  0.555393079  0.666777839
     0.443865026  0.888690163  0.999941082
     0.444728923  0.889505247  0.333134880
     0.443859196  0.888393561  0.666801444
     0.777631863  0.222142782  0.999602894
     0.775991376  0.227783662  0.335933427
     0.778256421  0.222155446  0.667189309
     0.777736155  0.555782885  0.999614556
     0.776220114  0.549306976  0.335884749
     0.778403442  0.556217051  0.667236078
     0.774483275  0.887305625  0.995073536
     0.774663622  0.887385464  0.334786585
     0.778150022  0.889060973  0.666626204
     0.224276192  0.112748195  0.169379452
     0.224365029  0.112293609  0.499870371
     0.222263550  0.111235988  0.833044535
     0.219918348  0.443330436  0.166567742
     0.222222407  0.444316347  0.499773412
     0.222011337  0.444321212  0.833434642
     0.220192602  0.777512982  0.166564798
     0.222241677  0.778003695  0.499775231
     0.222039106  0.777833727  0.833470394
     0.554794704  0.110958244  0.166633571
     0.556222465  0.110113808  0.501857708
     0.555304978  0.111074150  0.833346227
     0.555053405  0.444789734  0.166607465
     0.556404076  0.446331117  0.501844821
     0.555430427  0.444390542  0.833349616
     0.550522110  0.775449737  0.165485231
     0.555197038  0.777617036  0.500386946
     0.554213051  0.777096799  0.831874394
     0.883224380  0.105597338  0.162730958
     0.889936941  0.111518781  0.499819098
     0.889390851  0.111754821  0.832688446
     0.888575291  0.444629433  0.166217885
     0.890307602  0.445222816  0.501596422
     0.889109948  0.444619208  0.833459650
     0.883828930  0.778595978  0.162863278
     0.890220505  0.778601552  0.499818273
     0.889472239  0.777820366  0.832736551
     0.983080054  0.992407859  0.236524754
     0.111070493  0.223109797  0.126347685
     0.111917695  0.221979197  0.460294889
     0.111328180  0.222416465  0.793337318
     0.110297251  0.555561433  0.127101532
     0.111234868  0.555641547  0.460430980
     0.111224124  0.555717205  0.793776289
     0.111392496  0.889080689  0.126339794
     0.112129680  0.890177355  0.460281435
     0.111433096  0.889098333  0.793356145
     0.444858125  0.222854393  0.127085031
     0.448698605  0.224453371  0.463453960
     0.444457694  0.222286501  0.793844871
     0.441612512  0.553112833  0.127058289
     0.444820158  0.555668355  0.460397171
     0.443766894  0.554691882  0.793416584
     0.441815000  0.889189890  0.127039188
     0.444863000  0.889222145  0.460399929
     0.443787746  0.889138058  0.793445466
     0.777296749  0.222235388  0.126974093
     0.778327962  0.223204385  0.461983650
     0.777699519  0.222439119  0.793963517
     0.777509999  0.555976401  0.127010991
     0.778401693  0.555324511  0.461941185
     0.777816977  0.555474836  0.793977567
     0.764452472  0.882423559  0.119557081
     0.777641217  0.888785724  0.460975331
     0.777722905  0.888920439  0.793649462
     0.244052556  0.122357998  0.298364047
     0.222622597  0.111399802  0.627074084
     0.222518701  0.111493516  0.959869255
     0.222471024  0.444148297  0.293852486
     0.221977146  0.444383965  0.626782219
     0.221558902  0.444112933  0.960238334
     0.222573358  0.778702960  0.293896003
     0.222105022  0.777668166  0.626804246
     0.221587316  0.777724720  0.960241049
     0.559046740  0.111510590  0.293811199
     0.555838238  0.110873112  0.628298064
     0.555383415  0.111072512  0.960425386
     0.559131094  0.447893700  0.293792927
     0.555996372  0.445104850  0.628275295
     0.555445407  0.444596974  0.960415893
     0.555385632  0.777747188  0.293202189
     0.555577774  0.777772369  0.627294193
     0.551257965  0.775685751  0.958142867
     0.885418875  0.116663128  0.298276828
     0.889048886  0.111154578  0.626968265
     0.889179554  0.111909349  0.959464561
     0.890670405  0.445665590  0.293599113
     0.889231908  0.444611415  0.628022215
     0.888823624  0.444492209  0.960537273
     0.886097233  0.769701259  0.298039488
     0.889181633  0.777974776  0.626997232
     0.889261157  0.777553635  0.959436077

  ion indices of the primitive-cell ions
   primitive index   ion index
                 1           1
                 2           2
                 3           3
                 4           4
                 5           5
                 6           6
                 7           7
                 8           8
                 9           9
                10          10
                11          11
                12          12
                13          13
                14          14
                15          15
                16          16
                17          17
                18          18
                19          19
                20          20
                21          21
                22          22
                23          23
                24          24
                25          25
                26          26
                27          27
                28          28
                29          29
                30          30
                31          31
                32          32
                33          33
                34          34
                35          35
                36          36
                37          37
                38          38
                39          39
                40          40
                41          41
                42          42
                43          43
                44          44
                45          45
                46          46
                47          47
                48          48
                49          49
                50          50
                51          51
                52          52
                53          53
                54          54
                55          55
                56          56
                57          57
                58          58
                59          59
                60          60
                61          61
                62          62
                63          63
                64          64
                65          65
                66          66
                67          67
                68          68
                69          69
                70          70
                71          71
                72          72
                73          73
                74          74
                75          75
                76          76
                77          77
                78          78
                79          79
                80          80
                81          81
                82          82
                83          83
                84          84
                85          85
                86          86
                87          87
                88          88
                89          89
                90          90
                91          91
                92          92
                93          93
                94          94
                95          95
                96          96
                97          97
                98          98
                99          99
               100         100
               101         101
               102         102
               103         103
               104         104
               105         105
               106         106
               107         107
               108         108
               109         109

----------------------------------------------------------------------------------------

 
 
 KPOINTS: Num irrep kpoints: 4                    

Automatic generation of k-mesh.
 Grid dimensions read from file:
 generate k-points for:    2    2    1

 Generating k-lattice:

  Cartesian coordinates                     Fractional coordinates (reciprocal lattice)
     0.051291954  0.029613424 -0.000000000     0.500000000  0.000000000  0.000000000
     0.000000000  0.059226847  0.000000000     0.000000000  0.500000000  0.000000000
     0.000000000 -0.000000000  0.063972963     0.000000000  0.000000000  1.000000000

  Length of vectors
     0.059226847  0.059226847  0.063972963

  Shift w.r.t. Gamma in fractional coordinates (k-lattice)
     0.000000000  0.000000000  0.000000000

 
 Subroutine IBZKPT returns following result:
 ===========================================
 
 Found      4 irreducible k-points:
 
 Following reciprocal coordinates:
            Coordinates               Weight
  0.000000  0.000000  0.000000      1.000000
  0.500000  0.000000  0.000000      1.000000
  0.000000  0.500000  0.000000      1.000000
  0.500000  0.500000  0.000000      1.000000
 
 Following cartesian coordinates:
            Coordinates               Weight
  0.000000  0.000000  0.000000      1.000000
  0.051292  0.029613  0.000000      1.000000
  0.000000  0.059227  0.000000      1.000000
  0.051292  0.088840  0.000000      1.000000
 
 
 Subroutine IBZKPT_HF returns following result:
 ==============================================
 
 Found      4 k-points in 1st BZ
 the following      4 k-points will be used (e.g. in the exchange kernel)
 Following reciprocal coordinates:   # in IRBZ
  0.000000  0.000000  0.000000    0.25000000   1 t-inv F
  0.500000  0.000000  0.000000    0.25000000   2 t-inv F
  0.000000  0.500000  0.000000    0.25000000   3 t-inv F
  0.500000  0.500000  0.000000    0.25000000   4 t-inv F


--------------------------------------------------------------------------------------------------------




 Dimension of arrays:
   k-points           NKPTS =      4   k-points in BZ     NKDIM =      4   number of bands    NBANDS=    641
   number of dos      NEDOS =    301   number of ions     NIONS =    109
   non local maximal  LDIM  =      6   non local SUM 2l+1 LMDIM =     18
   total plane-waves  NPLWV = 184320
   max r-space proj   IRMAX =   1629   max aug-charges    IRDMAX=   4470
   dimension x,y,z NGX =    48 NGY =   48 NGZ =   80
   dimension x,y,z NGXF=    96 NGYF=   96 NGZF=  160
   support grid    NGXF=    96 NGYF=   96 NGZF=  160
   ions per type =              54  55
   NGX,Y,Z   is equivalent  to a cutoff of   8.19,  8.19,  8.51 a.u.
   NGXF,Y,Z  is equivalent  to a cutoff of  16.37, 16.37, 17.02 a.u.

 SYSTEM =  unknown system                          
 POSCAR =  Zn54 O55                                

 Startparameter for this run:
   NWRITE =      2    write-flag & timer
   PREC   = normal    normal or accurate (medium, high low for compatibility)
   ISTART =      1    job   : 0-new  1-cont  2-samecut
   ICHARG =      0    charge: 1-file 2-atom 10-const
   ISPIN  =      2    spin polarized calculation?
   LNONCOLLINEAR =      F non collinear calculations
   LSORBIT =      F    spin-orbit coupling
   INIWAV =      1    electr: 0-lowe 1-rand  2-diag
   LASPH  =      T    aspherical Exc in radial PAW
 Electronic Relaxation 1
   ENCUT  =  400.0 eV  29.40 Ry    5.42 a.u.  15.90 15.90 25.49*2*pi/ulx,y,z
   ENINI  =  400.0     initial cutoff
   ENAUG  =  605.4 eV  augmentation charge cutoff
   NELM   =    100;   NELMIN=  2; NELMDL=  0     # of ELM steps 
   EDIFF  = 0.1E-04   stopping-criterion for ELM
   LREAL  =      T    real-space projection
   NLSPLINE    = F    spline interpolate recip. space projectors
   LCOMPAT=      F    compatible to vasp.4.4
   GGA_COMPAT  = T    GGA compatible to vasp.4.4-vasp.4.6
   LMAXPAW     = -100 max onsite density
   LMAXMIX     =    2 max onsite mixed and CHGCAR
   VOSKOWN=      0    Vosko Wilk Nusair interpolation
   ROPT   =   -0.00050  -0.00050
 Ionic relaxation
   EDIFFG = -.3E-01   stopping-criterion for IOM
   NSW    =    300    number of steps for IOM
   NBLOCK =      1;   KBLOCK =    300    inner block; outer block 
   IBRION =      2    ionic relax: 0-MD 1-quasi-New 2-CG
   NFREE  =      1    steps in history (QN), initial steepest desc. (CG)
   ISIF   =      2    stress and relaxation
   IWAVPR =     11    prediction:  0-non 1-charg 2-wave 3-comb
   ISYM   =      3    0-nonsym 1-usesym 2-fastsym
   LCORR  =      T    Harris-Foulkes like correction to forces

   POTIM  = 0.5000    time-step for ionic-motion
   TEIN   =    0.0    initial temperature
   TEBEG  =    0.0;   TEEND  =   0.0 temperature during run
   SMASS  =  -3.00    Nose mass-parameter (am)
   estimated Nose-frequenzy (Omega)   =  0.10E-29 period in steps = 0.13E+47 mass=  -0.217E-26a.u.
   SCALEE = 1.0000    scale energy and forces
   NPACO  =    256;   APACO  = 10.0  distance and # of slots for P.C.
   PSTRESS=    0.0 pullay stress

  Mass of Ions in am
   POMASS =  65.39 16.00
  Ionic Valenz
   ZVAL   =  12.00  6.00
  Atomic Wigner-Seitz radii
   RWIGS  =  -1.00 -1.00
  virtual crystal weights 
   VCA    =   1.00  1.00
   NELECT =     978.0000    total number of electrons
   NUPDOWN=      -1.0000    fix difference up-down

 DOS related values:
   EMIN   =  10.00;   EMAX   =-10.00  energy-range for DOS
   EFERMI =   0.00;   METHOD = LEGACY      
   ISMEAR =     0;   SIGMA  =   0.10  broadening in eV -4-tet -1-fermi 0-gaus
   EFERMI_NEDOS =   21; number of points for ismear=-14 and -15

 Electronic relaxation 2 (details)
   IALGO  =     58    algorithm
   LDIAG  =      T    sub-space diagonalisation (order eigenvalues)
   LSUBROT=      F    optimize rotation matrix (better conditioning)
   LROBUST=      F    robust break criterion during scf (extrapolated energy error)
   ISEARCH=      0    line search for conjugate gradient (0, 1=use gradient)
   TURBO    =      0    0=normal 1=particle mesh
   IRESTART =      0    0=no restart 2=restart with 2 vectors
   NREBOOT  =      0    no. of reboots
   NMIN     =      0    reboot dimension
   EREF     =   0.00    reference energy to select bands
   IMIX   =      4    mixing-type and parameters
     AMIX     =   0.40;   BMIX     =  1.00
     AMIX_MAG =   1.60;   BMIX_MAG =  1.00
     AMIN     =   0.10
     WC   =   100.;   INIMIX=   1;  MIXPRE=   1;  MAXMIX= -45

 Intra band minimization:
   WEIMIN = 0.0010     energy-eigenvalue tresh-hold
   EBREAK =  0.39E-08  absolut break condition
   DEPER  =   0.30     relativ break condition  

   TIME   =   0.40     timestep for ELM

  volume/ion in A,a.u.               =      11.80        79.64
  Fermi-wavevector in a.u.,A,eV,Ry     =   1.494156  2.823545 30.375028  2.232502
  Thomas-Fermi vector in A             =   2.606465
 
 Write flags
   LWAVE        =      T    write WAVECAR
   LDOWNSAMPLE  =      F    k-point downsampling of WAVECAR
   LCHARG       =      F    write CHGCAR
   LVTOT        =      F    write LOCPOT, total local potential
   LVHAR        =      F    write LOCPOT, Hartree potential only
   WRT_POTENTIAL= false  ! write potential to hdf5 file
   LELF         =      F    write electronic localiz. function (ELF)
   LORBIT       =     10    0 simple, 1 ext, 2 COOP (PROOUT), +10 PAW based schemes


 Python interface
   PLUGINS active      =      F    recompile with -DPLUGINS to activate
 
 Dipole corrections
   LMONO      =      F    monopole corrections only (constant potential shift)
   LDIPOL     =      F    correct potential (dipole corrections)
   IDIPOL     =      0    1-x, 2-y, 3-z, 4-all directions 
   EPSILON    =  1.0000000 bulk dielectric constant
   LVACPOTAV  =      F  vacuum potentials using an averaging scheme for the charge density
   VACPOTFLAT =  0.1000000 required flatness to determine vacuum potential
 
Coulomb truncation method
  LTRUNCATE          =      F  Coulomb kernel truncation to be used

 
 Exchange correlation treatment:
   GGA     = PE    functional components
   XC_C    = 1    coefficients multiplying the functional components
   LIBXC   =     F    Libxc                    
   VOSKOWN =     0    Vosko Wilk Nusair interpolation
   EXXOEP  =     0    0=HF, 1=EXX-LHF (local Hartree Fock) 2=EXX OEP
   LHFCALC =     T    Hartree Fock is set to
   LSYMGRAD=     F    symmetrize gradient (conserves proper symmetry)
   PRECFOCK=fast      Normal, Fast or Accurate (Low or Medium for compatibility)
   LRHFCALC=     F    long range Hartree Fock
   LRSCOR  =     F    long range correlation only (use DFT for short range part)
   LTHOMAS =     F    Thomas Fermi screening in HF
   LMODELHF=     F    short range full HF, long range fraction AEXX
   FOCKCORR=     1    mode to apply convergence corrections
   LFOCKACE=     T    use Adeptively-Compressed-Exchange operator
   ENCUT4O =  -1.0   cutoff for four orbital integrals eV
   LMAXFOCK=     4    L truncation for augmentation on plane wave grid
   LMAXFOCKAE=  -1    L truncation for all-electron charge restoration on plane wave grid
   NMAXFOCKAE=   1    number of basis functions for all-electron charge restoration
   LFOCKAEDFT=     F  apply the AE augmentation even for DFT
   NKREDX  =     1    reduce k-point grid by
   NKREDY  =     1    reduce k-point grid by
   NKREDZ  =     1    reduce k-point grid by
   SHIFTRED=     F    shift reduced grid of Gamma
   HFKIDENT=     F    idential grid for each k-point
   ODDONLY =     F    use only odd q-grid points
   EVENONLY=     F    use only even q-grid points
   HFALPHA =   -1.0000 decay constant for conv. correction
   MCALPHA =    0.0000 extent of test-charge in conv. correction in multipole expansion
   AEXX    =    0.3600 exact exchange contribution
   HFSCREEN=    0.2000 screening length (either q_TF or 0.3 A-1)
   HFSCREENC=   0.2000 screening length for correlation (either q_TF or 0.3 A-1)
   HFRCUT  =    0.0000 spherical cutoff for potential kernel
   ALDAX   =    0.6400 LDA exchange part
   AGGAX   =    0.6400 GGA exchange part
   AMGGAX  =    0.6400 meta-GGA exchange part
   ALDAC   =    1.0000 LDA correlation
   AGGAC   =    1.0000 GGA correlation
   AMGGAC  =    1.0000 meta-GGA correlation
   ENCUTFOCK=  -1.0 apply spherical cutoff to Coloumb kernel
   NBANDSGWLOW=     1    first orbital included in HF term
   NBLOCK_FOCK=    64    blocking factor in FOCK_ACC

 Parameters of functionals:
   PE:
     No parameter
 
 Van der Waals corrections
   IVDW    =     0    specifies the selected vdW correction

 Linear response parameters
   LEPSILON=     F    determine dielectric tensor
   LRPA    =     F    only Hartree local field effects (RPA)
   LNABLA  =     F    use nabla operator in PAW spheres
   LVEL    =     F    velocity operator in full k-point grid
   CSHIFT  =0.1000    complex shift for real part using Kramers Kronig
   OMEGAMAX=  -1.0    maximum frequency
   DEG_THRESHOLD= 0.2000000E-02 threshold for treating states as degnerate
   RTIME   =   -0.100 relaxation time in fs
  (WPLASMAI=    0.000 imaginary part of plasma frequency in eV, 0.658/RTIME)
   DFIELD  = 0.0000000 0.0000000 0.0000000 field for delta impulse in time
 
  Optional k-point grid parameters
   LKPOINTS_OPT  =     F    use optional k-point grid
   KPOINTS_OPT_MODE=     1    mode for optional k-point grid
 
 Orbital magnetization related:
   ORBITALMAG=     F  switch on orbital magnetization
   LCHIMAG   =     F  perturbation theory with respect to B field
   DQ        =  0.001000  dq finite difference perturbation B field
   LLRAUG    =     F  two centre corrections for induced B field
   LBONE     =     F  B-component reconstruction in AE one-centre
   LVGVCALC  =     T  calculate vGv susceptibility
   LVGVAPPL  =     F  apply vGv susceptibility instead of pGv for G=0

 Random number generation:
   RANDOM_GENERATOR = DEFAULT
   PCG_SEED         = not used


--------------------------------------------------------------------------------------------------------


 conjugate gradient relaxation of ions
 charge density and potential will be updated during run
 spin polarized calculation
 Conjugate gradient for all bands (Freysoldt, et al. PRB 79, 241103 (2009))
 preconditioned conjugated gradient                                        
 perform sub-space diagonalisation
    before iterative eigenvector-optimisation
 modified Broyden-mixing scheme, WC =      100.0
 initial mixing is a Kerker type mixing with AMIX =  0.4000 and BMIX =      1.0000
 Hartree-type preconditioning will be used
 using additional bands           152
 real space projection scheme for non local part
 use partial core corrections
 no Harris-corrections to forces 
 use gradient corrections 
 use of overlap-Matrix (Vanderbilt PP)
 Gauss-broadening in eV      SIGMA  =   0.10


--------------------------------------------------------------------------------------------------------


  energy-cutoff  :      400.00
  volume of cell :     1286.40
      direct lattice vectors                 reciprocal lattice vectors
     9.748117574  0.000000000  0.000000000     0.102583908  0.059226847 -0.000000000
    -4.874058787  8.442117458  0.000000000     0.000000000  0.118453694  0.000000000
     0.000000000  0.000000000 15.631603691     0.000000000 -0.000000000  0.063972963

  length of vectors
     9.748117574  9.748117573 15.631603691     0.118453694  0.118453694  0.063972963


 
 old parameters found on file WAVECAR:
  energy-cutoff  :      400.00
  volume of cell :     1286.40
      direct lattice vectors                 reciprocal lattice vectors
     9.748117574  0.000000000  0.000000000     0.102583908  0.059226847 -0.000000000
    -4.874058787  8.442117458  0.000000000     0.000000000  0.118453694  0.000000000
     0.000000000  0.000000000 15.631603691     0.000000000 -0.000000000  0.063972963

  length of vectors

 
 k-points in units of 2pi/SCALE and weight: Num irrep kpoints: 4                    
   0.00000000  0.00000000  0.00000000       0.250
   0.05129195  0.02961342  0.00000000       0.250
   0.00000000  0.05922685  0.00000000       0.250
   0.05129195  0.08884027  0.00000000       0.250
 
 k-points in reciprocal lattice and weights: Num irrep kpoints: 4                    
   0.00000000  0.00000000  0.00000000       0.250
   0.50000000  0.00000000  0.00000000       0.250
   0.00000000  0.50000000  0.00000000       0.250
   0.50000000  0.50000000  0.00000000       0.250
 
 position of ions in fractional coordinates (direct lattice) 
   0.11117271  0.22195935  0.99971400
   0.11659733  0.22139607  0.33295029
   0.11128369  0.22220509  0.66645919
   0.11125073  0.55574761  0.99992631
   0.11285493  0.55667545  0.33334099
   0.11174238  0.55592157  0.66694749
   0.11131407  0.88965184  0.99970294
   0.11716222  0.89600407  0.33287265
   0.11149402  0.88926484  0.66644566
   0.44423155  0.22225514  0.00007956
   0.45787533  0.22915507  0.33695281
   0.44449031  0.22232751  0.66696218
   0.44380514  0.55527257  0.99994855
   0.44460121  0.55533337  0.33310699
   0.44375295  0.55539308  0.66677784
   0.44386503  0.88869016  0.99994108
   0.44472892  0.88950525  0.33313488
   0.44385920  0.88839356  0.66680144
   0.77763186  0.22214278  0.99960289
   0.77599138  0.22778366  0.33593343
   0.77825642  0.22215545  0.66718931
   0.77773615  0.55578288  0.99961456
   0.77622011  0.54930698  0.33588475
   0.77840344  0.55621705  0.66723608
   0.77448328  0.88730562  0.99507354
   0.77466362  0.88738546  0.33478658
   0.77815002  0.88906097  0.66662620
   0.22427619  0.11274819  0.16937945
   0.22436503  0.11229361  0.49987037
   0.22226355  0.11123599  0.83304453
   0.21991835  0.44333044  0.16656774
   0.22222241  0.44431635  0.49977341
   0.22201134  0.44432121  0.83343464
   0.22019260  0.77751298  0.16656480
   0.22224168  0.77800369  0.49977523
   0.22203911  0.77783373  0.83347039
   0.55479470  0.11095824  0.16663357
   0.55622246  0.11011381  0.50185771
   0.55530498  0.11107415  0.83334623
   0.55505341  0.44478973  0.16660747
   0.55640408  0.44633112  0.50184482
   0.55543043  0.44439054  0.83334962
   0.55052211  0.77544974  0.16548523
   0.55519704  0.77761704  0.50038695
   0.55421305  0.77709680  0.83187439
   0.88322438  0.10559734  0.16273096
   0.88993694  0.11151878  0.49981910
   0.88939085  0.11175482  0.83268845
   0.88857529  0.44462943  0.16621789
   0.89030760  0.44522282  0.50159642
   0.88910995  0.44461921  0.83345965
   0.88382893  0.77859598  0.16286328
   0.89022050  0.77860155  0.49981827
   0.88947224  0.77782037  0.83273655
   0.98308005  0.99240786  0.23652475
   0.11107049  0.22310980  0.12634768
   0.11191770  0.22197920  0.46029489
   0.11132818  0.22241647  0.79333732
   0.11029725  0.55556143  0.12710153
   0.11123487  0.55564155  0.46043098
   0.11122412  0.55571721  0.79377629
   0.11139250  0.88908069  0.12633979
   0.11212968  0.89017736  0.46028144
   0.11143310  0.88909833  0.79335615
   0.44485812  0.22285439  0.12708503
   0.44869861  0.22445337  0.46345396
   0.44445769  0.22228650  0.79384487
   0.44161251  0.55311283  0.12705829
   0.44482016  0.55566836  0.46039717
   0.44376689  0.55469188  0.79341658
   0.44181500  0.88918989  0.12703919
   0.44486300  0.88922214  0.46039993
   0.44378775  0.88913806  0.79344547
   0.77729675  0.22223539  0.12697409
   0.77832796  0.22320439  0.46198365
   0.77769952  0.22243912  0.79396352
   0.77751000  0.55597640  0.12701099
   0.77840169  0.55532451  0.46194118
   0.77781698  0.55547484  0.79397757
   0.76445247  0.88242356  0.11955708
   0.77764122  0.88878572  0.46097533
   0.77772291  0.88892044  0.79364946
   0.24405256  0.12235800  0.29836405
   0.22262260  0.11139980  0.62707408
   0.22251870  0.11149352  0.95986926
   0.22247102  0.44414830  0.29385249
   0.22197715  0.44438397  0.62678222
   0.22155890  0.44411293  0.96023833
   0.22257336  0.77870296  0.29389600
   0.22210502  0.77766817  0.62680425
   0.22158732  0.77772472  0.96024105
   0.55904674  0.11151059  0.29381120
   0.55583824  0.11087311  0.62829806
   0.55538342  0.11107251  0.96042539
   0.55913109  0.44789370  0.29379293
   0.55599637  0.44510485  0.62827529
   0.55544541  0.44459697  0.96041589
   0.55538563  0.77774719  0.29320219
   0.55557777  0.77777237  0.62729419
   0.55125797  0.77568575  0.95814287
   0.88541887  0.11666313  0.29827683
   0.88904889  0.11115458  0.62696826
   0.88917955  0.11190935  0.95946456
   0.89067041  0.44566559  0.29359911
   0.88923191  0.44461142  0.62802221
   0.88882362  0.44449221  0.96053727
   0.88609723  0.76970126  0.29803949
   0.88918163  0.77797478  0.62699723
   0.88926116  0.77755364  0.95943608
 
 position of ions in cartesian coordinates  (Angst):
   0.00188166  1.87380694 15.62713308
   0.05750704  1.86905162  5.20454701
   0.00176587  1.87588147 10.41782587
  -1.62426129  4.69168661 15.63045185
  -1.61314578  4.69951954  5.21065425
  -1.62031653  4.69315516 10.42545892
  -3.25111269  7.51054533 15.62696011
  -3.22506540  7.56417161  5.20333338
  -3.24747231  7.50727826 10.41761440
   3.24713673  1.87630398  0.00124362
   3.34650731  1.93455399  5.26711275
   3.24930640  1.87691497 10.42568854
   1.61983352  4.68767623 15.63079943
   1.62729738  4.68818954  5.20699640
   1.61873737  4.68869361 10.42280693
  -0.00467963  7.50242674 15.63068272
  -0.00023104  7.50930778  5.20743242
  -0.00329082  7.49992279 10.42317592
   6.49770985  1.87535546 15.62539629
   6.45422421  1.92297643  5.25117819
   6.50373640  1.87546237 10.42923887
   4.87254503  4.69198439 15.62557858
   4.88933044  4.63731401  5.25041729
   4.87693366  4.69564968 10.42996993
   3.22497425  7.49073831 15.55459515
   3.22634315  7.49141232  5.23325121
   3.25216246  7.50555716 10.42043664
   1.63672936  0.95183350  2.64767246
   1.63981103  0.94799583  7.81377553
   1.62448047  0.93906727 13.02182202
  -0.01702869  3.74264761  2.60372094
   0.00062616  3.75097079  7.81225991
  -0.00145509  3.75101186 13.02792002
  -1.64318060  6.56385592  2.60367491
  -1.62559775  6.56799857  7.81228834
  -1.62674400  6.56656369 13.02847889
   4.86738700  0.93672253  2.60474994
   4.88542081  0.92959370  7.84484080
   4.87179628  0.93770102 13.02653796
   3.24279454  3.75496718  2.60434186
   3.24844825  3.76797971  7.84463935
   3.24841548  3.75159716 13.02659094
   1.58696664  6.54643777  2.58679954
   1.62197486  6.56473435  7.82185044
   1.61491850  6.56034245 13.00353085
   8.09508747  0.89146513  2.54374584
   8.13166084  0.94145465  7.81297406
   8.12518702  0.94344732 13.01625578
   6.49478642  3.75361390  2.59825211
   6.50878100  3.75862331  7.84075648
   6.50004815  3.75352758 13.02831094
   4.82074576  6.57299869  2.54581422
   4.88302441  6.57304576  7.81296115
   4.87953777  6.56645089 13.01700775
   4.74612570  8.37802371  3.69726121
  -0.00472204  1.88351911  1.97501694
   0.00904720  1.87397445  7.19514728
   0.00116927  1.87766592 12.40113454
  -1.63264851  4.69011487  1.98680077
  -1.62389899  4.69079120  7.19727460
  -1.62437249  4.69142992 12.40799637
  -3.24756440  7.50572360  1.97489359
  -3.24572345  7.51498179  7.19493698
  -3.24725462  7.50587256 12.40142885
   3.25032389  1.88136296  1.98654283
   3.27996784  1.89486172  7.24452863
   3.24918838  1.87656875 12.40906841
   1.60898623  4.66944350  1.98612482
   1.62779897  4.69101752  7.19674612
   1.62229101  4.68277402 12.40237360
  -0.02709923  7.50664549  1.98582624
   0.00245582  7.50691779  7.19678922
  -0.00761604  7.50620792 12.40282507
   6.49399176  1.87613725  1.98480869
   6.49932119  1.88431764  7.22154532
   6.49692501  1.87785717 12.41092304
   4.86939722  4.69361808  1.98538547
   4.88126691  4.68811475  7.22088153
   4.87483434  4.68938381 12.41114266
   3.15098827  7.44952333  1.86886891
   3.24854414  7.50323348  7.20578369
   3.24868384  7.50437076 12.40601386
   1.78267293  1.03296059  4.66390854
   1.62718206  0.94045022  9.80217356
   1.62571251  0.94124135 15.00429579
   0.00386879  3.74955209  4.59338561
  -0.00209425  3.75154163  9.79761125
  -0.00485032  3.74925354 15.01006508
  -1.62577274  6.57390185  4.59406584
  -1.62529449  6.56516600  9.79795556
  -1.63061679  6.56564343 15.01010753
   4.90614418  0.94138550  4.59274023
   4.87797443  0.93600383  9.82130633
   4.87256888  0.93768719 15.01298901
   3.26741542  3.78117123  4.59245460
   3.25045080  3.75762743  9.82095041
   3.24755534  3.75333988 15.01284062
   1.62317892  6.56583311  4.58322042
   1.62492921  6.56604570  9.80561422
   1.59298951  6.54843022 14.97730958
   8.06254435  0.98488383  4.66254517
   8.12477913  0.93838000  9.80051944
   8.12237409  0.94475187 14.99796977
   6.51015954  3.76236126  4.58942497
   6.50127502  3.75346179  9.81699437
   6.49787604  3.75245544 15.01473799
   4.88621082  6.49790844  4.65883517
   4.87595231  6.56775444  9.80097225
   4.87878018  6.56419912 14.99752453
 


--------------------------------------------------------------------------------------------------------


 k-point     1 :   0.0000 0.0000 0.0000  plane waves:   23295
 k-point     2 :   0.5000 0.0000 0.0000  plane waves:   23392
 k-point     3 :   0.0000 0.5000 0.0000  plane waves:   23392
 k-point     4 :   0.5000 0.5000 0.0000  plane waves:   23392

 maximum and minimum number of plane-waves per node :     23392    23295

 maximum number of plane-waves:     23392
 maximum index in each direction: 
   IXMAX=   15   IYMAX=   15   IZMAX=   25
   IXMIN=  -16   IYMIN=  -16   IZMIN=  -25


 serial   3D FFT for wavefunctions
 parallel 3D FFT for charge:
    minimum data exchange during FFTs selected (reduces bandwidth)


 FFT grid for exact exchange (Hartree Fock) 
  NGX = 36; NGY = 36; NGZ = 54

 
 Radii for the augmentation spheres in the non-local exchange
 for species   1 augmentation radius   1.285 (default was   0.952)
       energy cutoff for augmentation   1600.0
 for species   2 augmentation radius   0.974 (default was   0.722)
       energy cutoff for augmentation   1600.0
 Maximum index for augmentation-charges in exchange           501
  SETUP_FOCK is finished

 total amount of memory used by VASP MPI-rank0  6353446. kBytes
=======================================================================

   base                                    :      30000. kBytes
   nonlr-proj                              :      29814. kBytes
   fftplans                                :      50796. kBytes
   grid                                    :     133963. kBytes
   one-center                              :       3390. kBytes
   HF                                      :        129. kBytes
   wavefun                                 :    6105354. kBytes
 
     INWAV:  cpu time      0.8865: real time      0.9489
 Broyden mixing: mesh for mixing (old mesh)
   NGX = 31   NGY = 31   NGZ = 51
  (NGX  = 96   NGY  = 96   NGZ  =160)
  gives a total of  49011 points

 charge density for first step will be calculated from the start-wavefunctions


--------------------------------------------------------------------------------------------------------


 Maximum index for non-local projection operator          1560
 Maximum index for augmentation-charges          4172 (set IRDMAX)


--------------------------------------------------------------------------------------------------------


 initial charge from wavefunction
 First call to EWALD:  gamma=   0.163
 Maximum number of real-space cells   3x   3x   2
 Maximum number of reciprocal cells   3x   3x   4

    FEWALD:  cpu time      0.3599: real time      0.3614


--------------------------------------- Ionic step        1  -------------------------------------------




--------------------------------------- Iteration      1(   1)  ---------------------------------------


    POTLOK:  cpu time      2.6169: real time      2.7859
    SETDIJ:  cpu time     16.6056: real time     16.6772
    TRIAL :  cpu time    110.5048: real time    112.9445
    CORREC:  cpu time    127.7139: real time    128.3936
    CHARGE:  cpu time      0.2683: real time      0.2700
    --------------------------------------------
      LOOP:  cpu time    258.6878: real time    262.0692

 eigenvalue-minimisations  :     0
 total energy-change (2. order) :-0.6822349E+03  (-0.1584527E-05)
 number of electron     978.0000873 magnetization       2.0000009
 augmentation part      477.9768155 magnetization       0.5950152

 Free energy of the ion-electron system (eV)
  ---------------------------------------------------
  alpha Z        PSCENC =      6383.33281807
  Ewald energy   TEWEN  =    -80463.73761123
  -Hartree energ DENC   =    -35913.83512467
  -exchange      EXHF   =      4141.27408719
  -V(xc)+E(xc)   XCENC  =      3081.13548974
  PAW double counting   =    118540.12641753  -127343.50565140
  entropy T*S    EENTRO =        -0.00000000
  eigenvalues    EBANDS =     -6944.66696478
  atomic energy  EATOM  =    117837.64159433
  ---------------------------------------------------
  free energy    TOTEN  =      -682.23494522 eV

  energy without entropy =     -682.23494522  energy(sigma->0) =     -682.23494522
  exchange ACFDT corr.  =        -0.00000000  see jH, gK, PRB 81, 115126


--------------------------------------------------------------------------------------------------------




--------------------------------------- Iteration      1(   2)  ---------------------------------------


    POTLOK:  cpu time      2.5413: real time      2.5554
    SETDIJ:  cpu time     16.6504: real time     16.7617
    TRIAL :  cpu time    110.3181: real time    111.6031
    CORREC:  cpu time    383.6870: real time    386.4174
    EDDIAG:  cpu time    107.9051: real time    108.5106
    CHARGE:  cpu time      0.2693: real time      0.2750
    --------------------------------------------
      LOOP:  cpu time    621.3724: real time    626.1246

 eigenvalue-minimisations  :     0
 total energy-change (2. order) :-0.1591070E-05  (-0.2480521E-05)
 number of electron     978.0000873 magnetization       2.0000009
 augmentation part      477.9771610 magnetization       0.5950178

 Free energy of the ion-electron system (eV)
  ---------------------------------------------------
  alpha Z        PSCENC =      6383.33281807
  Ewald energy   TEWEN  =    -80463.73761123
  -Hartree energ DENC   =    -35913.78961999
  -exchange      EXHF   =      4141.27381466
  -V(xc)+E(xc)   XCENC  =      3081.13413538
  PAW double counting   =    118540.08325518  -127343.43370092
  entropy T*S    EENTRO =        -0.00000000
  eigenvalues    EBANDS =     -6944.73831024
  atomic energy  EATOM  =    117837.64159433
  ---------------------------------------------------
  free energy    TOTEN  =      -682.23494681 eV

  energy without entropy =     -682.23494681  energy(sigma->0) =     -682.23494681
  exchange ACFDT corr.  =        -0.00000000  see jH, gK, PRB 81, 115126


--------------------------------------------------------------------------------------------------------


  average scaling for gradient   0.9832


 average (electrostatic) potential at core
  the test charge radii are     0.9521  0.7215
  (the norm of the test charge is              1.0000)
       1 -24.8408       2 -24.9695       3 -24.8896       4 -24.8668       5 -24.9194
       6 -24.8967       7 -24.8412       8 -24.9688       9 -24.8904      10 -24.8612
      11 -24.7357      12 -24.8844      13 -24.8526      14 -24.9236      15 -24.8900
      16 -24.8528      17 -24.9252      18 -24.8890      19 -24.8809      20 -25.0117
      21 -24.8916      22 -24.8828      23 -25.0095      24 -24.8904      25 -24.7440
      26 -25.1383      27 -24.9008      28 -24.9405      29 -24.8951      30 -24.8656
      31 -24.8388      32 -24.9182      33 -24.8691      34 -24.8413      35 -24.9202
      36 -24.8664      37 -24.8892      38 -24.9077      39 -24.8713      40 -24.8879
      41 -24.9061      42 -24.8734      43 -24.7891      44 -24.9340      45 -24.8483
      46 -24.9902      47 -24.9226      48 -24.8697      49 -24.9174      50 -24.9319
      51 -24.8807      52 -24.9812      53 -24.9239      54 -24.8688      55 -66.2103
      56 -64.0696      57 -64.1486      58 -64.1327      59 -64.1366      60 -64.1804
      61 -64.1365      62 -64.0651      63 -64.1499      64 -64.1305      65 -64.1182
      66 -64.1434      67 -64.1213      68 -64.1037      69 -64.1803      70 -64.1277
      71 -64.1039      72 -64.1819      73 -64.1263      74 -64.1826      75 -64.2197
      76 -64.1328      77 -64.1793      78 -64.2209      79 -64.1345      80 -63.8395
      81 -64.2115      82 -64.1365      83 -63.8716      84 -64.1395      85 -64.1084
      86 -64.1492      87 -64.1571      88 -64.1007      89 -64.1518      90 -64.1576
      91 -64.1001      92 -64.1849      93 -64.1505      94 -64.1159      95 -64.1840
      96 -64.1498      97 -64.1167      98 -64.1935      99 -64.1617     100 -64.0753
     101 -64.4894     102 -64.1518     103 -64.1045     104 -64.2604     105 -64.1611
     106 -64.1227     107 -64.4809     108 -64.1509     109 -64.1054
 
 
 
 E-fermi :  -0.1010     XC(G=0):  -8.0542     alpha+bet : -7.9539

 val. band max:       -0.5954363408   @ k =   0.0000   0.0000   0.0000
 cond. band min:       2.3646331828   @ k =   0.5000   0.0000   0.0000
 fundamental gap:      2.9600695235
 Fermi energy:        -0.1009653052

 spin component 1

 k-point     1 :       0.0000    0.0000    0.0000
  band No.  band energies     occupation 
      1     -23.0152      1.00000
      2     -20.7025      1.00000
      3     -20.5473      1.00000
      4     -20.5343      1.00000
      5     -20.5036      1.00000
      6     -20.2841      1.00000
      7     -20.2428      1.00000
      8     -20.2340      1.00000
      9     -20.2337      1.00000
     10     -20.1995      1.00000
     11     -20.1828      1.00000
     12     -20.1817      1.00000
     13     -20.1580      1.00000
     14     -20.1404      1.00000
     15     -20.1331      1.00000
     16     -20.1253      1.00000
     17     -20.1224      1.00000
     18     -20.1170      1.00000
     19     -20.1152      1.00000
     20     -20.1054      1.00000
     21     -20.0952      1.00000
     22     -20.0940      1.00000
     23     -20.0759      1.00000
     24     -20.0163      1.00000
     25     -19.9868      1.00000
     26     -19.9711      1.00000
     27     -19.9627      1.00000
     28     -19.9277      1.00000
     29     -19.9267      1.00000
     30     -19.9131      1.00000
     31     -19.9102      1.00000
     32     -19.9035      1.00000
     33     -19.8933      1.00000
     34     -19.8871      1.00000
     35     -19.8841      1.00000
     36     -19.8742      1.00000
     37     -19.8717      1.00000
     38     -19.8694      1.00000
     39     -19.8559      1.00000
     40     -19.8482      1.00000
     41     -19.8387      1.00000
     42     -19.8371      1.00000
     43     -19.8212      1.00000
     44     -19.8157      1.00000
     45     -19.8131      1.00000
     46     -19.7998      1.00000
     47     -19.7958      1.00000
     48     -19.7933      1.00000
     49     -19.7916      1.00000
     50     -19.7913      1.00000
     51     -19.7887      1.00000
     52     -19.7765      1.00000
     53     -19.7746      1.00000
     54     -19.7021      1.00000
     55     -19.6466      1.00000
     56      -8.6348      1.00000
     57      -8.5095      1.00000
     58      -8.0393      1.00000
     59      -7.8245      1.00000
     60      -7.8118      1.00000
     61      -7.8091      1.00000
     62      -7.8028      1.00000
     63      -7.7935      1.00000
     64      -7.7911      1.00000
     65      -7.7872      1.00000
     66      -7.7787      1.00000
     67      -7.7739      1.00000
     68      -7.7703      1.00000
     69      -7.7681      1.00000
     70      -7.7473      1.00000
     71      -7.7439      1.00000
     72      -7.7418      1.00000
     73      -7.7326      1.00000
     74      -7.7316      1.00000
     75      -7.7196      1.00000
     76      -7.7163      1.00000
     77      -7.7052      1.00000
     78      -7.7044      1.00000
     79      -7.7000      1.00000
     80      -7.6760      1.00000
     81      -7.6727      1.00000
     82      -7.6646      1.00000
     83      -7.6631      1.00000
     84      -7.6595      1.00000
     85      -7.6493      1.00000
     86      -7.6427      1.00000
     87      -7.6382      1.00000
     88      -7.6372      1.00000
     89      -7.6334      1.00000
     90      -7.6277      1.00000
     91      -7.6271      1.00000
     92      -7.6251      1.00000
     93      -7.6226      1.00000
     94      -7.6157      1.00000
     95      -7.6139      1.00000
     96      -7.6126      1.00000
     97      -7.5938      1.00000
     98      -7.5928      1.00000
     99      -7.5878      1.00000
    100      -7.5686      1.00000
    101      -7.5584      1.00000
    102      -7.5551      1.00000
    103      -7.5419      1.00000
    104      -7.5219      1.00000
    105      -7.5205      1.00000
    106      -7.5072      1.00000
    107      -7.5033      1.00000
    108      -7.4991      1.00000
    109      -7.4941      1.00000
    110      -7.4850      1.00000
    111      -7.4803      1.00000
    112      -7.4736      1.00000
    113      -7.4726      1.00000
    114      -7.4702      1.00000
    115      -7.4667      1.00000
    116      -7.4584      1.00000
    117      -7.4569      1.00000
    118      -7.4552      1.00000
    119      -7.4533      1.00000
    120      -7.4477      1.00000
    121      -7.4436      1.00000
    122      -7.4364      1.00000
    123      -7.4264      1.00000
    124      -7.4236      1.00000
    125      -7.4177      1.00000
    126      -7.4109      1.00000
    127      -7.4068      1.00000
    128      -7.4025      1.00000
    129      -7.3978      1.00000
    130      -7.3944      1.00000
    131      -7.3906      1.00000
    132      -7.3899      1.00000
    133      -7.3875      1.00000
    134      -7.3842      1.00000
    135      -7.3824      1.00000
    136      -7.3788      1.00000
    137      -7.3753      1.00000
    138      -7.3702      1.00000
    139      -7.3584      1.00000
    140      -7.3561      1.00000
    141      -7.3343      1.00000
    142      -7.3091      1.00000
    143      -7.3066      1.00000
    144      -7.2779      1.00000
    145      -7.2717      1.00000
    146      -7.2710      1.00000
    147      -7.2696      1.00000
    148      -7.2577      1.00000
    149      -7.2544      1.00000
    150      -7.2493      1.00000
    151      -7.2448      1.00000
    152      -7.2415      1.00000
    153      -7.2401      1.00000
    154      -7.2301      1.00000
    155      -7.2276      1.00000
    156      -7.2270      1.00000
    157      -7.2250      1.00000
    158      -7.2215      1.00000
    159      -7.2143      1.00000
    160      -7.2127      1.00000
    161      -7.2036      1.00000
    162      -7.2027      1.00000
    163      -7.1985      1.00000
    164      -7.1979      1.00000
    165      -7.1916      1.00000
    166      -7.1912      1.00000
    167      -7.1884      1.00000
    168      -7.1816      1.00000
    169      -7.1797      1.00000
    170      -7.1795      1.00000
    171      -7.1768      1.00000
    172      -7.1714      1.00000
    173      -7.1689      1.00000
    174      -7.1662      1.00000
    175      -7.1657      1.00000
    176      -7.1638      1.00000
    177      -7.1599      1.00000
    178      -7.1578      1.00000
    179      -7.1529      1.00000
    180      -7.1519      1.00000
    181      -7.1463      1.00000
    182      -7.1434      1.00000
    183      -7.1421      1.00000
    184      -7.1416      1.00000
    185      -7.1404      1.00000
    186      -7.1324      1.00000
    187      -7.1160      1.00000
    188      -7.1128      1.00000
    189      -7.1106      1.00000
    190      -7.0908      1.00000
    191      -7.0878      1.00000
    192      -7.0760      1.00000
    193      -7.0741      1.00000
    194      -7.0695      1.00000
    195      -7.0587      1.00000
    196      -7.0402      1.00000
    197      -6.9795      1.00000
    198      -6.9578      1.00000
    199      -6.9210      1.00000
    200      -6.8877      1.00000
    201      -6.8819      1.00000
    202      -6.8650      1.00000
    203      -6.8609      1.00000
    204      -6.8565      1.00000
    205      -6.8508      1.00000
    206      -6.8465      1.00000
    207      -6.8449      1.00000
    208      -6.8287      1.00000
    209      -6.8270      1.00000
    210      -6.8212      1.00000
    211      -6.8171      1.00000
    212      -6.8154      1.00000
    213      -6.8112      1.00000
    214      -6.7692      1.00000
    215      -6.7626      1.00000
    216      -6.7483      1.00000
    217      -6.7400      1.00000
    218      -6.7390      1.00000
    219      -6.7366      1.00000
    220      -6.7285      1.00000
    221      -6.7262      1.00000
    222      -6.7224      1.00000
    223      -6.7213      1.00000
    224      -6.7168      1.00000
    225      -6.7108      1.00000
    226      -6.7058      1.00000
    227      -6.7020      1.00000
    228      -6.6908      1.00000
    229      -6.6885      1.00000
    230      -6.6804      1.00000
    231      -6.6727      1.00000
    232      -6.6696      1.00000
    233      -6.6626      1.00000
    234      -6.6625      1.00000
    235      -6.6470      1.00000
    236      -6.6443      1.00000
    237      -6.6379      1.00000
    238      -6.6364      1.00000
    239      -6.6347      1.00000
    240      -6.6323      1.00000
    241      -6.6277      1.00000
    242      -6.6262      1.00000
    243      -6.6203      1.00000
    244      -6.6195      1.00000
    245      -6.6141      1.00000
    246      -6.6131      1.00000
    247      -6.6081      1.00000
    248      -6.6063      1.00000
    249      -6.6045      1.00000
    250      -6.6024      1.00000
    251      -6.6018      1.00000
    252      -6.6007      1.00000
    253      -6.5981      1.00000
    254      -6.5977      1.00000
    255      -6.5966      1.00000
    256      -6.5919      1.00000
    257      -6.5900      1.00000
    258      -6.5890      1.00000
    259      -6.5825      1.00000
    260      -6.5824      1.00000
    261      -6.5769      1.00000
    262      -6.5751      1.00000
    263      -6.5742      1.00000
    264      -6.5703      1.00000
    265      -6.5688      1.00000
    266      -6.5647      1.00000
    267      -6.5566      1.00000
    268      -6.5534      1.00000
    269      -6.5506      1.00000
    270      -6.5462      1.00000
    271      -6.5434      1.00000
    272      -6.5378      1.00000
    273      -6.5196      1.00000
    274      -6.5126      1.00000
    275      -6.5094      1.00000
    276      -6.5082      1.00000
    277      -6.5076      1.00000
    278      -6.5044      1.00000
    279      -6.5004      1.00000
    280      -6.4897      1.00000
    281      -6.4890      1.00000
    282      -6.4846      1.00000
    283      -6.4798      1.00000
    284      -6.4768      1.00000
    285      -6.4764      1.00000
    286      -6.4749      1.00000
    287      -6.4645      1.00000
    288      -6.4610      1.00000
    289      -6.4603      1.00000
    290      -6.4389      1.00000
    291      -6.4364      1.00000
    292      -6.4340      1.00000
    293      -6.4242      1.00000
    294      -6.4192      1.00000
    295      -6.4179      1.00000
    296      -6.4136      1.00000
    297      -6.4058      1.00000
    298      -6.3975      1.00000
    299      -6.3864      1.00000
    300      -6.3839      1.00000
    301      -6.3770      1.00000
    302      -6.3764      1.00000
    303      -6.3749      1.00000
    304      -6.3711      1.00000
    305      -6.3617      1.00000
    306      -6.3578      1.00000
    307      -6.3538      1.00000
    308      -6.3302      1.00000
    309      -6.3187      1.00000
    310      -6.3112      1.00000
    311      -6.3064      1.00000
    312      -6.2152      1.00000
    313      -6.2134      1.00000
    314      -6.2050      1.00000
    315      -6.1928      1.00000
    316      -6.1842      1.00000
    317      -6.1737      1.00000
    318      -6.1674      1.00000
    319      -6.1672      1.00000
    320      -6.1629      1.00000
    321      -6.1564      1.00000
    322      -6.1550      1.00000
    323      -6.1448      1.00000
    324      -6.1415      1.00000
    325      -6.1407      1.00000
    326      -5.8481      1.00000
    327      -5.8238      1.00000
    328      -5.8208      1.00000
    329      -5.4215      1.00000
    330      -4.9719      1.00000
    331      -4.9616      1.00000
    332      -4.9460      1.00000
    333      -4.9232      1.00000
    334      -4.9060      1.00000
    335      -4.8889      1.00000
    336      -4.8762      1.00000
    337      -4.8752      1.00000
    338      -4.8662      1.00000
    339      -4.8490      1.00000
    340      -4.8418      1.00000
    341      -4.8380      1.00000
    342      -4.8311      1.00000
    343      -4.7810      1.00000
    344      -4.7296      1.00000
    345      -4.7021      1.00000
    346      -4.6378      1.00000
    347      -4.6046      1.00000
    348      -4.5969      1.00000
    349      -4.5934      1.00000
    350      -4.5922      1.00000
    351      -4.5844      1.00000
    352      -4.5767      1.00000
    353      -4.5740      1.00000
    354      -4.5696      1.00000
    355      -4.5670      1.00000
    356      -4.5593      1.00000
    357      -4.5427      1.00000
    358      -4.5399      1.00000
    359      -4.4548      1.00000
    360      -4.3336      1.00000
    361      -4.3215      1.00000
    362      -4.3024      1.00000
    363      -4.2881      1.00000
    364      -4.2808      1.00000
    365      -4.2749      1.00000
    366      -4.2551      1.00000
    367      -4.2475      1.00000
    368      -4.2415      1.00000
    369      -4.2270      1.00000
    370      -4.1599      1.00000
    371      -4.1572      1.00000
    372      -4.1179      1.00000
    373      -4.1000      1.00000
    374      -4.0371      1.00000
    375      -4.0207      1.00000
    376      -4.0170      1.00000
    377      -4.0012      1.00000
    378      -3.9975      1.00000
    379      -3.9969      1.00000
    380      -3.9786      1.00000
    381      -3.9764      1.00000
    382      -3.8619      1.00000
    383      -3.7978      1.00000
    384      -3.7607      1.00000
    385      -3.6420      1.00000
    386      -3.2630      1.00000
    387      -3.2439      1.00000
    388      -3.2381      1.00000
    389      -3.2223      1.00000
    390      -3.2209      1.00000
    391      -3.1843      1.00000
    392      -3.1518      1.00000
    393      -3.0971      1.00000
    394      -3.0693      1.00000
    395      -2.9334      1.00000
    396      -2.9210      1.00000
    397      -2.8907      1.00000
    398      -2.8816      1.00000
    399      -2.8748      1.00000
    400      -2.8668      1.00000
    401      -2.8568      1.00000
    402      -2.8424      1.00000
    403      -2.8376      1.00000
    404      -2.8293      1.00000
    405      -2.8071      1.00000
    406      -2.8045      1.00000
    407      -2.7840      1.00000
    408      -2.7562      1.00000
    409      -2.7505      1.00000
    410      -2.7189      1.00000
    411      -2.6834      1.00000
    412      -2.6760      1.00000
    413      -2.6699      1.00000
    414      -2.6597      1.00000
    415      -2.6485      1.00000
    416      -2.5615      1.00000
    417      -2.5145      1.00000
    418      -2.4988      1.00000
    419      -2.3665      1.00000
    420      -2.3315      1.00000
    421      -2.3306      1.00000
    422      -2.3064      1.00000
    423      -2.2992      1.00000
    424      -2.2979      1.00000
    425      -2.2970      1.00000
    426      -2.2913      1.00000
    427      -2.2850      1.00000
    428      -2.2689      1.00000
    429      -2.2373      1.00000
    430      -2.2037      1.00000
    431      -2.1706      1.00000
    432      -2.1347      1.00000
    433      -2.1322      1.00000
    434      -2.1125      1.00000
    435      -2.1100      1.00000
    436      -2.0845      1.00000
    437      -2.0826      1.00000
    438      -2.0696      1.00000
    439      -2.0197      1.00000
    440      -1.8718      1.00000
    441      -1.8381      1.00000
    442      -1.7651      1.00000
    443      -1.7217      1.00000
    444      -1.7095      1.00000
    445      -1.6970      1.00000
    446      -1.6747      1.00000
    447      -1.6440      1.00000
    448      -1.6371      1.00000
    449      -1.6317      1.00000
    450      -1.6291      1.00000
    451      -1.6224      1.00000
    452      -1.6210      1.00000
    453      -1.6176      1.00000
    454      -1.6165      1.00000
    455      -1.6115      1.00000
    456      -1.6107      1.00000
    457      -1.6042      1.00000
    458      -1.6017      1.00000
    459      -1.6002      1.00000
    460      -1.5942      1.00000
    461      -1.5906      1.00000
    462      -1.5896      1.00000
    463      -1.5402      1.00000
    464      -1.5259      1.00000
    465      -1.5211      1.00000
    466      -1.5088      1.00000
    467      -1.5079      1.00000
    468      -1.4906      1.00000
    469      -1.4884      1.00000
    470      -1.4861      1.00000
    471      -1.4353      1.00000
    472      -1.4013      1.00000
    473      -1.3381      1.00000
    474      -1.3217      1.00000
[...]
      6.49771      1.87536     15.62540        -0.000017     -0.000667     -0.003093
      6.45422      1.92298      5.25118         0.001041     -0.000744      0.000643
      6.50374      1.87546     10.42924        -0.001235      0.003750     -0.001754
      4.87255      4.69198     15.62558         0.001566     -0.007160     -0.005016
      4.88933      4.63731      5.25042         0.006443     -0.003049     -0.004085
      4.87693      4.69565     10.42997        -0.000100     -0.001229     -0.005455
      3.22497      7.49074     15.55460        -0.009815     -0.001597      0.007089
      3.22634      7.49141      5.23325         0.000692      0.002957      0.003011
      3.25216      7.50556     10.42044        -0.005609     -0.003865     -0.005714
      1.63673      0.95183      2.64767        -0.005317     -0.011209      0.006727
      1.63981      0.94800      7.81378         0.002381      0.005061     -0.006474
      1.62448      0.93907     13.02182         0.001135     -0.000905      0.001708
     -0.01703      3.74265      2.60372         0.007367     -0.000143      0.007286
      0.00063      3.75097      7.81226         0.007135     -0.001631     -0.003065
     -0.00146      3.75101     13.02792        -0.001680     -0.002505     -0.000338
     -1.64318      6.56386      2.60367        -0.003250     -0.000137      0.001390
     -1.62560      6.56800      7.81229         0.003416      0.002657     -0.000885
     -1.62674      6.56656     13.02848        -0.002441      0.002581     -0.004703
      4.86739      0.93672      2.60475        -0.010402     -0.002901      0.003445
      4.88542      0.92959      7.84484         0.002794     -0.000911     -0.002956
      4.87180      0.93770     13.02654         0.004504     -0.004368     -0.000491
      3.24279      3.75497      2.60434        -0.007702     -0.012639      0.002983
      3.24845      3.76798      7.84464        -0.004068      0.001120     -0.002255
      3.24842      3.75160     13.02659        -0.004243      0.004166     -0.002043
      1.58697      6.54644      2.58680        -0.013321     -0.003645     -0.000817
      1.62197      6.56473      7.82185         0.001533     -0.002006      0.007441
      1.61492      6.56034     13.00353        -0.004306      0.000536      0.001400
      8.09509      0.89147      2.54375         0.002314      0.004334     -0.000729
      8.13166      0.94145      7.81297         0.010998      0.009441      0.003783
      8.12519      0.94345     13.01626        -0.001229     -0.004211     -0.001260
      6.49479      3.75361      2.59825        -0.009344     -0.000590      0.003430
      6.50878      3.75862      7.84076         0.008547      0.005552      0.005314
      6.50005      3.75353     13.02831         0.000857     -0.001611      0.002413
      4.82075      6.57300      2.54581        -0.004135     -0.002222     -0.006421
      4.88302      6.57305      7.81296         0.004974      0.004298      0.007883
      4.87954      6.56645     13.01701        -0.003511      0.005950     -0.010931
      4.74613      8.37802      3.69726        -0.010525     -0.005605     -0.021481
     -0.00472      1.88352      1.97502        -0.002958      0.001976     -0.000126
      0.00905      1.87397      7.19515        -0.000623      0.003048     -0.008174
      0.00117      1.87767     12.40113         0.001215      0.001059      0.004044
     -1.63265      4.69011      1.98680        -0.003923      0.000712      0.005940
     -1.62390      4.69079      7.19727         0.008219      0.011443     -0.004805
     -1.62437      4.69143     12.40800         0.000212     -0.004684      0.009185
     -3.24756      7.50572      1.97489         0.007465     -0.011322      0.002570
     -3.24572      7.51498      7.19494        -0.000567     -0.001242     -0.012859
     -3.24725      7.50587     12.40143        -0.004671      0.004772      0.000975
      3.25032      1.88136      1.98654        -0.011159     -0.006757      0.000132
      3.27997      1.89486      7.24453        -0.001034      0.001134      0.002781
      3.24919      1.87657     12.40907         0.003869      0.007000      0.008399
      1.60899      4.66944      1.98612         0.002946     -0.001482     -0.003565
      1.62780      4.69102      7.19675        -0.000821      0.010933     -0.004845
      1.62229      4.68277     12.40237         0.001471     -0.001202      0.006282
     -0.02710      7.50665      1.98583        -0.002457     -0.001970      0.000953
      0.00246      7.50692      7.19679         0.007123     -0.003981     -0.003172
     -0.00762      7.50621     12.40283         0.002729      0.000963      0.004660
      6.49399      1.87614      1.98481         0.002803     -0.009183      0.010023
      6.49932      1.88432      7.22155         0.002327      0.002188     -0.005019
      6.49693      1.87786     12.41092        -0.002004      0.001443      0.003826
      4.86940      4.69362      1.98539        -0.006811     -0.000934      0.001211
      4.88127      4.68811      7.22088         0.003624      0.004815     -0.004138
      4.87483      4.68938     12.41114        -0.005252     -0.004242      0.005501
      3.15099      7.44952      1.86887        -0.005722     -0.007907      0.003750
      3.24854      7.50323      7.20578         0.002208      0.002291     -0.001802
      3.24868      7.50437     12.40601        -0.009049     -0.006170      0.003183
      1.78267      1.03296      4.66391        -0.009964     -0.004523     -0.006410
      1.62718      0.94045      9.80217         0.006696      0.001830     -0.005282
      1.62571      0.94124     15.00430         0.000029     -0.004001      0.001864
      0.00387      3.74955      4.59339        -0.003733     -0.000751      0.002953
     -0.00209      3.75154      9.79761         0.006005      0.005698      0.000101
     -0.00485      3.74925     15.01007        -0.003869      0.007695     -0.003560
     -1.62577      6.57390      4.59407         0.005178      0.004520     -0.008788
     -1.62529      6.56517      9.79796         0.001875      0.001498     -0.005670
     -1.63062      6.56564     15.01011         0.001453     -0.007192      0.002145
      4.90614      0.94139      4.59274         0.003821     -0.002758     -0.003296
      4.87797      0.93600      9.82131         0.002896      0.000305      0.000202
      4.87257      0.93769     15.01299        -0.002310     -0.001031     -0.001648
      3.26742      3.78117      4.59245         0.003119      0.013937     -0.002288
      3.25045      3.75763      9.82095        -0.002067      0.001548      0.004935
      3.24756      3.75334     15.01284         0.003083     -0.001605      0.000553
      1.62318      6.56583      4.58322         0.002182      0.002657     -0.001443
      1.62493      6.56605      9.80561        -0.004610     -0.002841      0.000710
      1.59299      6.54843     14.97731         0.000370     -0.001498      0.002813
      8.06254      0.98488      4.66255         0.015491      0.005607     -0.006653
      8.12478      0.93838      9.80052         0.000298      0.000723      0.002726
      8.12237      0.94475     14.99797        -0.008855     -0.005851     -0.001504
      6.51016      3.76236      4.58942         0.002147     -0.000709     -0.000956
      6.50128      3.75346      9.81699         0.001481      0.002833      0.010052
      6.49788      3.75246     15.01474        -0.006163      0.001072      0.000077
      4.88621      6.49791      4.65884         0.003955      0.005785      0.003403
      4.87595      6.56775      9.80097         0.002861      0.002344     -0.002234
      4.87878      6.56420     14.99752        -0.007332     -0.004843      0.006291
 -----------------------------------------------------------------------------------
    total drift:                                0.001730     -0.018218      0.950686


--------------------------------------------------------------------------------------------------------



  FREE ENERGIE OF THE ION-ELECTRON SYSTEM (eV)
  ---------------------------------------------------
  free  energy   TOTEN  =      -682.23494681 eV

  energy  without entropy=     -682.23494681  energy(sigma->0) =     -682.23494681
 


--------------------------------------------------------------------------------------------------------


    POTLOK:  cpu time     19.3057: real time     19.4417


--------------------------------------------------------------------------------------------------------




--------------------------------------------------------------------------------------------------------


  
 reached required accuracy - stopping structural energy minimisation
 writing wavefunctions
     LOOP+:  cpu time   1191.6754: real time   1201.8513
    4ORBIT:  cpu time      0.0000: real time      0.0000



 total charge

# of ion       s       p       d       tot
------------------------------------------
    1        0.412   0.480   9.950  10.842
    2        0.397   0.454   9.943  10.794
    3        0.412   0.480   9.950  10.841
    4        0.411   0.478   9.949  10.838
    5        0.410   0.477   9.949  10.837
    6        0.412   0.480   9.950  10.842
    7        0.412   0.480   9.950  10.842
    8        0.398   0.454   9.943  10.795
    9        0.411   0.480   9.950  10.841
   10        0.410   0.478   9.949  10.837
   11        0.429   0.517   9.962  10.908
   12        0.411   0.479   9.950  10.840
   13        0.411   0.478   9.949  10.838
   14        0.410   0.477   9.949  10.836
   15        0.412   0.482   9.951  10.845
   16        0.411   0.478   9.949  10.838
   17        0.410   0.477   9.949  10.836
   18        0.413   0.482   9.951  10.845
   19        0.411   0.478   9.949  10.838
   20        0.424   0.500   9.956  10.880
   21        0.412   0.480   9.950  10.842
   22        0.411   0.478   9.949  10.837
   23        0.424   0.500   9.956  10.879
   24        0.412   0.480   9.950  10.842
   25        0.417   0.493   9.955  10.865
   26        0.403   0.467   9.944  10.815
   27        0.411   0.478   9.949  10.839
   28        0.398   0.457   9.940  10.795
   29        0.410   0.477   9.949  10.836
   30        0.412   0.480   9.950  10.842
   31        0.414   0.484   9.951  10.849
   32        0.411   0.478   9.949  10.838
   33        0.412   0.480   9.950  10.841
   34        0.413   0.484   9.951  10.848
   35        0.411   0.478   9.949  10.837
   36        0.412   0.480   9.950  10.842
   37        0.410   0.478   9.949  10.837
   38        0.414   0.485   9.952  10.851
   39        0.411   0.478   9.949  10.838
   40        0.410   0.478   9.949  10.837
   41        0.414   0.485   9.952  10.851
   42        0.411   0.478   9.949  10.838
   43        0.416   0.490   9.953  10.859
   44        0.411   0.479   9.950  10.840
   45        0.413   0.484   9.952  10.849
   46        0.393   0.448   9.944  10.786
   47        0.410   0.477   9.949  10.836
   48        0.412   0.482   9.950  10.844
   49        0.410   0.477   9.949  10.835
   50        0.413   0.484   9.951  10.848
   51        0.411   0.479   9.949  10.839
   52        0.393   0.449   9.945  10.787
   53        0.410   0.477   9.949  10.836
   54        0.412   0.482   9.951  10.845
   55        1.660   3.196   0.000   4.856
   56        1.576   3.519   0.000   5.095
   57        1.574   3.527   0.000   5.101
   58        1.574   3.529   0.000   5.103
   59        1.574   3.529   0.000   5.103
   60        1.574   3.528   0.000   5.102
   61        1.574   3.528   0.000   5.102
   62        1.576   3.519   0.000   5.095
   63        1.574   3.527   0.000   5.101
   64        1.574   3.528   0.000   5.102
   65        1.574   3.528   0.000   5.102
   66        1.574   3.532   0.000   5.106
   67        1.574   3.529   0.000   5.103
   68        1.574   3.530   0.000   5.104
   69        1.574   3.526   0.000   5.100
   70        1.574   3.530   0.000   5.104
   71        1.574   3.530   0.000   5.104
   72        1.574   3.526   0.000   5.100
   73        1.574   3.530   0.000   5.104
   74        1.574   3.528   0.000   5.102
   75        1.574   3.530   0.000   5.104
   76        1.574   3.529   0.000   5.103
   77        1.574   3.528   0.000   5.101
   78        1.574   3.530   0.000   5.104
   79        1.574   3.529   0.000   5.103
   80        1.576   3.536   0.000   5.112
   81        1.574   3.530   0.000   5.104
   82        1.574   3.526   0.000   5.100
   83        1.580   3.531   0.000   5.111
   84        1.574   3.528   0.000   5.102
   85        1.574   3.529   0.000   5.103
   86        1.574   3.527   0.000   5.101
   87        1.574   3.528   0.000   5.102
   88        1.574   3.529   0.000   5.103
   89        1.574   3.527   0.000   5.101
   90        1.574   3.528   0.000   5.102
   91        1.574   3.528   0.000   5.102
   92        1.574   3.533   0.000   5.108
   93        1.574   3.530   0.000   5.104
   94        1.574   3.527   0.000   5.101
   95        1.574   3.533   0.000   5.108
   96        1.574   3.530   0.000   5.104
   97        1.574   3.527   0.000   5.101
   98        1.574   3.526   0.000   5.100
   99        1.574   3.527   0.000   5.101
  100        1.574   3.532   0.000   5.106
  101        1.591   3.464   0.000   5.054
  102        1.574   3.527   0.000   5.101
  103        1.574   3.528   0.000   5.102
  104        1.574   3.532   0.000   5.106
  105        1.574   3.530   0.000   5.104
  106        1.574   3.528   0.000   5.102
  107        1.590   3.465   0.000   5.055
  108        1.574   3.527   0.000   5.101
  109        1.574   3.528   0.000   5.102
--------------------------------------------------
tot        108.885 219.456 537.285 865.626



 magnetization (x)

# of ion       s       p       d       tot
------------------------------------------
    1       -0.000   0.001   0.001   0.001
    2       -0.003  -0.004   0.001  -0.006
    3       -0.000  -0.000   0.000  -0.000
    4       -0.000  -0.000   0.000  -0.000
    5       -0.000  -0.000  -0.000  -0.000
    6       -0.000   0.000   0.000   0.000
    7       -0.000   0.001   0.001   0.001
    8       -0.003  -0.004   0.001  -0.006
    9       -0.000  -0.000   0.000  -0.000
   10       -0.000  -0.000   0.000  -0.000
   11       -0.000   0.000   0.001   0.001
   12       -0.000  -0.000   0.000   0.000
   13       -0.000  -0.000   0.000  -0.000
   14       -0.000  -0.000  -0.000  -0.000
   15       -0.000   0.000   0.000   0.000
   16       -0.000  -0.000   0.000  -0.000
   17       -0.000  -0.000  -0.000  -0.000
   18       -0.000   0.000   0.000   0.000
   19       -0.000  -0.000   0.000  -0.000
   20        0.003   0.014   0.011   0.028
   21       -0.000  -0.000   0.000  -0.000
   22       -0.000  -0.000   0.000  -0.000
   23        0.003   0.014   0.010   0.027
   24       -0.000  -0.000   0.000  -0.000
   25       -0.000  -0.000   0.000  -0.000
   26       -0.009  -0.012   0.008  -0.014
   27       -0.000  -0.000   0.000   0.000
   28       -0.006  -0.006   0.014   0.002
   29       -0.000  -0.000   0.000  -0.000
   30       -0.000   0.000   0.000   0.000
   31       -0.000   0.000   0.001   0.001
   32       -0.000  -0.000  -0.000  -0.000
   33       -0.000   0.000   0.000   0.000
   34       -0.000   0.000   0.001   0.001
   35       -0.000  -0.000   0.000  -0.000
   36       -0.000   0.000   0.000   0.000
   37       -0.000  -0.000   0.000  -0.000
   38       -0.000   0.000   0.000   0.000
   39       -0.000  -0.000   0.000  -0.000
   40       -0.000  -0.000   0.000  -0.000
   41       -0.000   0.000   0.000   0.000
   42       -0.000  -0.000  -0.000  -0.000
   43       -0.000   0.000   0.000   0.000
   44       -0.000  -0.000  -0.000  -0.000
   45       -0.000  -0.000  -0.000  -0.000
   46       -0.007  -0.008   0.011  -0.005
   47       -0.000  -0.000   0.000  -0.000
   48       -0.000  -0.000   0.000  -0.000
   49       -0.000  -0.000   0.000  -0.000
   50       -0.000   0.000   0.000   0.000
   51       -0.000  -0.000   0.000  -0.000
   52       -0.007  -0.008   0.011  -0.005
   53       -0.000  -0.000   0.000  -0.000
   54       -0.000  -0.000   0.000  -0.000
   55        0.019   1.120   0.000   1.139
   56        0.003   0.046   0.000   0.049
   57       -0.000  -0.000   0.000  -0.000
   58       -0.000   0.000   0.000   0.000
   59        0.000   0.001   0.000   0.001
   60       -0.000  -0.000   0.000  -0.000
   61        0.000   0.000   0.000   0.000
   62        0.002   0.045   0.000   0.047
   63       -0.000  -0.000   0.000  -0.000
   64       -0.000   0.000   0.000   0.000
   65        0.000   0.000   0.000   0.000
   66        0.000   0.001   0.000   0.001
   67       -0.000   0.000   0.000   0.000
   68        0.000   0.001   0.000   0.001
   69       -0.000  -0.000   0.000  -0.000
   70       -0.000   0.000   0.000   0.000
   71        0.000   0.001   0.000   0.001
   72       -0.000  -0.000   0.000  -0.000
   73       -0.000   0.000   0.000   0.000
   74       -0.000   0.000   0.000   0.000
   75        0.000   0.008   0.000   0.009
   76       -0.000   0.000   0.000   0.000
   77       -0.000   0.000   0.000   0.000
   78        0.000   0.008   0.000   0.008
   79       -0.000   0.000   0.000   0.000
   80       -0.001   0.001   0.000   0.000
   81       -0.000  -0.001   0.000  -0.001
   82        0.000   0.000   0.000   0.000
   83        0.000   0.019   0.000   0.019
   84       -0.000   0.000   0.000  -0.000
   85       -0.000   0.000   0.000   0.000
   86       -0.000  -0.001   0.000  -0.001
   87       -0.000  -0.000   0.000  -0.000
   88        0.000   0.001   0.000   0.002
   89       -0.000  -0.001   0.000  -0.001
   90       -0.000  -0.000   0.000  -0.000
   91        0.000   0.001   0.000   0.001
   92        0.000   0.005   0.000   0.005
   93        0.000   0.000   0.000   0.000
   94       -0.000  -0.000   0.000  -0.000
   95        0.000   0.005   0.000   0.005
   96        0.000   0.000   0.000   0.000
   97       -0.000  -0.000   0.000  -0.000
   98       -0.000  -0.002   0.000  -0.002
   99       -0.000  -0.000   0.000  -0.000
  100       -0.000  -0.000   0.000  -0.000
  101        0.014   0.251   0.000   0.265
  102       -0.000  -0.000   0.000  -0.000
  103       -0.000   0.000   0.000   0.000
  104        0.000   0.012   0.000   0.012
  105        0.000   0.000   0.000   0.000
  106       -0.000  -0.000   0.000  -0.000
  107        0.014   0.245   0.000   0.259
  108       -0.000  -0.000   0.000  -0.000
  109       -0.000   0.000   0.000   0.000
--------------------------------------------------
tot          0.018   1.754   0.071   1.843
 

 total amount of memory used by VASP MPI-rank0  6556212. kBytes
=======================================================================

   base                                    :      30000. kBytes
   nonlr-proj                              :      38454. kBytes
   fftplans                                :      50796. kBytes
   grid                                    :     133963. kBytes
   one-center                              :       3390. kBytes
   HF                                      :        129. kBytes
   wavefun                                 :    6105354. kBytes
   fock_wrk                                :     194126. kBytes
 
  
  
 General timing and accounting informations for this job:
 ========================================================
  
                  Total CPU time used (sec):     1205.311
                            User time (sec):     1199.771
                          System time (sec):        5.540
                         Elapsed time (sec):     1222.266
  
                   Maximum memory used (kb):     9983404.
                   Average memory used (kb):          N/A
  
                          Minor page faults:       233418
                          Major page faults:         9525
                 Voluntary context switches:        51922
