 running    2 mpi-ranks, on    1 nodes
 distrk:  each k-point on    1 cores,    2 groups
 distr:  one band on    1 cores,    1 groups
 Offloading initialized ...    2 GPUs detected
 vasp.6.5.1 10Mar25 (build May 13 2025 11:33:44) complex                         
 POSCAR found type information on POSCAR ZnO 
 POSCAR found :  2 types and     109 ions
 -----------------------------------------------------------------------------
|                                                                             |
|           W    W    AA    RRRRR   N    N  II  N    N   GGGG   !!!           |
|           W    W   A  A   R    R  NN   N  II  NN   N  G    G  !!!           |
|           W    W  A    A  R    R  N N  N  II  N N  N  G       !!!           |
|           W WW W  AAAAAA  RRRRR   N  N N  II  N  N N  G  GGG   !            |
|           WW  WW  A    A  R   R   N   NN  II  N   NN  G    G                |
|           W    W  A    A  R    R  N    N  II  N    N   GGGG   !!!           |
|                                                                             |
|     You requested a magnetic or noncollinear calculation, but did not       |
|     specify the initial magnetic moment with the MAGMOM tag. Note that      |
|     a default of 1 will be used for all atoms. This ferromagnetic setup     |
|     may break the symmetry of the crystal, in particular it may rule        |
|     out finding an antiferromagnetic solution. Thence, we recommend         |
|     setting the initial magnetic moment manually or verifying carefully     |
|     that this magnetic setup is desired.                                    |
|                                                                             |
 -----------------------------------------------------------------------------

 scaLAPACK will be used selectively (only on CPU)
 LDA part: xc-table for (Slater+PW92), standard interpolation
 found WAVECAR, reading the header
 POSCAR, INCAR and KPOINTS ok, starting setup
 FFT: planning ... GRIDC
 FFT: planning ... GRID_SOFT
 FFT: planning ... GRID
 reading WAVECAR
 the WAVECAR file was read successfully
 initial charge from wavefunction
 entering main loop
       N       E                     dE             d eps       ncg     rms           ort
SDA:   1    -0.682234945218E+03   -0.68223E+03    0.00000E+00  2564   0.758E-05   0.000E+00
 gam= 0.000 g(H,U,f)=  0.569E-05 0.188E-05 0.855E-22 ort(H,U,f) = 0.000E+00 0.000E+00 0.000E+00
 gam= 0.000 trial= 0.400  step=  0.4181 mean=  0.4000
CGA:   2    -0.682234946809E+03   -0.15911E-05   -0.15845E-05  2564   0.298E-05   0.731E-06
 gam= 0.393 g(H,U,f)=  0.123E-05 0.175E-05 0.353E-20 ort(H,U,f) =-0.102E-05 0.175E-05-0.499E-21
 gam= 0.393 trial= 0.402  step=  1.8654 mean=  0.4018
  continued last = 1.356  step=  1.3624 harm=  1.4765 4th-ord=  1.3624
  continued last = 2.034  step=  1.4389 harm=  1.4766 4th-ord=  1.4389
  steps along line     -0.40181E-04   0.40181E-04   0.40181E+00   0.13561E+01   0.20342E+01
  energies along line   0.13118E-09  -0.13118E-09  -0.11705E-05  -0.24727E-05  -0.21344E-05
 final diagonalization occupied
   1 F= -.68223495E+03 E0= -.68223495E+03  d E =-.682235E+03  mag=     2.0000
 curvature:   0.00 expect dE= 0.000E+00 dE for cont linesearch  0.000E+00
 trial: gam= 0.00000 g(F)=  0.426E-03 g(S)=  0.000E+00 ort = 0.000E+00 (trialstep = 0.100E+01)
 search vector abs. value=  0.426E-03
 reached required accuracy - stopping structural energy minimisation
 writing wavefunctions
